<event>
12    1  0.1629553E-001  0.2520534E+03  0.7818608E-02  0.1113819E+00
         21   -1    0    0  501  502  0.00000000000E+00  0.00000000000E+00  0.84069110679E+02  0.84069110679E+02  0.00000000000E+00 0. -1.
         21   -1    0    0  502  503 -0.00000000000E+00 -0.00000000000E+00 -0.11377277512E+04  0.11377277512E+04  0.00000000000E+00 0.  1.
         -6    2    1    2    0  503 -0.21753560506E+02  0.18397036030E+03 -0.15009073224E+03  0.28373189220E+03  0.15381237883E+03 0.  0.
        -24    2    3    3    0    0  0.20571085819E+02  0.45407077961E+02 -0.69038275555E+02  0.11765134055E+03  0.81182400445E+02 0.  0.
          6    2    1    2  501    0  0.21753560506E+02 -0.18397036030E+03 -0.90356790825E+03  0.93806496966E+03  0.17091697286E+03 0.  0.
         24    2    5    5    0    0  0.49999648056E+02 -0.31806306314E+02 -0.34888050515E+03  0.36217266554E+03  0.77070272224E+02 0.  0.
          5    1    5    5  501    0 -0.28246087550E+02 -0.15216405398E+03 -0.55468740310E+03  0.57589230412E+03  0.47000000000E+01 0. -1.
        -13    1    6    6    0    0  0.81452333146E+01  0.19351913389E+02 -0.17322100643E+03  0.17448884906E+03  0.00000000000E+00 0.  1.
         14    1    6    6    0    0  0.41854414741E+02 -0.51158219703E+02 -0.17565949872E+03  0.18768381648E+03  0.00000000000E+00 0. -1.
         -5    1    3    3    0  503 -0.42324646325E+02  0.13856328234E+03 -0.81052456689E+02  0.16608055164E+03  0.47000000000E+01 0.  1.
         11    1    4    4    0    0  0.49416430519E+02  0.42740812898E+02 -0.39857891499E+02  0.76533732479E+02  0.00000000000E+00 0. -1.
        -12    1    4    4    0    0 -0.28845344699E+02  0.26662650621E+01 -0.29180384056E+02  0.41117608076E+02  0.00000000000E+00 0.  1.
</event>
<event>
12    1  0.1629553E-001  0.1740050E+03  0.7818608E-02  0.1176598E+00
         21   -1    0    0  503  502  0.00000000000E+00  0.00000000000E+00  0.25932941911E+03  0.25932941911E+03  0.00000000000E+00 0.  1.
         21   -1    0    0  501  503 -0.00000000000E+00 -0.00000000000E+00 -0.46004510644E+03  0.46004510644E+03  0.00000000000E+00 0.  1.
          6    2    1    2  501    0  0.14868304655E+02 -0.26212595452E+02 -0.41505632413E+03  0.45005497485E+03  0.17137549865E+03 0.  0.
         24    2    3    3    0    0  0.28471060077E+02 -0.65241819384E+02 -0.38255992749E+03  0.39726841339E+03  0.80018734658E+02 0.  0.
         -6    2    1    2    0  502 -0.14868304655E+02  0.26212595452E+02  0.21434063681E+03  0.26931955070E+03  0.16025899401E+03 0.  0.
        -24    2    5    5    0    0 -0.26673056896E+02  0.75678403134E+02  0.14270184149E+03  0.18133986384E+03  0.77984985666E+02 0.  0.
          5    1    3    3  501    0 -0.13602755423E+02  0.39029223932E+02 -0.32496396644E+02  0.52786561459E+02  0.47000000000E+01 0. -1.
        -11    1    4    4    0    0  0.52616557939E+01 -0.67076738952E+01 -0.25373415993E+03  0.25387733618E+03  0.00000000000E+00 0.  1.
         12    1    4    4    0    0  0.23209404284E+02 -0.58534145489E+02 -0.12882576756E+03  0.14339107721E+03  0.00000000000E+00 0. -1.
         -5    1    5    5    0  502  0.11804752242E+02 -0.49465807682E+02  0.71638795319E+02  0.87979686859E+02  0.47000000000E+01 0.  1.
         13    1    6    6    0    0 -0.11571344890E+02  0.81812610162E+02  0.14286596061E+03  0.16503903146E+03  0.00000000000E+00 0. -1.
        -14    1    6    6    0    0 -0.15101712006E+02 -0.61342070283E+01 -0.16411911915E+00  0.16300832385E+02  0.00000000000E+00 0.  1.
</event>
<event>
12    1  0.1629553E-001  0.2194102E+03  0.7818608E-02  0.1135243E+00
         21   -1    0    0  501  502  0.00000000000E+00  0.00000000000E+00  0.23166709712E+04  0.23166709712E+04  0.00000000000E+00 0. -1.
         21   -1    0    0  502  503 -0.00000000000E+00 -0.00000000000E+00 -0.56841551604E+02  0.56841551604E+02  0.00000000000E+00 0. -1.
         -6    2    1    2    0  503  0.11865063160E+03 -0.15965904398E+02  0.17418505282E+03  0.27635890888E+03  0.17804755378E+03 0.  0.
        -24    2    3    3    0    0  0.19812875640E+02  0.36216465961E+02  0.12532174898E+03  0.15428674071E+03  0.79966712727E+02 0.  0.
          6    2    1    2  501    0 -0.11865063160E+03  0.15965904398E+02  0.20856443667E+04  0.20971536139E+04  0.18386944626E+03 0.  0.
         24    2    5    5    0    0 -0.76431490626E+02 -0.37585191793E+02  0.17866701859E+04  0.17904651293E+04  0.79502243279E+02 0.  0.
          5    1    5    5  501    0 -0.42219140969E+02  0.53551096191E+02  0.29897418086E+03  0.30668848460E+03  0.47000000000E+01 0. -1.
        -11    1    6    6    0    0 -0.19535676049E+02 -0.52548808806E+02  0.72374340607E+03  0.72591152200E+03  0.00000000000E+00 0.  1.
         12    1    6    6    0    0 -0.56895814577E+02  0.14963617013E+02  0.10629267798E+04  0.10645536073E+04  0.00000000000E+00 0. -1.
         -5    1    3    3    0  503  0.98837755956E+02 -0.52182370359E+02  0.48863303846E+02  0.12207216817E+03  0.47000000000E+01 0.  1.
         13    1    4    4    0    0  0.19483055806E+02  0.16544850749E+02 -0.18264984849E+01  0.25625332126E+02  0.00000000000E+00 0. -1.
        -14    1    4    4    0    0  0.32981983367E+00  0.19671615212E+02  0.12714824746E+03  0.12866140858E+03  0.00000000000E+00 0.  1.
</event>
<event>
12    1  0.1629553E-001  0.1860745E+03  0.7818608E-02  0.1162188E+00
         21   -1    0    0  503  502  0.00000000000E+00  0.00000000000E+00  0.94307947044E+02  0.94307947044E+02  0.00000000000E+00 0.  1.
         21   -1    0    0  501  503 -0.00000000000E+00 -0.00000000000E+00 -0.12479031376E+04  0.12479031376E+04  0.00000000000E+00 0.  1.
          6    2    1    2  501    0  0.18355905790E+02  0.69838132631E+02 -0.11412478965E+04  0.11563176337E+04  0.17149170464E+03 0.  0.
         24    2    3    3    0    0 -0.43387909098E+02  0.20860843244E+01 -0.67684940344E+03  0.68293545294E+03  0.79930316838E+02 0.  0.
         -6    2    1    2    0  502 -0.18355905790E+02 -0.69838132631E+02 -0.12347294082E+02  0.18589345094E+03  0.17084968652E+03 0.  0.
        -24    2    5    5    0    0  0.85537413535E+01 -0.86979061101E+02 -0.56717049971E+02  0.13104178027E+03  0.79477046101E+02 0.  0.
          5    1    3    3  501    0  0.61743814889E+02  0.67752048306E+02 -0.46439849308E+03  0.47338218081E+03  0.47000000000E+01 0. -1.
        -11    1    4    4    0    0 -0.51912135276E+01 -0.35723286258E+02 -0.32616404635E+03  0.32815558354E+03  0.00000000000E+00 0.  1.
         12    1    4    4    0    0 -0.38196695571E+02  0.37809370583E+02 -0.35068535709E+03  0.35477986940E+03  0.00000000000E+00 0. -1.
         -5    1    5    5    0  502 -0.26909647144E+02  0.17140928470E+02  0.44369755888E+02  0.54851670675E+02  0.47000000000E+01 0.  1.
         11    1    6    6    0    0  0.23625902568E+02  0.22233983397E+01 -0.26708574555E+02  0.35727786485E+02  0.00000000000E+00 0. -1.
        -12    1    6    6    0    0 -0.15072161214E+02 -0.89202459441E+02 -0.30008475415E+02  0.95313993782E+02  0.00000000000E+00 0.  1.
</event>
<event>
12    1  0.1629553E-001  0.3086763E+03  0.7818608E-02  0.1081103E+00
         21   -1    0    0  501  502  0.00000000000E+00  0.00000000000E+00  0.28884696017E+04  0.28884696017E+04  0.00000000000E+00 0.  1.
         21   -1    0    0  502  503 -0.00000000000E+00 -0.00000000000E+00 -0.70039542126E+02  0.70039542126E+02  0.00000000000E+00 0. -1.
         -6    2    1    2    0  503 -0.16844558963E+03 -0.19335044582E+03  0.33066554546E+03  0.45166783234E+03  0.17001710575E+03 0.  0.
        -24    2    3    3    0    0 -0.13646569050E+03 -0.21165582730E+03  0.31553552161E+03  0.41155787645E+03  0.79975911091E+02 0.  0.
          6    2    1    2  501    0  0.16844558963E+03  0.19335044582E+03  0.24877645141E+04  0.25068413115E+04  0.17182191867E+03 0.  0.
         24    2    5    5    0    0  0.71658320257E+02  0.20576063926E+02  0.90582029688E+03  0.91254260704E+03  0.81641350817E+02 0.  0.
          5    1    5    5  501    0  0.96787269374E+02  0.17277438190E+03  0.15819442173E+04  0.15942987045E+04  0.47000000000E+01 0. -1.
        -11    1    6    6    0    0  0.75969260725E+02  0.99393398420E+01  0.44276087712E+03  0.44934097672E+03  0.00000000000E+00 0.  1.
         12    1    6    6    0    0 -0.43109404679E+01  0.10636724084E+02  0.46305941976E+03  0.46320163032E+03  0.00000000000E+00 0. -1.
         -5    1    3    3    0  503 -0.31979899131E+02  0.18305381479E+02  0.15130023847E+02  0.40109955885E+02  0.47000000000E+01 0.  1.
         13    1    4    4    0    0 -0.90733781778E+02 -0.18446399077E+03  0.21288748799E+03  0.29594030747E+03  0.00000000000E+00 0. -1.
        -14    1    4    4    0    0 -0.45731908722E+02 -0.27191836537E+02  0.10264803362E+03  0.11561756898E+03  0.00000000000E+00 0.  1.
</event>
<event>
12    1  0.1629553E-001  0.1748069E+03  0.7818608E-02  0.1173098E+00
         21   -1    0    0  503  502  0.00000000000E+00  0.00000000000E+00  0.41539635399E+03  0.41539635399E+03  0.00000000000E+00 0. -1.
         21   -1    0    0  501  503 -0.00000000000E+00 -0.00000000000E+00 -0.92274494349E+02  0.92274494349E+02  0.00000000000E+00 0. -1.
          6    2    1    2  501    0  0.32371005145E+02  0.30686156381E+01  0.46631285790E+02  0.18091969239E+03  0.17175610588E+03 0.  0.
         24    2    3    3    0    0 -0.45006327198E+02  0.91413944992E+01  0.66340946867E+01  0.93478309173E+02  0.81148311703E+02 0.  0.
         -6    2    1    2    0  502 -0.32371005145E+02 -0.30686156381E+01  0.27649057385E+03  0.32675115595E+03  0.17106134019E+03 0.  0.
        -24    2    5    5    0    0  0.27237072384E+02 -0.42095603660E+02  0.19068565042E+03  0.21512318640E+03  0.86041095355E+02 0.  0.
          5    1    3    3  501    0  0.77377332343E+02 -0.60727788611E+01  0.39997191104E+02  0.87441383222E+02  0.47000000000E+01 0. -1.
        -11    1    4    4    0    0  0.11006996106E+02 -0.24458035149E+02  0.84954421895E+01  0.28134000509E+02  0.00000000000E+00 0.  1.
         12    1    4    4    0    0 -0.56013323304E+02  0.33599429648E+02 -0.18613475028E+01  0.65344308664E+02  0.00000000000E+00 0. -1.
         -5    1    5    5    0  502 -0.59608077528E+02  0.39026988022E+02  0.85804923434E+02  0.11162796955E+03  0.47000000000E+01 0.  1.
         13    1    6    6    0    0 -0.30914452198E+02 -0.15799286663E+02  0.52905644940E+02  0.63279760432E+02  0.00000000000E+00 0. -1.
        -14    1    6    6    0    0  0.58151524582E+02 -0.26296316997E+02  0.13778000548E+03  0.15184342596E+03  0.00000000000E+00 0.  1.
</event>
<event>
12    1  0.1629553E-001  0.2350823E+03  0.7818608E-02  0.1123480E+00
         21   -1    0    0  503  502  0.00000000000E+00  0.00000000000E+00  0.23938023726E+03  0.23938023726E+03  0.00000000000E+00 0.  1.
         21   -1    0    0  501  503 -0.00000000000E+00 -0.00000000000E+00 -0.51452272248E+03  0.51452272248E+03  0.00000000000E+00 0.  1.
          6    2    1    2  501    0 -0.16149363336E+03  0.19056012652E+02 -0.41820769677E+03  0.47870970319E+03  0.16679921182E+03 0.  0.
         24    2    3    3    0    0 -0.15369213930E+03  0.33335439100E+02 -0.42512638905E+03  0.46041424933E+03  0.80723659051E+02 0.  0.
         -6    2    1    2    0  502  0.16149363336E+03 -0.19056012652E+02  0.14306521155E+03  0.27519325654E+03  0.16976556911E+03 0.  0.
        -24    2    5    5    0    0  0.18923993907E+03 -0.17836169696E+02  0.13363936438E+03  0.24549002284E+03  0.79221134247E+02 0.  0.
          5    1    3    3  501    0 -0.78014940542E+01 -0.14279426448E+02  0.69186922869E+01  0.18295453865E+02  0.47000000000E+01 0. -1.
        -13    1    4    4    0    0 -0.23767288126E+02 -0.23244094549E+02 -0.10949201609E+03  0.11442759066E+03  0.00000000000E+00 0.  1.
         14    1    4    4    0    0 -0.12992485118E+03  0.56579533649E+02 -0.31563437296E+03  0.34598665867E+03  0.00000000000E+00 0. -1.
         -5    1    5    5    0  502 -0.27746305713E+02 -0.12198429564E+01  0.94258471669E+01  0.29703233702E+02  0.47000000000E+01 0.  1.
         13    1    6    6    0    0  0.12611489879E+03  0.26072325498E+02  0.89497326910E+02  0.15682635422E+03  0.00000000000E+00 0. -1.
        -14    1    6    6    0    0  0.63125040281E+02 -0.43908495194E+02  0.44142037473E+02  0.88663668619E+02  0.00000000000E+00 0.  1.
</event>
<event>
12    1  0.1629553E-001  0.1766238E+03  0.7818608E-02  0.1171611E+00
         21   -1    0    0  503  502  0.00000000000E+00  0.00000000000E+00  0.30557427534E+02  0.30557427534E+02  0.00000000000E+00 0. -1.
         21   -1    0    0  501  503 -0.00000000000E+00 -0.00000000000E+00 -0.25006233878E+04  0.25006233878E+04  0.00000000000E+00 0. -1.
          6    2    1    2  501    0  0.52558837994E+01 -0.35911994635E+02 -0.22152131513E+04  0.22222432992E+04  0.17285450406E+03 0.  0.
         24    2    3    3    0    0  0.60428328192E+02 -0.44117356308E+02 -0.13525727854E+04  0.13577886633E+04  0.92406658716E+02 0.  0.
         -6    2    1    2    0  502 -0.52558837994E+01  0.35911994635E+02 -0.25485280904E+03  0.30893751619E+03  0.17080731529E+03 0.  0.
        -24    2    5    5    0    0  0.36922156749E+02  0.34416680263E+02 -0.24862672859E+03  0.26601808996E+03  0.80016376318E+02 0.  0.
          5    1    3    3  501    0 -0.55172444392E+02  0.82053616723E+01 -0.86264036587E+03  0.86445463583E+03  0.47000000000E+01 0. -1.
        -11    1    4    4    0    0  0.51429222025E+02  0.16308476383E+02 -0.46586716128E+03  0.46898096255E+03  0.00000000000E+00 0.  1.
         12    1    4    4    0    0  0.89991061664E+01 -0.60425832691E+02 -0.88670562411E+03  0.88880770079E+03  0.00000000000E+00 0. -1.
         -5    1    5    5    0  502 -0.42178040549E+02  0.14953143724E+01 -0.62260804532E+01  0.42919426224E+02  0.47000000000E+01 0.  1.
         13    1    6    6    0    0  0.51327368174E+02  0.53535977304E+01 -0.86880482854E+02  0.10105136334E+03  0.00000000000E+00 0. -1.
        -14    1    6    6    0    0 -0.14405211425E+02  0.29063082532E+02 -0.16174624574E+03  0.16496672662E+03  0.00000000000E+00 0.  1.
</event>
<event>
12    1  0.1629553E-001  0.2290008E+03  0.7818608E-02  0.1129798E+00
         21   -1    0    0  503  502  0.00000000000E+00  0.00000000000E+00  0.14441656649E+03  0.14441656649E+03  0.00000000000E+00 0. -1.
         21   -1    0    0  501  503 -0.00000000000E+00 -0.00000000000E+00 -0.34885189972E+03  0.34885189972E+03  0.00000000000E+00 0.  1.
          6    2    1    2  501    0 -0.80065282416E+02 -0.10200804207E+03 -0.13334423884E+03  0.25348667568E+03  0.17221706831E+03 0.  0.
         24    2    3    3    0    0  0.55382813439E+01 -0.76793479309E+02 -0.11993667939E+03  0.16312298300E+03  0.79349792034E+02 0.  0.
         -6    2    1    2    0  502  0.80065282416E+02  0.10200804207E+03 -0.71091094381E+02  0.23978179053E+03  0.18874658480E+03 0.  0.
        -24    2    5    5    0    0  0.69270180324E+02  0.12568807248E+03 -0.10402691839E+03  0.19754274967E+03  0.87210599990E+02 0.  0.
          5    1    3    3  501    0 -0.85603563760E+02 -0.25214562760E+02 -0.13407559453E+02  0.90363692676E+02  0.47000000000E+01 0. -1.
        -13    1    4    4    0    0 -0.27811839531E+02 -0.43226483082E+02 -0.98649493414E+02  0.11123735797E+03  0.00000000000E+00 0.  1.
         14    1    4    4    0    0  0.33350120875E+02 -0.33566996226E+02 -0.21287185976E+02  0.51885625030E+02  0.00000000000E+00 0. -1.
         -5    1    5    5    0  502  0.10795102092E+02 -0.23680030416E+02  0.32935824008E+02  0.42239040860E+02  0.47000000000E+01 0.  1.
         13    1    6    6    0    0  0.52558336804E+02  0.95384142558E+02 -0.25679336493E+02  0.11189254551E+03  0.00000000000E+00 0. -1.
        -14    1    6    6    0    0  0.16711843520E+02  0.30303929927E+02 -0.78347581896E+02  0.85650204156E+02  0.00000000000E+00 0.  1.
</event>
<event>
12    1  0.1629553E-001  0.1912508E+03  0.7818608E-02  0.1157584E+00
         21   -1    0    0  501  502  0.00000000000E+00  0.00000000000E+00  0.81133344757E+03  0.81133344757E+03  0.00000000000E+00 0. -1.
         21   -1    0    0  502  503 -0.00000000000E+00 -0.00000000000E+00 -0.69730990380E+02  0.69730990380E+02  0.00000000000E+00 0.  1.
         -6    2    1    2    0  503 -0.78440434798E+02 -0.23583247140E+02  0.10682917425E+03  0.21810592354E+03  0.17160608979E+03 0.  0.
        -24    2    3    3    0    0 -0.15280419623E+02  0.28878947964E+01 -0.10184351120E+02  0.82443976064E+02  0.80320962527E+02 0.  0.
          6    2    1    2  501    0  0.78440434798E+02  0.23583247140E+02  0.63477328294E+03  0.66295851441E+03  0.17282303013E+03 0.  0.
         24    2    5    5    0    0  0.66668727872E+02 -0.37109648195E+02  0.24980422104E+03  0.27302843190E+03  0.79501764205E+02 0.  0.
          5    1    5    5  501    0  0.11771706926E+02  0.60692895335E+02  0.38496906190E+03  0.38993008251E+03  0.47000000000E+01 0. -1.
        -13    1    6    6    0    0  0.38718079340E+02 -0.60548810153E+02  0.18790489017E+03  0.20118025705E+03  0.00000000000E+00 0.  1.
         14    1    6    6    0    0  0.27950648531E+02  0.23439161958E+02  0.61899330868E+02  0.71848174844E+02  0.00000000000E+00 0. -1.
         -5    1    3    3    0  503 -0.63160015175E+02 -0.26471141937E+02  0.11701352537E+03  0.13566194747E+03  0.47000000000E+01 0.  1.
         11    1    4    4    0    0 -0.11309752229E+02  0.23618497058E+02  0.28296511924E+02  0.38554331610E+02  0.00000000000E+00 0. -1.
        -12    1    4    4    0    0 -0.39706673938E+01 -0.20730602262E+02 -0.38480863045E+02  0.43889644455E+02  0.00000000000E+00 0.  1.
</event>
<event>
12    1  0.1629553E-001  0.2629486E+03  0.7818608E-02  0.1105429E+00
         21   -1    0    0  503  502  0.00000000000E+00  0.00000000000E+00  0.18782780326E+03  0.18782780326E+03  0.00000000000E+00 0.  1.
         21   -1    0    0  501  503 -0.00000000000E+00 -0.00000000000E+00 -0.38304030848E+03  0.38304030848E+03  0.00000000000E+00 0. -1.
          6    2    1    2  501    0 -0.15460184166E+03 -0.12397190300E+03 -0.15469361202E+03  0.30481594969E+03  0.17237136481E+03 0.  0.
         24    2    3    3    0    0 -0.70735374048E+02 -0.59605463693E+02  0.10272988069E+02  0.10882438854E+03  0.56399546208E+02 0.  0.
         -6    2    1    2    0  502  0.15460184166E+03  0.12397190300E+03 -0.40518893206E+02  0.26605216205E+03  0.17283289630E+03 0.  0.
        -24    2    5    5    0    0  0.11062326070E+02  0.15077673682E+02 -0.24871831732E+02  0.85142056611E+02  0.79251816941E+02 0.  0.
          5    1    3    3  501    0 -0.83866467617E+02 -0.64366439310E+02 -0.16496660009E+03  0.19599156116E+03  0.47000000000E+01 0. -1.
        -11    1    4    4    0    0 -0.71280530530E+02 -0.67300589907E+02  0.27822000555E+01  0.98071525285E+02  0.00000000000E+00 0.  1.
         12    1    4    4    0    0  0.54515648194E+00  0.76951262137E+01  0.74907880135E+01  0.10752863251E+02  0.00000000000E+00 0. -1.
         -5    1    5    5    0  502  0.14353951559E+03  0.10889422932E+03 -0.15647061474E+02  0.18091010544E+03  0.47000000000E+01 0.  1.
         11    1    6    6    0    0 -0.25435141643E+02  0.13465887119E+02  0.13821852558E+02  0.31926793676E+02  0.00000000000E+00 0. -1.
        -12    1    6    6    0    0  0.36497467713E+02  0.16117865631E+01 -0.38693684289E+02  0.53215262935E+02  0.00000000000E+00 0.  1.
</event>
<event>
12    1  0.1629553E-001  0.1949826E+03  0.7818608E-02  0.1155513E+00
         21   -1    0    0  501  502  0.00000000000E+00  0.00000000000E+00  0.18318842635E+03  0.18318842635E+03  0.00000000000E+00 0.  1.
         21   -1    0    0  502  503 -0.00000000000E+00 -0.00000000000E+00 -0.21885137099E+03  0.21885137099E+03  0.00000000000E+00 0.  1.
         -6    2    1    2    0  503  0.88754881456E+02  0.19638873860E+02  0.40577376144E+02  0.19268170604E+03  0.16497454967E+03 0.  0.
        -24    2    3    3    0    0  0.46191922896E+02 -0.17355974133E+02  0.80571449363E+02  0.12338639514E+03  0.79356918254E+02 0.  0.
          6    2    1    2  501    0 -0.88754881456E+02 -0.19638873860E+02 -0.76240320788E+02  0.20935809130E+03  0.17249669426E+03 0.  0.
         24    2    5    5    0    0 -0.55046097502E+02 -0.70668716820E+02 -0.12071707218E+02  0.12058856976E+03  0.79823158628E+02 0.  0.
          5    1    5    5  501    0 -0.33708783954E+02  0.51029842960E+02 -0.64168613570E+02  0.88769521547E+02  0.47000000000E+01 0. -1.
        -11    1    6    6    0    0 -0.52654045115E+02 -0.36838100563E+02 -0.40818798512E+02  0.76129287610E+02  0.00000000000E+00 0.  1.
         12    1    6    6    0    0 -0.23920523866E+01 -0.33830616258E+02  0.28747091294E+02  0.44459282145E+02  0.00000000000E+00 0. -1.
         -5    1    3    3    0  503  0.42562958560E+02  0.36994847993E+02 -0.39994073219E+02  0.69295310895E+02  0.47000000000E+01 0.  1.
         11    1    4    4    0    0 -0.14062558723E+02 -0.28844379560E+02  0.26533116669E+02  0.41638444618E+02  0.00000000000E+00 0. -1.
        -12    1    4    4    0    0  0.60254481619E+02  0.11488405427E+02  0.54038332694E+02  0.81747950523E+02  0.00000000000E+00 0.  1.
</event>
<event>
12    1  0.1629553E-001  0.2351835E+03  0.7818608E-02  0.1123076E+00
         21   -1    0    0  501  502  0.00000000000E+00  0.00000000000E+00  0.21679167862E+03  0.21679167862E+03  0.00000000000E+00 0. -1.
         21   -1    0    0  502  503 -0.00000000000E+00 -0.00000000000E+00 -0.37311144727E+03  0.37311144727E+03  0.00000000000E+00 0. -1.
         -6    2    1    2    0  503 -0.13373042906E+03  0.86150641996E+02 -0.24413840548E+03  0.33885850489E+03  0.17296174299E+03 0.  0.
        -24    2    3    3    0    0 -0.15059417337E+03  0.11281973801E+03 -0.20467950302E+03  0.28811679091E+03  0.75569093642E+02 0.  0.
          6    2    1    2  501    0  0.13373042906E+03 -0.86150641996E+02  0.87818636833E+02  0.25104462099E+03  0.17322103793E+03 0.  0.
         24    2    5    5    0    0  0.10131706272E+03 -0.26539751071E+02 -0.99115131371E+01  0.13197591458E+03  0.79686249449E+02 0.  0.
          5    1    5    5  501    0  0.32413366341E+02 -0.59610890925E+02  0.97730149970E+02  0.11906870642E+03  0.47000000000E+01 0. -1.
        -13    1    6    6    0    0 -0.63311968097E+01 -0.19683889539E+02  0.88477268550E+01  0.22490483119E+02  0.00000000000E+00 0.  1.
         14    1    6    6    0    0  0.10764825953E+03 -0.68558615325E+01 -0.18759239992E+02  0.10948543146E+03  0.00000000000E+00 0. -1.
         -5    1    3    3    0  503  0.16863744307E+02 -0.26669096014E+02 -0.39458902464E+02  0.50741713983E+02  0.47000000000E+01 0.  1.
         11    1    4    4    0    0 -0.59485905204E+02  0.19223361566E+02 -0.11094735660E+03  0.12734765991E+03  0.00000000000E+00 0. -1.
        -12    1    4    4    0    0 -0.91108268162E+02  0.93596376445E+02 -0.93732146411E+02  0.16076913100E+03  0.00000000000E+00 0.  1.
</event>
<event>
12    1  0.1629553E-001  0.1901023E+03  0.7818608E-02  0.1158810E+00
         21   -1    0    0  501  502  0.00000000000E+00  0.00000000000E+00  0.34376747923E+03  0.34376747923E+03  0.00000000000E+00 0.  1.
         21   -1    0    0  502  503 -0.00000000000E+00 -0.00000000000E+00 -0.12774859875E+03  0.12774859875E+03  0.00000000000E+00 0.  1.
         -6    2    1    2    0  503 -0.33735484978E+02 -0.74249486045E+02  0.69254084277E+01  0.19022844157E+03  0.17172020724E+03 0.  0.
        -24    2    3    3    0    0 -0.43246870892E+02 -0.48627194985E+02  0.68400115048E+02  0.12278811375E+03  0.78507637889E+02 0.  0.
          6    2    1    2  501    0  0.33735484978E+02  0.74249486045E+02  0.20909347205E+03  0.28128763641E+03  0.16956292407E+03 0.  0.
         24    2    5    5    0    0 -0.33821133909E+01  0.89591704706E+02  0.76234377352E+02  0.14241096873E+03  0.80194086323E+02 0.  0.
          5    1    5    5  501    0  0.37117598369E+02 -0.15342218661E+02  0.13285909470E+03  0.13887666768E+03  0.47000000000E+01 0. -1.
        -11    1    6    6    0    0 -0.52723521916E+01  0.61988409579E+02  0.91625580533E+02  0.11075020374E+03  0.00000000000E+00 0.  1.
         12    1    6    6    0    0  0.18902388007E+01  0.27603295128E+02 -0.15391203181E+02  0.31660764994E+02  0.00000000000E+00 0. -1.
         -5    1    3    3    0  503  0.95113859142E+01 -0.25622291061E+02 -0.61474706621E+02  0.67440327811E+02  0.47000000000E+01 0.  1.
         11    1    4    4    0    0  0.17667231523E+02 -0.32739427507E+02  0.14550236014E+02  0.39946345905E+02  0.00000000000E+00 0. -1.
        -12    1    4    4    0    0 -0.60914102414E+02 -0.15887767478E+02  0.53849879034E+02  0.82841767849E+02  0.00000000000E+00 0.  1.
</event>
<event>
12    1  0.1629553E-001  0.1834232E+03  0.7818608E-02  0.1164600E+00
         21   -1    0    0  501  502  0.00000000000E+00  0.00000000000E+00  0.32806841949E+02  0.32806841949E+02  0.00000000000E+00 0. -1.
         21   -1    0    0  502  503 -0.00000000000E+00 -0.00000000000E+00 -0.11475970989E+04  0.11475970989E+04  0.00000000000E+00 0.  1.
         -6    2    1    2    0  503 -0.66050158810E+01  0.63086711918E+02 -0.36321829160E+03  0.40677322428E+03  0.17179455516E+03 0.  0.
        -24    2    3    3    0    0  0.24128676253E+02  0.10125441450E+03 -0.23478291572E+03  0.26922661716E+03  0.80779356258E+02 0.  0.
          6    2    1    2  501    0  0.66050158810E+01 -0.63086711918E+02 -0.75157196535E+03  0.77363071657E+03  0.17210609247E+03 0.  0.
         24    2    5    5    0    0  0.21428307566E+01  0.27027168974E+02 -0.47826923746E+03  0.48578198252E+03  0.80669767876E+02 0.  0.
          5    1    5    5  501    0  0.44621851244E+01 -0.90113880891E+02 -0.27330272788E+03  0.28784873405E+03  0.47000000000E+01 0. -1.
        -11    1    6    6    0    0 -0.36841864215E+02  0.75405225055E+01 -0.29574832503E+03  0.29812959295E+03  0.00000000000E+00 0.  1.
         12    1    6    6    0    0  0.38984694972E+02  0.19486646468E+02 -0.18252091244E+03  0.18765238957E+03  0.00000000000E+00 0. -1.
         -5    1    3    3    0  503 -0.30733692135E+02 -0.38167702586E+02 -0.12843537588E+03  0.13754660712E+03  0.47000000000E+01 0.  1.
         11    1    4    4    0    0 -0.19800609553E+02  0.77705337970E+02 -0.16520514860E+03  0.18363802659E+03  0.00000000000E+00 0. -1.
        -12    1    4    4    0    0  0.43929285806E+02  0.23549076534E+02 -0.69577767122E+02  0.85588590564E+02  0.00000000000E+00 0.  1.
</event>
<event>
12    1  0.1629553E-001  0.2134750E+03  0.7818608E-02  0.1138961E+00
         21   -1    0    0  503  502  0.00000000000E+00  0.00000000000E+00  0.59799805384E+02  0.59799805384E+02  0.00000000000E+00 0.  1.
         21   -1    0    0  501  503 -0.00000000000E+00 -0.00000000000E+00 -0.14123333324E+04  0.14123333324E+04  0.00000000000E+00 0.  1.
          6    2    1    2  501    0  0.36849676596E+02  0.11988332121E+03 -0.11760310426E+04  0.11951409056E+04  0.17199669103E+03 0.  0.
         24    2    3    3    0    0 -0.45355813384E+02  0.57211165278E+02 -0.55458074416E+03  0.56513447299E+03  0.80541315631E+02 0.  0.
         -6    2    1    2    0  502 -0.36849676596E+02 -0.11988332121E+03 -0.17650248444E+03  0.27699223220E+03  0.17274738874E+03 0.  0.
        -24    2    5    5    0    0 -0.32260821569E+02  0.15521893551E+01 -0.86193305896E+02  0.12551458188E+03  0.85331438425E+02 0.  0.
          5    1    3    3  501    0  0.82205489980E+02  0.62672155932E+02 -0.62145029842E+03  0.63000643260E+03  0.47000000000E+01 0. -1.
        -13    1    4    4    0    0  0.10354359685E+02 -0.13355364815E+02 -0.55338075084E+02  0.57860877006E+02  0.00000000000E+00 0.  1.
         14    1    4    4    0    0 -0.55710173069E+02  0.70566530093E+02 -0.49924266908E+03  0.50727359598E+03  0.00000000000E+00 0. -1.
         -5    1    5    5    0  502 -0.45888550276E+01 -0.12143551057E+03 -0.90309178543E+02  0.15147765032E+03  0.47000000000E+01 0.  1.
         13    1    6    6    0    0  0.15066105351E+02 -0.21255500515E+02 -0.18135365142E+01  0.26116522496E+02  0.00000000000E+00 0. -1.
        -14    1    6    6    0    0 -0.47326926920E+02  0.22807689870E+02 -0.84379769382E+02  0.99398059386E+02  0.00000000000E+00 0.  1.
</event>
<event>
12    1  0.1629553E-001  0.2137709E+03  0.7818608E-02  0.1138655E+00
         21   -1    0    0  503  502  0.00000000000E+00  0.00000000000E+00  0.10270588947E+04  0.10270588947E+04  0.00000000000E+00 0.  1.
         21   -1    0    0  501  503 -0.00000000000E+00 -0.00000000000E+00 -0.68803203043E+02  0.68803203043E+02  0.00000000000E+00 0. -1.
          6    2    1    2  501    0  0.12499602847E+03  0.18579925222E+02  0.15298867254E+03  0.26270366277E+03  0.17215824045E+03 0.  0.
         24    2    3    3    0    0 -0.47461319108E+00  0.49832462577E+02  0.52730713997E+02  0.99016915417E+02  0.67381909708E+02 0.  0.
         -6    2    1    2    0  502 -0.12499602847E+03 -0.18579925222E+02  0.80526701908E+03  0.83315843493E+03  0.17242037271E+03 0.  0.
        -24    2    5    5    0    0 -0.85725970838E+02 -0.72177393617E+02  0.40725303791E+03  0.42960912537E+03  0.78424775957E+02 0.  0.
          5    1    3    3  501    0  0.12547064166E+03 -0.31252537355E+02  0.10025795854E+03  0.16368674736E+03  0.47000000000E+01 0. -1.
        -13    1    4    4    0    0 -0.63488946241E+01 -0.53501778385E+01 -0.11467759654E+02  0.14157767385E+02  0.00000000000E+00 0.  1.
         14    1    4    4    0    0  0.58742814330E+01  0.55182640416E+02  0.64198473650E+02  0.84859148031E+02  0.00000000000E+00 0. -1.
         -5    1    5    5    0  502 -0.39270057629E+02  0.53597468395E+02  0.39801398117E+03  0.40354930957E+03  0.47000000000E+01 0.  1.
         13    1    6    6    0    0 -0.26308204243E+02 -0.12117053437E+02  0.25407839592E+02  0.38529247426E+02  0.00000000000E+00 0. -1.
        -14    1    6    6    0    0 -0.59417766595E+02 -0.60060340180E+02  0.38184519832E+03  0.39107987794E+03  0.00000000000E+00 0.  1.
</event>
<event>
12    1  0.1629553E-001  0.2543902E+03  0.7818608E-02  0.1110723E+00
         21   -1    0    0  501  502  0.00000000000E+00  0.00000000000E+00  0.70165710885E+02  0.70165710885E+02  0.00000000000E+00 0.  1.
         21   -1    0    0  502  503 -0.00000000000E+00 -0.00000000000E+00 -0.12663651029E+04  0.12663651029E+04  0.00000000000E+00 0. -1.
         -6    2    1    2    0  503  0.17827480134E+03 -0.56802500093E+02 -0.94923010691E+03  0.98272690738E+03  0.17235414072E+03 0.  0.
        -24    2    3    3    0    0  0.66221876443E+02 -0.18150093151E+02 -0.68391285312E+03  0.69209793137E+03  0.80919670933E+02 0.  0.
          6    2    1    2  501    0 -0.17827480134E+03  0.56802500093E+02 -0.24696928514E+03  0.35380390644E+03  0.17080675513E+03 0.  0.
         24    2    5    5    0    0 -0.15111742568E+03  0.97503512316E+02 -0.15721232480E+03  0.25146868582E+03  0.78596269774E+02 0.  0.
          5    1    5    5  501    0 -0.27157375655E+02 -0.40701012223E+02 -0.89756960339E+02  0.10233522061E+03  0.47000000000E+01 0. -1.
        -13    1    6    6    0    0 -0.91736190530E+02  0.15915785952E+02 -0.56542903339E+02  0.10893089926E+03  0.00000000000E+00 0.  1.
         14    1    6    6    0    0 -0.59381235151E+02  0.81587726364E+02 -0.10066942146E+03  0.14253778657E+03  0.00000000000E+00 0. -1.
         -5    1    3    3    0  503  0.11205292489E+03 -0.38652406941E+02 -0.26531725379E+03  0.29062897601E+03  0.47000000000E+01 0.  1.
         13    1    4    4    0    0  0.19423958477E+02  0.31557550122E+02 -0.20162460958E+03  0.20500159103E+03  0.00000000000E+00 0. -1.
        -14    1    4    4    0    0  0.46797917966E+02 -0.49707643274E+02 -0.48228824353E+03  0.48709634034E+03  0.00000000000E+00 0.  1.
</event>
<event>
12    1  0.1629553E-001  0.2050602E+03  0.7818608E-02  0.1145901E+00
         21   -1    0    0  503  502  0.00000000000E+00  0.00000000000E+00  0.66362661000E+02  0.66362661000E+02  0.00000000000E+00 0. -1.
         21   -1    0    0  501  503 -0.00000000000E+00 -0.00000000000E+00 -0.67094889967E+03  0.67094889967E+03  0.00000000000E+00 0.  1.
          6    2    1    2  501    0  0.10481547757E+03 -0.36171586027E+02 -0.39413498055E+03  0.44347585981E+03  0.17039303790E+03 0.  0.
         24    2    3    3    0    0  0.55255024361E+02  0.38586507913E+02 -0.27725219432E+03  0.29606932383E+03  0.79033087675E+02 0.  0.
         -6    2    1    2    0  502 -0.10481547757E+03  0.36171586027E+02 -0.21045125812E+03  0.29383570086E+03  0.17249643209E+03 0.  0.
        -24    2    5    5    0    0 -0.14251991032E+03  0.36420165421E+02 -0.16900652861E+03  0.23760900218E+03  0.79097900846E+02 0.  0.
          5    1    3    3  501    0  0.49560453212E+02 -0.74758093940E+02 -0.11688278623E+03  0.14740653598E+03  0.47000000000E+01 0. -1.
        -11    1    4    4    0    0  0.72833673353E+02  0.41105779247E+02 -0.24928978340E+03  0.26294452869E+03  0.00000000000E+00 0.  1.
         12    1    4    4    0    0 -0.17578648992E+02 -0.25192713336E+01 -0.27962410922E+02  0.33124795139E+02  0.00000000000E+00 0. -1.
         -5    1    5    5    0  502  0.37704432746E+02 -0.24857939436E+00 -0.41444729510E+02  0.56226698681E+02  0.47000000000E+01 0.  1.
         11    1    6    6    0    0 -0.13454347203E+02 -0.21095817432E+02 -0.33689269492E+02  0.41964507035E+02  0.00000000000E+00 0. -1.
        -12    1    6    6    0    0 -0.12906556312E+03  0.57515982853E+02 -0.13531725912E+03  0.19564449515E+03  0.00000000000E+00 0.  1.
</event>
<event>
12    1  0.1629553E-001  0.3009792E+03  0.7818608E-02  0.1084799E+00
         21   -1    0    0  503  502  0.00000000000E+00  0.00000000000E+00  0.67500631739E+03  0.67500631739E+03  0.00000000000E+00 0.  1.
         21   -1    0    0  501  503 -0.00000000000E+00 -0.00000000000E+00 -0.19289473169E+03  0.19289473169E+03  0.00000000000E+00 0.  1.
          6    2    1    2  501    0  0.24041464085E+03 -0.56106866266E+02  0.14514891042E+01  0.30098270092E+03  0.17216648760E+03 0.  0.
         24    2    3    3    0    0  0.95938394158E+02 -0.55971433945E+02 -0.57408113441E+02  0.14490596655E+03  0.73246643338E+02 0.  0.
         -6    2    1    2    0  502 -0.24041464085E+03  0.56106866266E+02  0.48066009660E+03  0.56691834816E+03  0.17150832353E+03 0.  0.
        -24    2    5    5    0    0 -0.17077758024E+03  0.10222033493E+03  0.37246960713E+03  0.43015927456E+03  0.81788840695E+02 0.  0.
          5    1    3    3  501    0  0.14447624670E+03 -0.13543232123E+00  0.58859602545E+02  0.15607673437E+03  0.47000000000E+01 0. -1.
        -13    1    4    4    0    0  0.28442801977E+02 -0.48284781796E+02 -0.11493721479E+00  0.56039507029E+02  0.00000000000E+00 0.  1.
         14    1    4    4    0    0  0.67495592181E+02 -0.76866521484E+01 -0.57293176226E+02  0.88866459517E+02  0.00000000000E+00 0. -1.
         -5    1    5    5    0  502 -0.69637060610E+02 -0.46113468660E+02  0.10819048946E+03  0.13675907360E+03  0.47000000000E+01 0.  1.
         11    1    6    6    0    0 -0.23280883355E+02  0.55824274390E+02  0.99642007235E+02  0.11656276741E+03  0.00000000000E+00 0. -1.
        -12    1    6    6    0    0 -0.14749669689E+03  0.46396060535E+02  0.27282759990E+03  0.31359650715E+03  0.00000000000E+00 0.  1.
</event>
<event>
12    1  0.1629553E-001  0.1762619E+03  0.7818608E-02  0.1171882E+00
         21   -1    0    0  503  502  0.00000000000E+00  0.00000000000E+00  0.51007602749E+03  0.51007602749E+03  0.00000000000E+00 0.  1.
         21   -1    0    0  501  503 -0.00000000000E+00 -0.00000000000E+00 -0.75700899908E+02  0.75700899908E+02  0.00000000000E+00 0.  1.
          6    2    1    2  501    0 -0.26814495950E+02 -0.35368301353E+02  0.84445810463E+02  0.19396221191E+03  0.16887957487E+03 0.  0.
         24    2    3    3    0    0  0.21381802767E+02 -0.16425888509E+01 -0.10217553202E+02  0.82411553844E+02  0.78913789833E+02 0.  0.
         -6    2    1    2    0  502  0.26814495950E+02  0.35368301353E+02  0.34992931712E+03  0.39181471550E+03  0.17058226861E+03 0.  0.
        -24    2    5    5    0    0  0.36710818881E+02 -0.33501860438E+02  0.27061068977E+03  0.28619951281E+03  0.78803279375E+02 0.  0.
          5    1    3    3  501    0 -0.48196298717E+02 -0.33725712502E+02  0.94663363665E+02  0.11155065806E+03  0.47000000000E+01 0. -1.
        -11    1    4    4    0    0 -0.21720059148E+02  0.14863020928E+02 -0.22528250516E+02  0.34643793554E+02  0.00000000000E+00 0.  1.
         12    1    4    4    0    0  0.43101861915E+02 -0.16505609779E+02  0.12310697314E+02  0.47767760290E+02  0.00000000000E+00 0. -1.
         -5    1    5    5    0  502 -0.98963229318E+01  0.68870161791E+02  0.79318627352E+02  0.10561520268E+03  0.47000000000E+01 0.  1.
         13    1    6    6    0    0 -0.16268532521E+02 -0.32805081757E+02  0.15104394110E+03  0.15541914516E+03  0.00000000000E+00 0. -1.
        -14    1    6    6    0    0  0.52979351402E+02 -0.69677868077E+00  0.11956674867E+03  0.13078036766E+03  0.00000000000E+00 0.  1.
</event>
<event>
12    1  0.1629553E-001  0.2003872E+03  0.7818608E-02  0.1149768E+00
         21   -1    0    0  503  502  0.00000000000E+00  0.00000000000E+00  0.63063624694E+03  0.63063624694E+03  0.00000000000E+00 0.  1.
         21   -1    0    0  501  503 -0.00000000000E+00 -0.00000000000E+00 -0.93579414956E+02  0.93579414956E+02  0.00000000000E+00 0.  1.
          6    2    1    2  501    0  0.30892139670E+02  0.93418741382E+02  0.61251046402E+02  0.20793455472E+03  0.17263748963E+03 0.  0.
         24    2    3    3    0    0  0.83307761336E+02  0.54029768562E+02  0.16934141463E+02  0.12865677323E+03  0.80039997256E+02 0.  0.
         -6    2    1    2    0  502 -0.30892139670E+02 -0.93418741382E+02  0.47580578558E+03  0.51628110718E+03  0.17456703727E+03 0.  0.
        -24    2    5    5    0    0  0.24731840600E+02 -0.69597545183E+02  0.15795419034E+03  0.19268691198E+03  0.81995350889E+02 0.  0.
          5    1    3    3  501    0 -0.52415621666E+02  0.39388972819E+02  0.44316904939E+02  0.79277781489E+02  0.47000000000E+01 0. -1.
        -11    1    4    4    0    0  0.47385438531E+02  0.29918968144E+02 -0.31034674762E+02  0.64059936599E+02  0.00000000000E+00 0.  1.
         12    1    4    4    0    0  0.35922322805E+02  0.24110800419E+02  0.47968816225E+02  0.64596836629E+02  0.00000000000E+00 0. -1.
         -5    1    5    5    0  502 -0.55623980269E+02 -0.23821196198E+02  0.31785159524E+03  0.32359419519E+03  0.47000000000E+01 0.  1.
         11    1    6    6    0    0 -0.28543710034E+02 -0.31187115338E+02  0.43059795265E+02  0.60345053765E+02  0.00000000000E+00 0. -1.
        -12    1    6    6    0    0  0.53275550633E+02 -0.38410429846E+02  0.11489439508E+03  0.13234185822E+03  0.00000000000E+00 0.  1.
</event>
<event>
12    1  0.1629553E-001  0.2645858E+03  0.7818608E-02  0.1104493E+00
         21   -1    0    0  503  502  0.00000000000E+00  0.00000000000E+00  0.39453465352E+03  0.39453465352E+03  0.00000000000E+00 0.  1.
         21   -1    0    0  501  503 -0.00000000000E+00 -0.00000000000E+00 -0.20511201185E+03  0.20511201185E+03  0.00000000000E+00 0. -1.
          6    2    1    2  501    0 -0.19403151565E+03 -0.47358992887E+02  0.20559256404E+03  0.33507302781E+03  0.17353538056E+03 0.  0.
         24    2    3    3    0    0 -0.18655639529E+02 -0.10905135650E+02  0.44181882015E+02  0.93906944162E+02  0.79997003654E+02 0.  0.
         -6    2    1    2    0  502  0.19403151565E+03  0.47358992887E+02 -0.16169922360E+02  0.26457363756E+03  0.17276180142E+03 0.  0.
        -24    2    5    5    0    0  0.34092131626E+02  0.54123018163E+02  0.63784469717E+01  0.10284275752E+03  0.80276856278E+02 0.  0.
          5    1    3    3  501    0 -0.17537587612E+03 -0.36453857238E+02  0.16141068202E+03  0.24116608365E+03  0.47000000000E+01 0. -1.
        -11    1    4    4    0    0  0.18422153025E+02  0.12379517391E+02  0.44934927791E+02  0.50117620738E+02  0.00000000000E+00 0.  1.
         12    1    4    4    0    0 -0.37077792554E+02 -0.23284653041E+02 -0.75304577576E+00  0.43789323423E+02  0.00000000000E+00 0. -1.
         -5    1    5    5    0  502  0.15993938403E+03 -0.67640252754E+01 -0.22548369332E+02  0.16173088005E+03  0.47000000000E+01 0.  1.
         11    1    6    6    0    0  0.46648863010E+02  0.29282763225E+02 -0.25353625553E+02  0.60633348669E+02  0.00000000000E+00 0. -1.
        -12    1    6    6    0    0 -0.12556731384E+02  0.24840254938E+02  0.31732072525E+02  0.42209408846E+02  0.00000000000E+00 0.  1.
</event>
<event>
12    1  0.1629553E-001  0.1827321E+03  0.7818608E-02  0.1165777E+00
         21   -1    0    0  501  502  0.00000000000E+00  0.00000000000E+00  0.10375673352E+04  0.10375673352E+04  0.00000000000E+00 0. -1.
         21   -1    0    0  502  503 -0.00000000000E+00 -0.00000000000E+00 -0.32044295766E+02  0.32044295766E+02  0.00000000000E+00 0. -1.
         -6    2    1    2    0  503 -0.21847799102E+02 -0.54448887729E+02  0.44785685133E+03  0.48277042862E+03  0.17043919667E+03 0.  0.
        -24    2    3    3    0    0 -0.27256778046E+02  0.24944439261E+02  0.32044098062E+03  0.33247255261E+03  0.80563137836E+02 0.  0.
          6    2    1    2  501    0  0.21847799102E+02  0.54448887729E+02  0.55766618813E+03  0.58684120238E+03  0.17305782768E+03 0.  0.
         24    2    5    5    0    0 -0.14391098476E+02  0.44192666516E+02  0.14321929216E+03  0.17066003107E+03  0.80330474097E+02 0.  0.
          5    1    5    5  501    0  0.36238897578E+02  0.10256221213E+02  0.41444689597E+03  0.41618117131E+03  0.47000000000E+01 0. -1.
        -13    1    6    6    0    0 -0.27892559739E+02  0.59113640839E+02  0.13276658970E+03  0.14798440716E+03  0.00000000000E+00 0.  1.
         14    1    6    6    0    0  0.13501461263E+02 -0.14920974323E+02  0.10452702462E+02  0.22675623911E+02  0.00000000000E+00 0. -1.
         -5    1    3    3    0  503  0.54089789442E+01 -0.79393326990E+02  0.12741587072E+03  0.15029787601E+03  0.47000000000E+01 0.  1.
         11    1    4    4    0    0 -0.23138481259E+02 -0.26662742011E+02  0.16146150645E+03  0.16527585786E+03  0.00000000000E+00 0. -1.
        -12    1    4    4    0    0 -0.41182967870E+01  0.51607181272E+02  0.15897947417E+03  0.16719669475E+03  0.00000000000E+00 0.  1.
</event>
<event>
12    1  0.1629553E-001  0.1944864E+03  0.7818608E-02  0.1154602E+00
         21   -1    0    0  501  502  0.00000000000E+00  0.00000000000E+00  0.33498957402E+03  0.33498957402E+03  0.00000000000E+00 0. -1.
         21   -1    0    0  502  503 -0.00000000000E+00 -0.00000000000E+00 -0.20167951404E+03  0.20167951404E+03  0.00000000000E+00 0.  1.
         -6    2    1    2    0  503 -0.87245884454E+02 -0.19745593335E+02 -0.11164419939E+03  0.22425291800E+03  0.17269398127E+03 0.  0.
        -24    2    3    3    0    0 -0.65652719011E+01 -0.23035167576E+02  0.47153690443E+01  0.82542573617E+02  0.78849984233E+02 0.  0.
          6    2    1    2  501    0  0.87245884454E+02  0.19745593335E+02  0.24495425937E+03  0.31241617006E+03  0.17204517233E+03 0.  0.
         24    2    5    5    0    0  0.83513808023E+02  0.46199897222E+02  0.86369591238E+02  0.15152817935E+03  0.79950586068E+02 0.  0.
          5    1    5    5  501    0  0.37320764308E+01 -0.26454303887E+02  0.15858466813E+03  0.16088799071E+03  0.47000000000E+01 0. -1.
        -13    1    6    6    0    0  0.95461331668E+01  0.49231978358E+02  0.29557231463E+02  0.58211221283E+02  0.00000000000E+00 0.  1.
         14    1    6    6    0    0  0.73967674856E+02 -0.30320811362E+01  0.56812359775E+02  0.93316958067E+02  0.00000000000E+00 0. -1.
         -5    1    3    3    0  503 -0.80680612553E+02  0.32895742409E+01 -0.11635956843E+03  0.14171034439E+03  0.47000000000E+01 0.  1.
         11    1    4    4    0    0 -0.38387764264E+02  0.25389132528E+01 -0.89351400395E+01  0.39495610556E+02  0.00000000000E+00 0. -1.
        -12    1    4    4    0    0  0.31822492363E+02 -0.25574080829E+02  0.13650509084E+02  0.43046963060E+02  0.00000000000E+00 0.  1.
</event>
<event>
12    1  0.1629553E-001  0.2106171E+03  0.7818608E-02  0.1141321E+00
         21   -1    0    0  503  502  0.00000000000E+00  0.00000000000E+00  0.13749051177E+03  0.13749051177E+03  0.00000000000E+00 0.  1.
         21   -1    0    0  501  503 -0.00000000000E+00 -0.00000000000E+00 -0.98215046041E+03  0.98215046041E+03  0.00000000000E+00 0.  1.
          6    2    1    2  501    0  0.62213917694E+02  0.10235538095E+03 -0.88132395729E+03  0.90585649624E+03  0.17174655316E+03 0.  0.
         24    2    3    3    0    0  0.57553958254E+02  0.81211412381E+02 -0.87285791539E+03  0.88213843362E+03  0.79871922550E+02 0.  0.
         -6    2    1    2    0  502 -0.62213917694E+02 -0.10235538095E+03  0.36664008642E+02  0.21378447594E+03  0.17324074885E+03 0.  0.
        -24    2    5    5    0    0  0.29750147810E+02 -0.66269144026E+02  0.39532564989E+02  0.11484042885E+03  0.79679543545E+02 0.  0.
          5    1    3    3  501    0  0.46599594393E+01  0.21143968564E+02 -0.84660418992E+01  0.23718062612E+02  0.47000000000E+01 0. -1.
        -13    1    4    4    0    0  0.35703443714E+02  0.91033529656E+02 -0.78521693677E+03  0.79128217293E+03  0.00000000000E+00 0.  1.
         14    1    4    4    0    0  0.21850514540E+02 -0.98221172754E+01 -0.87640978617E+02  0.90856260689E+02  0.00000000000E+00 0. -1.
         -5    1    5    5    0  502 -0.91964065504E+02 -0.36086236919E+02 -0.28685563472E+01  0.98944047089E+02  0.47000000000E+01 0.  1.
         11    1    6    6    0    0  0.38825262995E+02 -0.70750671994E+02  0.72732664576E+01  0.81030605571E+02  0.00000000000E+00 0. -1.
        -12    1    6    6    0    0 -0.90751151852E+01  0.44815279674E+01  0.32259298531E+02  0.33809823281E+02  0.00000000000E+00 0.  1.
</event>
<event>
12    1  0.1629553E-001  0.1927125E+03  0.7818608E-02  0.1160384E+00
         21   -1    0    0  503  502  0.00000000000E+00  0.00000000000E+00  0.31123452258E+03  0.31123452258E+03  0.00000000000E+00 0. -1.
         21   -1    0    0  501  503 -0.00000000000E+00 -0.00000000000E+00 -0.30013012836E+03  0.30013012836E+03  0.00000000000E+00 0. -1.
          6    2    1    2  501    0 -0.86899648414E+02 -0.50230306845E+01 -0.23895723346E+03  0.29566081948E+03  0.15079118351E+03 0.  0.
         24    2    3    3    0    0 -0.31499473485E+02 -0.29659084232E+02 -0.67776473537E+02  0.11399888873E+03  0.80809765250E+02 0.  0.
         -6    2    1    2    0  502  0.86899648414E+02  0.50230306845E+01  0.25006162768E+03  0.31570383146E+03  0.17193403338E+03 0.  0.
        -24    2    5    5    0    0  0.46478439756E+02 -0.36118582112E+02  0.23958965832E+03  0.25689687137E+03  0.71610060836E+02 0.  0.
          5    1    3    3  501    0 -0.55400174930E+02  0.24636053548E+02 -0.17118075992E+03  0.18166193075E+03  0.47000000000E+01 0. -1.
        -13    1    4    4    0    0 -0.94789736033E+01 -0.47690814517E+02 -0.70243621211E+02  0.85430855379E+02  0.00000000000E+00 0.  1.
         14    1    4    4    0    0 -0.22020499881E+02  0.18031730284E+02  0.24671476743E+01  0.28568033354E+02  0.00000000000E+00 0. -1.
         -5    1    5    5    0  502  0.40421208659E+02  0.41141612797E+02  0.10471969358E+02  0.58806960091E+02  0.47000000000E+01 0.  1.
         13    1    6    6    0    0 -0.18694523233E+02 -0.13551305462E+02  0.47835351007E+02  0.53116324088E+02  0.00000000000E+00 0. -1.
        -14    1    6    6    0    0  0.65172962988E+02 -0.22567276650E+02  0.19175430731E+03  0.20378054729E+03  0.00000000000E+00 0.  1.
</event>
<event>
12    1  0.1629553E-001  0.1780747E+03  0.7818608E-02  0.1169697E+00
         21   -1    0    0  501  502  0.00000000000E+00  0.00000000000E+00  0.18635124052E+03  0.18635124052E+03  0.00000000000E+00 0. -1.
         21   -1    0    0  502  503 -0.00000000000E+00 -0.00000000000E+00 -0.33625916670E+03  0.33625916670E+03  0.00000000000E+00 0. -1.
         -6    2    1    2    0  503  0.47212026032E+02  0.81213482982E+01 -0.25863246395E+03  0.31396804574E+03  0.17143584993E+03 0.  0.
        -24    2    3    3    0    0  0.40908490735E+02 -0.61871073242E+02 -0.14480004388E+03  0.18010773240E+03  0.77267122659E+02 0.  0.
          6    2    1    2  501    0 -0.47212026032E+02 -0.81213482982E+01  0.10872453777E+03  0.20864236148E+03  0.17150999443E+03 0.  0.
         24    2    5    5    0    0  0.34064526309E+02  0.21684233530E+02  0.39169942045E+02  0.97492991464E+02  0.79624123784E+02 0.  0.
          5    1    5    5  501    0 -0.81276552341E+02 -0.29805581828E+02  0.69554595722E+02  0.11114937001E+03  0.47000000000E+01 0. -1.
        -13    1    6    6    0    0 -0.12167994411E+02  0.35899766122E+02  0.49153067665E+01  0.38223206776E+02  0.00000000000E+00 0.  1.
         14    1    6    6    0    0  0.46232520720E+02 -0.14215532592E+02  0.34254635278E+02  0.59269784689E+02  0.00000000000E+00 0. -1.
         -5    1    3    3    0  503  0.63035352973E+01  0.69992421540E+02 -0.11383242007E+03  0.13386031334E+03  0.47000000000E+01 0.  1.
         13    1    4    4    0    0  0.47126394024E+02 -0.61282659251E+02 -0.67716343703E+02  0.10277141890E+03  0.00000000000E+00 0. -1.
        -14    1    4    4    0    0 -0.62179032891E+01 -0.58841399069E+00 -0.77083700179E+02  0.77336313499E+02  0.00000000000E+00 0.  1.
</event>
<event>
12    1  0.1629553E-001  0.1778384E+03  0.7818608E-02  0.1170346E+00
         21   -1    0    0  503  502  0.00000000000E+00  0.00000000000E+00  0.34513103404E+02  0.34513103404E+02  0.00000000000E+00 0. -1.
         21   -1    0    0  501  503 -0.00000000000E+00 -0.00000000000E+00 -0.90744799220E+03  0.90744799220E+03  0.00000000000E+00 0. -1.
          6    2    1    2  501    0 -0.21359981176E+02 -0.30722694099E+02 -0.42882069592E+03  0.46356385335E+03  0.17205849049E+03 0.  0.
         24    2    3    3    0    0 -0.55725513522E+02 -0.44670846421E+02 -0.40536407733E+03  0.41942947081E+03  0.80623994019E+02 0.  0.
         -6    2    1    2    0  502  0.21359981176E+02  0.30722694099E+02 -0.44411419287E+03  0.47839724226E+03  0.17385733335E+03 0.  0.
        -24    2    5    5    0    0 -0.31300529249E+02 -0.24697488700E+02 -0.14356055422E+03  0.16823743550E+03  0.78131382277E+02 0.  0.
          5    1    3    3  501    0  0.34365532347E+02  0.13948152322E+02 -0.23456618591E+02  0.44134382542E+02  0.47000000000E+01 0. -1.
        -11    1    4    4    0    0 -0.51498004167E+02  0.94064961439E+01 -0.22926133929E+03  0.23516225951E+03  0.00000000000E+00 0.  1.
         12    1    4    4    0    0 -0.42275093554E+01 -0.54077342565E+02 -0.17610273804E+03  0.18426721130E+03  0.00000000000E+00 0. -1.
         -5    1    5    5    0  502  0.52660510425E+02  0.55420182799E+02 -0.30055363865E+03  0.31015980675E+03  0.47000000000E+01 0.  1.
         13    1    6    6    0    0 -0.35089159002E+02 -0.27154713275E+02 -0.15217488237E+03  0.15851126887E+03  0.00000000000E+00 0. -1.
        -14    1    6    6    0    0  0.37886297530E+01  0.24572245757E+01  0.86143281482E+01  0.97261666377E+01  0.00000000000E+00 0.  1.
</event>
<event>
12    1  0.1629553E-001  0.2134924E+03  0.7818608E-02  0.1139493E+00
         21   -1    0    0  501  502  0.00000000000E+00  0.00000000000E+00  0.13039344558E+03  0.13039344558E+03  0.00000000000E+00 0.  1.
         21   -1    0    0  502  503 -0.00000000000E+00 -0.00000000000E+00 -0.36485055368E+03  0.36485055368E+03  0.00000000000E+00 0.  1.
         -6    2    1    2    0  503 -0.10526498144E+03 -0.58834684269E+02 -0.17728159029E+03  0.27750274063E+03  0.17617256429E+03 0.  0.
        -24    2    3    3    0    0  0.11972079233E+02 -0.26185563055E+02 -0.42403474536E+02  0.95775776141E+02  0.80906923369E+02 0.  0.
          6    2    1    2  501    0  0.10526498144E+03  0.58834684269E+02 -0.57175517805E+02  0.21774125863E+03  0.17204644572E+03 0.  0.
         24    2    5    5    0    0  0.95600405557E+02  0.79961992694E+02  0.83590477051E+01  0.14805168649E+03  0.79473708717E+02 0.  0.
          5    1    5    5  501    0  0.96645758841E+01 -0.21127308425E+02 -0.65534565510E+02  0.69689572138E+02  0.47000000000E+01 0. -1.
        -13    1    6    6    0    0  0.58936817347E+02  0.68458160102E+02 -0.28583782354E+02  0.94747563226E+02  0.00000000000E+00 0.  1.
         14    1    6    6    0    0  0.36663588210E+02  0.11503832592E+02  0.36942830059E+02  0.53304123269E+02  0.00000000000E+00 0. -1.
         -5    1    3    3    0  503 -0.11723706067E+03 -0.32649121214E+02 -0.13487811575E+03  0.18172696448E+03  0.47000000000E+01 0.  1.
         11    1    4    4    0    0 -0.16584568884E+01 -0.36448004070E+02  0.12276477988E+02  0.38495706146E+02  0.00000000000E+00 0. -1.
        -12    1    4    4    0    0  0.13630536122E+02  0.10262441015E+02 -0.54679952524E+02  0.57280069994E+02  0.00000000000E+00 0.  1.
</event>
<event>
12    1  0.1629553E-001  0.2081237E+03  0.7818608E-02  0.1145049E+00
         21   -1    0    0  503  502  0.00000000000E+00  0.00000000000E+00  0.86161938373E+02  0.86161938373E+02  0.00000000000E+00 0. -1.
         21   -1    0    0  501  503 -0.00000000000E+00 -0.00000000000E+00 -0.66089863666E+03  0.66089863666E+03  0.00000000000E+00 0. -1.
          6    2    1    2  501    0  0.97235237851E+02 -0.44571854531E+02 -0.48791936132E+03  0.53045338205E+03  0.17853331811E+03 0.  0.
         24    2    3    3    0    0 -0.18411535436E+02 -0.16421843322E+02 -0.26248123521E+03  0.27548075997E+03  0.79903621337E+02 0.  0.
         -6    2    1    2    0  502 -0.97235237851E+02  0.44571854531E+02 -0.86817336970E+02  0.21660719299E+03  0.16715287721E+03 0.  0.
        -24    2    5    5    0    0 -0.30331707423E+02 -0.33428263155E+02 -0.21346975982E+02  0.94670492566E+02  0.80432254266E+02 0.  0.
          5    1    3    3  501    0  0.11564677329E+03 -0.28150011209E+02 -0.22543812611E+03  0.25497262207E+03  0.47000000000E+01 0. -1.
        -11    1    4    4    0    0 -0.33494316014E+01  0.86077794358E+01  0.19506539090E+01  0.94402123674E+01  0.00000000000E+00 0.  1.
         12    1    4    4    0    0 -0.15062103835E+02 -0.25029622757E+02 -0.26443188912E+03  0.26604054760E+03  0.00000000000E+00 0. -1.
         -5    1    5    5    0  502 -0.66903530427E+02  0.78000117686E+02 -0.65470360988E+02  0.12193670042E+03  0.47000000000E+01 0.  1.
         13    1    6    6    0    0 -0.14615716424E+02  0.82895497221E+01  0.25155484778E+02  0.30251185358E+02  0.00000000000E+00 0. -1.
        -14    1    6    6    0    0 -0.15715991000E+02 -0.41717812877E+02 -0.46502460760E+02  0.64419307208E+02  0.00000000000E+00 0.  1.
</event>
<event>
12    1  0.1629553E-001  0.1925471E+03  0.7818608E-02  0.1156346E+00
         21   -1    0    0  501  502  0.00000000000E+00  0.00000000000E+00  0.11112595037E+03  0.11112595037E+03  0.00000000000E+00 0. -1.
         21   -1    0    0  502  503 -0.00000000000E+00 -0.00000000000E+00 -0.35920055482E+03  0.35920055482E+03  0.00000000000E+00 0. -1.
         -6    2    1    2    0  503 -0.64563728091E+02  0.58941314661E+02 -0.18810141921E+03  0.26865561111E+03  0.17073704903E+03 0.  0.
        -24    2    3    3    0    0  0.25766056351E+02  0.49025364567E+02 -0.64244717988E+02  0.11496641675E+03  0.77604878462E+02 0.  0.
          6    2    1    2  501    0  0.64563728091E+02 -0.58941314661E+02 -0.59973185237E+02  0.20167089409E+03  0.17155702555E+03 0.  0.
         24    2    5    5    0    0 -0.29557762953E+02 -0.19347329391E+02 -0.41913910663E+02  0.97869323079E+02  0.81078036407E+02 0.  0.
          5    1    5    5  501    0  0.94121491044E+02 -0.39593985270E+02 -0.18059274573E+02  0.10380157101E+03  0.47000000000E+01 0. -1.
        -13    1    6    6    0    0  0.37414364222E+01 -0.36549635405E+02 -0.47419157530E+02  0.59987087741E+02  0.00000000000E+00 0.  1.
         14    1    6    6    0    0 -0.33299199375E+02  0.17202306014E+02  0.55052468669E+01  0.37882235339E+02  0.00000000000E+00 0. -1.
         -5    1    3    3    0  503 -0.90329784442E+02  0.99159500946E+01 -0.12385670122E+03  0.15368919435E+03  0.47000000000E+01 0.  1.
         13    1    4    4    0    0 -0.25631664435E+02  0.32393836334E+02 -0.28721361278E+02  0.50311623387E+02  0.00000000000E+00 0. -1.
        -14    1    4    4    0    0  0.51397720786E+02  0.16631528232E+02 -0.35523356711E+02  0.64654793367E+02  0.00000000000E+00 0.  1.
</event>
<event>
12    1  0.1629553E-001  0.1886844E+03  0.7818608E-02  0.1162734E+00
         21   -1    0    0  501  502  0.00000000000E+00  0.00000000000E+00  0.23826483580E+03  0.23826483580E+03  0.00000000000E+00 0.  1.
         21   -1    0    0  502  503 -0.00000000000E+00 -0.00000000000E+00 -0.28464555571E+03  0.28464555571E+03  0.00000000000E+00 0.  1.
         -6    2    1    2    0  503  0.12811004098E+02 -0.35251684109E+02 -0.21038012979E+03  0.28259794528E+03  0.18491889197E+03 0.  0.
        -24    2    3    3    0    0 -0.45366676390E+02  0.29604091568E+02 -0.74737182206E+02  0.12131554272E+03  0.78722785376E+02 0.  0.
          6    2    1    2  501    0 -0.12811004098E+02  0.35251684109E+02  0.16399940988E+03  0.24031244624E+03  0.17160262911E+03 0.  0.
         24    2    5    5    0    0 -0.20520868453E+02  0.11368915470E+02  0.18536994548E+03  0.20701652399E+03  0.89126125444E+02 0.  0.
          5    1    5    5  501    0  0.77098643558E+01  0.23882768639E+02 -0.21370535601E+02  0.33295922245E+02  0.47000000000E+01 0. -1.
        -13    1    6    6    0    0 -0.50897170116E+02 -0.44468039740E+01  0.69941167086E+02  0.86614449399E+02  0.00000000000E+00 0.  1.
         14    1    6    6    0    0  0.30376301662E+02  0.15815719444E+02  0.11542877840E+03  0.12040207459E+03  0.00000000000E+00 0. -1.
         -5    1    3    3    0  503  0.58177680488E+02 -0.64855775677E+02 -0.13564294758E+03  0.16128240256E+03  0.47000000000E+01 0.  1.
         11    1    4    4    0    0 -0.29887533715E+02  0.54403343407E+00  0.90981420570E+01  0.31246389117E+02  0.00000000000E+00 0. -1.
        -12    1    4    4    0    0 -0.15479142675E+02  0.29060058134E+02 -0.83835324263E+02  0.90069153604E+02  0.00000000000E+00 0.  1.
</event>
<event>
12    1  0.1629553E-001  0.1897177E+03  0.7818608E-02  0.1158868E+00
         21   -1    0    0  501  502  0.00000000000E+00  0.00000000000E+00  0.55086865845E+02  0.55086865845E+02  0.00000000000E+00 0. -1.
         21   -1    0    0  502  503 -0.00000000000E+00 -0.00000000000E+00 -0.13092884762E+04  0.13092884762E+04  0.00000000000E+00 0. -1.
         -6    2    1    2    0  503 -0.59668250652E+02 -0.52683860634E+02 -0.11102418927E+04  0.11262216032E+04  0.17147055166E+03 0.  0.
        -24    2    3    3    0    0 -0.78574901332E+02  0.16984667304E+02 -0.53857262135E+03  0.54999334032E+03  0.77263910670E+02 0.  0.
          6    2    1    2  501    0  0.59668250652E+02  0.52683860634E+02 -0.14395971774E+03  0.23815373885E+03  0.17221182796E+03 0.  0.
         24    2    5    5    0    0 -0.28427749831E+01  0.83140246596E+01 -0.13998854444E+03  0.16125009207E+03  0.79546183084E+02 0.  0.
          5    1    5    5  501    0  0.62511025635E+02  0.44369835975E+02 -0.39711733038E+01  0.76903646778E+02  0.47000000000E+01 0. -1.
        -11    1    6    6    0    0  0.15310716155E+02 -0.25778507740E+02 -0.22245775800E+02  0.37333952797E+02  0.00000000000E+00 0.  1.
         12    1    6    6    0    0 -0.18153491138E+02  0.34092532400E+02 -0.11774276863E+03  0.12391613927E+03  0.00000000000E+00 0. -1.
         -5    1    3    3    0  503  0.18906650680E+02 -0.69668527938E+02 -0.57166927131E+03  0.57622826292E+03  0.47000000000E+01 0.  1.
         11    1    4    4    0    0 -0.20648208203E+02  0.69641290708E+01 -0.38402197093E+03  0.38463972982E+03  0.00000000000E+00 0. -1.
        -12    1    4    4    0    0 -0.57926693129E+02  0.10020538233E+02 -0.15455065041E+03  0.16535361050E+03  0.00000000000E+00 0.  1.
</event>
<event>
12    1  0.1629553E-001  0.1993551E+03  0.7818608E-02  0.1150401E+00
         21   -1    0    0  501  502  0.00000000000E+00  0.00000000000E+00  0.25472032667E+03  0.25472032667E+03  0.00000000000E+00 0. -1.
         21   -1    0    0  502  503 -0.00000000000E+00 -0.00000000000E+00 -0.16178424274E+03  0.16178424274E+03  0.00000000000E+00 0. -1.
         -6    2    1    2    0  503  0.58377165415E+02 -0.82348388337E+02  0.57886128801E+01  0.19943916989E+03  0.17191080229E+03 0.  0.
        -24    2    3    3    0    0  0.10266922437E+03 -0.79187082780E+02 -0.10606470578E+02  0.15187164840E+03  0.78364128631E+02 0.  0.
          6    2    1    2  501    0 -0.58377165415E+02  0.82348388337E+02  0.87147471049E+02  0.21706539952E+03  0.17127041617E+03 0.  0.
         24    2    5    5    0    0  0.76150238508E+01  0.19405695376E+02 -0.10017676324E+02  0.83724079944E+02  0.80466130280E+02 0.  0.
          5    1    5    5  501    0 -0.65992189265E+02  0.62942692962E+02  0.97165147373E+02  0.13334131957E+03  0.47000000000E+01 0. -1.
        -11    1    6    6    0    0 -0.25120387249E+02  0.63548657155E+01 -0.32769863020E+02  0.41776573533E+02  0.00000000000E+00 0.  1.
         12    1    6    6    0    0  0.32735411100E+02  0.13050829660E+02  0.22752186695E+02  0.41947506411E+02  0.00000000000E+00 0. -1.
         -5    1    3    3    0  503 -0.44292058957E+02 -0.31613055573E+01  0.16395083458E+02  0.47567521494E+02  0.47000000000E+01 0.  1.
         13    1    4    4    0    0  0.99979317572E+02 -0.40525694451E+02  0.93416898198E+01  0.10828417715E+03  0.00000000000E+00 0. -1.
        -14    1    4    4    0    0  0.26899067994E+01 -0.38661388329E+02 -0.19948160398E+02  0.43587471243E+02  0.00000000000E+00 0.  1.
</event>
<event>
12    1  0.1629553E-001  0.1720270E+03  0.7818608E-02  0.1178535E+00
         21   -1    0    0  503  502  0.00000000000E+00  0.00000000000E+00  0.17524696748E+03  0.17524696748E+03  0.00000000000E+00 0.  1.
         21   -1    0    0  501  503 -0.00000000000E+00 -0.00000000000E+00 -0.16247869867E+03  0.16247869867E+03  0.00000000000E+00 0.  1.
          6    2    1    2  501    0 -0.98156869310E+01 -0.68610508933E+01 -0.19455890164E+02  0.16270659738E+03  0.16109464125E+03 0.  0.
         24    2    3    3    0    0  0.53911075053E+02  0.15903535749E+01 -0.10076577816E+02  0.97571446111E+02  0.80682813770E+02 0.  0.
         -6    2    1    2    0  502  0.98156869310E+01  0.68610508933E+01  0.32224158977E+02  0.17501906877E+03  0.17160960429E+03 0.  0.
        -24    2    5    5    0    0  0.42143242547E+02  0.15690327287E+02  0.67858955155E+02  0.12587687028E+03  0.96009944353E+02 0.  0.
          5    1    3    3  501    0 -0.63726761984E+02 -0.84514044681E+01 -0.93793123485E+01  0.65135151267E+02  0.47000000000E+01 0. -1.
        -13    1    4    4    0    0 -0.11428090916E+02 -0.13375335312E+02 -0.23353084174E+02  0.29238115485E+02  0.00000000000E+00 0.  1.
         14    1    4    4    0    0  0.65339165969E+02  0.14965688886E+02  0.13276506358E+02  0.68333330626E+02  0.00000000000E+00 0. -1.
         -5    1    5    5    0  502 -0.32327555616E+02 -0.88292763934E+01 -0.35634796179E+02  0.49142198490E+02  0.47000000000E+01 0.  1.
         13    1    6    6    0    0  0.17238979355E+02 -0.31408721475E+01 -0.23509290361E+02  0.29321224741E+02  0.00000000000E+00 0. -1.
        -14    1    6    6    0    0  0.24904263191E+02  0.18831199434E+02  0.91368245516E+02  0.96555645541E+02  0.00000000000E+00 0.  1.
</event>
<event>
12    1  0.1629553E-001  0.1764757E+03  0.7818608E-02  0.1171910E+00
         21   -1    0    0  503  502  0.00000000000E+00  0.00000000000E+00  0.94576435658E+02  0.94576435658E+02  0.00000000000E+00 0. -1.
         21   -1    0    0  501  503 -0.00000000000E+00 -0.00000000000E+00 -0.70457104407E+03  0.70457104407E+03  0.00000000000E+00 0. -1.
          6    2    1    2  501    0  0.22797810394E+02  0.30187230349E+01 -0.59743960343E+03  0.62222572888E+03  0.17234246456E+03 0.  0.
         24    2    3    3    0    0 -0.37771322957E+02 -0.27646705596E+02 -0.26995214084E+03  0.28774237118E+03  0.87923265741E+02 0.  0.
         -6    2    1    2    0  502 -0.22797810394E+02 -0.30187230349E+01 -0.12555004981E+02  0.17692175085E+03  0.17497092594E+03 0.  0.
        -24    2    5    5    0    0 -0.49784582914E+02  0.32222533849E+02 -0.51245991610E+02  0.11785133080E+03  0.88011295480E+02 0.  0.
          5    1    3    3  501    0  0.60569133351E+02  0.30665428630E+02 -0.32748746259E+03  0.33448335770E+03  0.47000000000E+01 0. -1.
        -11    1    4    4    0    0 -0.36230678460E+01 -0.52649750748E+02 -0.19105917819E+03  0.19821385533E+03  0.00000000000E+00 0.  1.
         12    1    4    4    0    0 -0.34148255111E+02  0.25003045152E+02 -0.78892962649E+02  0.89528515846E+02  0.00000000000E+00 0. -1.
         -5    1    5    5    0  502  0.26986772520E+02 -0.35241256884E+02  0.38690986629E+02  0.59070420044E+02  0.47000000000E+01 0.  1.
         13    1    6    6    0    0 -0.32650009919E+02 -0.11543841434E+02  0.14072100929E+02  0.37380575803E+02  0.00000000000E+00 0. -1.
        -14    1    6    6    0    0 -0.17134572995E+02  0.43766375283E+02 -0.65318092539E+02  0.80470754999E+02  0.00000000000E+00 0.  1.
</event>
<event>
12    1  0.1629553E-001  0.2277339E+03  0.7818608E-02  0.1128335E+00
         21   -1    0    0  501  502  0.00000000000E+00  0.00000000000E+00  0.14512929894E+03  0.14512929894E+03  0.00000000000E+00 0. -1.
         21   -1    0    0  502  503 -0.00000000000E+00 -0.00000000000E+00 -0.48072190538E+03  0.48072190538E+03  0.00000000000E+00 0.  1.
         -6    2    1    2    0  503 -0.41675813739E+02  0.14329286094E+03 -0.32669009131E+03  0.39794335233E+03  0.17135570739E+03 0.  0.
        -24    2    3    3    0    0 -0.76100156311E+02  0.13759213444E+03 -0.20103579134E+03  0.26744957184E+03  0.79944073123E+02 0.  0.
          6    2    1    2  501    0  0.41675813739E+02 -0.14329286094E+03 -0.89025151253E+01  0.22790785200E+03  0.17202620957E+03 0.  0.
         24    2    5    5    0    0  0.53871778861E+02 -0.15757838749E+03 -0.41799915590E+02  0.18973525985E+03  0.80741062199E+02 0.  0.
          5    1    5    5  501    0 -0.12195965123E+02  0.14285526548E+02  0.32897400465E+02  0.38172592149E+02  0.47000000000E+01 0. -1.
        -11    1    6    6    0    0  0.65448318709E+02 -0.76069323576E+02 -0.38055528177E+02  0.10732309927E+03  0.00000000000E+00 0.  1.
         12    1    6    6    0    0 -0.11576539847E+02 -0.81509063913E+02 -0.37443874127E+01  0.82412160583E+02  0.00000000000E+00 0. -1.
         -5    1    3    3    0  503  0.34424342572E+02  0.57007264984E+01 -0.12565429998E+03  0.13049378049E+03  0.47000000000E+01 0.  1.
         11    1    4    4    0    0  0.74534553967E+01  0.37910541167E+02 -0.17293667393E+02  0.42330060960E+02  0.00000000000E+00 0. -1.
        -12    1    4    4    0    0 -0.83553611707E+02  0.99681593276E+02 -0.18374212394E+03  0.22511951088E+03  0.00000000000E+00 0.  1.
</event>
<event>
12    1  0.1629553E-001  0.2210219E+03  0.7818608E-02  0.1133432E+00
         21   -1    0    0  503  502  0.00000000000E+00  0.00000000000E+00  0.10983528853E+03  0.10983528853E+03  0.00000000000E+00 0.  1.
         21   -1    0    0  501  503 -0.00000000000E+00 -0.00000000000E+00 -0.54087807035E+03  0.54087807035E+03  0.00000000000E+00 0. -1.
          6    2    1    2  501    0  0.13241675507E+03 -0.41729363796E+02 -0.35569339759E+03  0.41877017964E+03  0.17197422321E+03 0.  0.
         24    2    3    3    0    0  0.12997628730E+03  0.76132285767E+01 -0.18293863627E+03  0.23902885200E+03  0.81953956218E+02 0.  0.
         -6    2    1    2    0  502 -0.13241675507E+03  0.41729363796E+02 -0.75349384237E+02  0.23194317923E+03  0.16983689782E+03 0.  0.
        -24    2    5    5    0    0 -0.11467287841E+03  0.96456859819E+01 -0.11468658711E+03  0.17796435865E+03  0.72631889589E+02 0.  0.
          5    1    3    3  501    0  0.24404677698E+01 -0.49342592373E+02 -0.17275476132E+03  0.17974132765E+03  0.47000000000E+01 0. -1.
        -11    1    4    4    0    0  0.11440729774E+03 -0.13320816798E+02 -0.10152613427E+03  0.15353836613E+03  0.00000000000E+00 0.  1.
         12    1    4    4    0    0  0.15568989560E+02  0.20934045375E+02 -0.81412501999E+02  0.85490485864E+02  0.00000000000E+00 0. -1.
         -5    1    5    5    0  502 -0.17743876653E+02  0.32083677814E+02  0.39337202877E+02  0.53978820578E+02  0.47000000000E+01 0.  1.
         13    1    6    6    0    0 -0.10605521796E+02 -0.22800909650E+02 -0.34256850150E+02  0.42495768679E+02  0.00000000000E+00 0. -1.
        -14    1    6    6    0    0 -0.10406735662E+03  0.32446595632E+02 -0.80429736964E+02  0.13546858997E+03  0.00000000000E+00 0.  1.
</event>
<event>
12    1  0.1629553E-001  0.2053513E+03  0.7818608E-02  0.1145673E+00
         21   -1    0    0  503  502  0.00000000000E+00  0.00000000000E+00  0.73791252767E+02  0.73791252767E+02  0.00000000000E+00 0. -1.
         21   -1    0    0  501  503 -0.00000000000E+00 -0.00000000000E+00 -0.75766204059E+03  0.75766204059E+03  0.00000000000E+00 0. -1.
          6    2    1    2  501    0  0.10689015921E+03 -0.92319998492E+01 -0.55193219045E+03  0.58889582142E+03  0.17509543021E+03 0.  0.
         24    2    3    3    0    0  0.74725376063E+01 -0.12840023539E+02 -0.92445645546E+02  0.11873961731E+03  0.73021875598E+02 0.  0.
         -6    2    1    2    0  502 -0.10689015921E+03  0.92319998492E+01 -0.13193859738E+03  0.24255747194E+03  0.17296126086E+03 0.  0.
        -24    2    5    5    0    0 -0.97379756425E+02  0.60799302819E+02 -0.12774712603E+03  0.18974371493E+03  0.80647237787E+02 0.  0.
          5    1    3    3  501    0  0.99417621600E+02  0.36080236896E+01 -0.45948654490E+03  0.47015620411E+03  0.47000000000E+01 0. -1.
        -13    1    4    4    0    0 -0.22460541191E+02 -0.28191617970E+02 -0.68638964430E+02  0.77527741309E+02  0.00000000000E+00 0.  1.
         14    1    4    4    0    0  0.29933078797E+02  0.15351594431E+02 -0.23806681116E+02  0.41211876002E+02  0.00000000000E+00 0. -1.
         -5    1    5    5    0  502 -0.95104027812E+01 -0.51567302970E+02 -0.41914713456E+01  0.52813757002E+02  0.47000000000E+01 0.  1.
         13    1    6    6    0    0 -0.11173058028E+03  0.56537076705E+02 -0.11631505632E+03  0.17090744846E+03  0.00000000000E+00 0. -1.
        -14    1    6    6    0    0  0.14350823856E+02  0.42622261141E+01 -0.11432069716E+02  0.18836266476E+02  0.00000000000E+00 0.  1.
</event>
<event>
12    1  0.1629553E-001  0.1777317E+03  0.7818608E-02  0.1170312E+00
         21   -1    0    0  503  502  0.00000000000E+00  0.00000000000E+00  0.11481167217E+04  0.11481167217E+04  0.00000000000E+00 0. -1.
         21   -1    0    0  501  503 -0.00000000000E+00 -0.00000000000E+00 -0.51219083782E+02  0.51219083782E+02  0.00000000000E+00 0. -1.
          6    2    1    2  501    0 -0.18283986789E+02  0.36064601214E+02  0.13790863580E+03  0.22401613823E+03  0.17184143483E+03 0.  0.
         24    2    3    3    0    0 -0.52901836568E+02 -0.39412692927E+02  0.70675654948E+02  0.11706951056E+03  0.66017099493E+02 0.  0.
         -6    2    1    2    0  502  0.18283986789E+02 -0.36064601214E+02  0.95898900211E+03  0.97531966724E+03  0.17307104760E+03 0.  0.
        -24    2    5    5    0    0  0.45772429345E+01 -0.48573027916E+02  0.94928650177E+03  0.95385891054E+03  0.79508921359E+02 0.  0.
          5    1    3    3  501    0  0.34617849779E+02  0.75477294141E+02  0.67232980856E+02  0.10694662766E+03  0.47000000000E+01 0. -1.
        -11    1    4    4    0    0 -0.26409938457E+02 -0.45353793799E+02  0.14142502559E+02  0.54354961502E+02  0.00000000000E+00 0.  1.
         12    1    4    4    0    0 -0.26491898111E+02  0.59411008719E+01  0.56533152389E+02  0.62714549062E+02  0.00000000000E+00 0. -1.
         -5    1    5    5    0  502  0.13706743855E+02  0.12508426703E+02  0.97025003379E+01  0.21460756708E+02  0.47000000000E+01 0.  1.
         11    1    6    6    0    0 -0.12556586694E+02 -0.51008875994E+02  0.31605084986E+03  0.32038681777E+03  0.00000000000E+00 0. -1.
        -12    1    6    6    0    0  0.17133829628E+02  0.24358480779E+01  0.63323565190E+03  0.63347209277E+03  0.00000000000E+00 0.  1.
</event>
<event>
12    1  0.1629553E-001  0.3451313E+03  0.7818608E-02  0.1064828E+00
         21   -1    0    0  503  502  0.00000000000E+00  0.00000000000E+00  0.94774794720E+03  0.94774794720E+03  0.00000000000E+00 0.  1.
         21   -1    0    0  501  503 -0.00000000000E+00 -0.00000000000E+00 -0.19975211679E+03  0.19975211679E+03  0.00000000000E+00 0. -1.
          6    2    1    2  501    0  0.19599151855E+03  0.22344045457E+03  0.23652817806E+02  0.34594087230E+03  0.17543465808E+03 0.  0.
         24    2    3    3    0    0  0.11204069241E+03  0.40866271534E+02  0.25360253027E+01  0.14382931289E+03  0.80357146029E+02 0.  0.
         -6    2    1    2    0  502 -0.19599151855E+03 -0.22344045457E+03  0.72434301260E+03  0.80155919169E+03  0.17171495509E+03 0.  0.
        -24    2    5    5    0    0 -0.20251026416E+03 -0.23920526080E+03  0.70349365505E+03  0.77421309745E+03  0.79202485406E+02 0.  0.
          5    1    3    3  501    0  0.83950826144E+02  0.18257418303E+03  0.21116792503E+02  0.20211155941E+03  0.47000000000E+01 0. -1.
        -11    1    4    4    0    0  0.72003432117E+02 -0.19474273591E+01  0.31298123634E+02  0.78535719599E+02  0.00000000000E+00 0.  1.
         12    1    4    4    0    0  0.40037260293E+02  0.42813698893E+02 -0.28762098332E+02  0.65293593293E+02  0.00000000000E+00 0. -1.
         -5    1    5    5    0  502  0.65187456075E+01  0.15764806227E+02  0.20849357550E+02  0.27346094235E+02  0.47000000000E+01 0.  1.
         11    1    6    6    0    0 -0.46892103716E+02 -0.11152967400E+03  0.29397563598E+03  0.31789843052E+03  0.00000000000E+00 0. -1.
        -12    1    6    6    0    0 -0.15561816044E+03 -0.12767558680E+03  0.40951801906E+03  0.45631466694E+03  0.00000000000E+00 0.  1.
</event>
<event>
12    1  0.1629553E-001  0.1775331E+03  0.7818608E-02  0.1170948E+00
         21   -1    0    0  501  502  0.00000000000E+00  0.00000000000E+00  0.40387605283E+03  0.40387605283E+03  0.00000000000E+00 0. -1.
         21   -1    0    0  502  503 -0.00000000000E+00 -0.00000000000E+00 -0.81109150503E+02  0.81109150503E+02  0.00000000000E+00 0. -1.
         -6    2    1    2    0  503  0.27405033186E+02 -0.65580091837E+01  0.21636409059E+03  0.27800796580E+03  0.17228164737E+03 0.  0.
        -24    2    3    3    0    0 -0.42495860201E+02 -0.34303302856E+02  0.14391822010E+03  0.17347839884E+03  0.79998037887E+02 0.  0.
          6    2    1    2  501    0 -0.27405033186E+02  0.65580091837E+01  0.10640281174E+03  0.20697723754E+03  0.17528255813E+03 0.  0.
         24    2    5    5    0    0  0.39314663035E+01  0.61942842221E+02  0.24496128788E+02  0.10314925170E+03  0.78659619065E+02 0.  0.
          5    1    5    5  501    0 -0.31336499490E+02 -0.55384833038E+02  0.81906682947E+02  0.10382798583E+03  0.47000000000E+01 0. -1.
        -11    1    6    6    0    0  0.24062809682E+02  0.16380356407E+02  0.41345720921E+02  0.50564844747E+02  0.00000000000E+00 0.  1.
         12    1    6    6    0    0 -0.20131343378E+02  0.45562485815E+02 -0.16849592133E+02  0.52584406956E+02  0.00000000000E+00 0. -1.
         -5    1    3    3    0  503  0.69900893387E+02  0.27745293672E+02  0.72445870492E+02  0.10452956696E+03  0.47000000000E+01 0.  1.
         13    1    4    4    0    0 -0.41312842092E+02  0.88334496265E+01  0.11229457523E+03  0.11997854967E+03  0.00000000000E+00 0. -1.
        -14    1    4    4    0    0 -0.11830181085E+01 -0.43136752483E+02  0.31623644872E+02  0.53499849173E+02  0.00000000000E+00 0.  1.
</event>
<event>
12    1  0.1629553E-001  0.1884298E+03  0.7818608E-02  0.1160006E+00
         21   -1    0    0  503  502  0.00000000000E+00  0.00000000000E+00  0.27180111692E+03  0.27180111692E+03  0.00000000000E+00 0.  1.
         21   -1    0    0  501  503 -0.00000000000E+00 -0.00000000000E+00 -0.29894521168E+03  0.29894521168E+03  0.00000000000E+00 0.  1.
          6    2    1    2  501    0  0.73720888387E+02  0.21465962330E+02 -0.22794288654E+03  0.29574273443E+03  0.17207628692E+03 0.  0.
         24    2    3    3    0    0  0.35997730018E+02 -0.47780926204E+02 -0.17378116815E+03  0.19996303936E+03  0.78781147679E+02 0.  0.
         -6    2    1    2    0  502 -0.73720888387E+02 -0.21465962330E+02  0.20079879178E+03  0.27500359417E+03  0.17149712855E+03 0.  0.
        -24    2    5    5    0    0 -0.52015378781E+01  0.35509432747E+02  0.14928890522E+03  0.17196740901E+03  0.77444410576E+02 0.  0.
          5    1    3    3  501    0  0.37723158369E+02  0.69246888534E+02 -0.54161718385E+02  0.95779695068E+02  0.47000000000E+01 0. -1.
        -11    1    4    4    0    0  0.30481370692E+02 -0.16513894500E+02 -0.16267308454E+03  0.16632605059E+03  0.00000000000E+00 0.  1.
         12    1    4    4    0    0  0.55163593265E+01 -0.31267031703E+02 -0.11108083609E+02  0.33636988765E+02  0.00000000000E+00 0. -1.
         -5    1    5    5    0  502 -0.68519350509E+02 -0.56975395077E+02  0.51509886554E+02  0.10303618515E+03  0.47000000000E+01 0.  1.
         13    1    6    6    0    0  0.16272823624E+02  0.51219933999E+02  0.69476392292E+02  0.87836527217E+02  0.00000000000E+00 0. -1.
        -14    1    6    6    0    0 -0.21474361502E+02 -0.15710501252E+02  0.79812512930E+02  0.84130881796E+02  0.00000000000E+00 0.  1.
</event>
<event>
12    1  0.1629553E-001  0.1766527E+03  0.7818608E-02  0.1171151E+00
         21   -1    0    0  503  502  0.00000000000E+00  0.00000000000E+00  0.10394863186E+04  0.10394863186E+04  0.00000000000E+00 0. -1.
         21   -1    0    0  501  503 -0.00000000000E+00 -0.00000000000E+00 -0.50772526699E+02  0.50772526699E+02  0.00000000000E+00 0.  1.
          6    2    1    2  501    0 -0.22222141268E+02 -0.35846827147E+02  0.14522938580E+03  0.22847457702E+03  0.17126073475E+03 0.  0.
         24    2    3    3    0    0  0.47997330376E+02 -0.47170749151E+02  0.98567273259E+02  0.14327805037E+03  0.79273381790E+02 0.  0.
         -6    2    1    2    0  502  0.22222141268E+02  0.35846827147E+02  0.84348440612E+03  0.86178426829E+03  0.17154405596E+03 0.  0.
        -24    2    5    5    0    0  0.36308092395E+01  0.13627237263E+02  0.81989032654E+03  0.82412635555E+03  0.82250945186E+02 0.  0.
          5    1    3    3  501    0 -0.70219471644E+02  0.11323922004E+02  0.46662112541E+02  0.85196526656E+02  0.47000000000E+01 0. -1.
        -11    1    4    4    0    0  0.34424485367E+01 -0.57879003156E+02  0.50838311738E+02  0.77112666914E+02  0.00000000000E+00 0.  1.
         12    1    4    4    0    0  0.44554881839E+02  0.10708254005E+02  0.47728961521E+02  0.66165383453E+02  0.00000000000E+00 0. -1.
         -5    1    5    5    0  502  0.18591332029E+02  0.22219589884E+02  0.23594079580E+02  0.37657912746E+02  0.47000000000E+01 0.  1.
         13    1    6    6    0    0 -0.88957979157E+01  0.19467610266E+02  0.79767768790E+03  0.79796479675E+03  0.00000000000E+00 0. -1.
        -14    1    6    6    0    0  0.12526607155E+02 -0.58403730027E+01  0.22212638633E+02  0.26161558797E+02  0.00000000000E+00 0.  1.
</event>
<event>
12    1  0.1629553E-001  0.3207753E+03  0.7818608E-02  0.1075623E+00
         21   -1    0    0  503  502  0.00000000000E+00  0.00000000000E+00  0.27635315072E+03  0.27635315072E+03  0.00000000000E+00 0. -1.
         21   -1    0    0  501  503 -0.00000000000E+00 -0.00000000000E+00 -0.37118034660E+03  0.37118034660E+03  0.00000000000E+00 0. -1.
          6    2    1    2  501    0 -0.15956470429E+02 -0.26855381763E+03 -0.71890441309E+02  0.32593917716E+03  0.16938816293E+03 0.  0.
         24    2    3    3    0    0 -0.46876994929E+02 -0.74256987493E+02 -0.39996286581E+02  0.12657352279E+03  0.81912153463E+02 0.  0.
         -6    2    1    2    0  502  0.15956470429E+02  0.26855381763E+03 -0.22936754570E+02  0.32159432017E+03  0.17470274795E+03 0.  0.
        -24    2    5    5    0    0  0.27131939503E+02  0.25219577069E+03 -0.65746749161E+02  0.27418902040E+03  0.80734967570E+02 0.  0.
          5    1    3    3  501    0  0.30920524501E+02 -0.19429683014E+03 -0.31894154728E+02  0.19936565437E+03  0.47000000000E+01 0. -1.
        -11    1    4    4    0    0 -0.32094094978E+02  0.21847574028E+01  0.10424235970E+02  0.33815215405E+02  0.00000000000E+00 0.  1.
         12    1    4    4    0    0 -0.14782899951E+02 -0.76441744896E+02 -0.50420522551E+02  0.92758307380E+02  0.00000000000E+00 0. -1.
         -5    1    5    5    0  502 -0.11175469074E+02  0.16358046939E+02  0.42809994592E+02  0.47405299763E+02  0.47000000000E+01 0.  1.
         11    1    6    6    0    0  0.12743215227E+02  0.77333683136E+02 -0.59888202717E+02  0.98638151374E+02  0.00000000000E+00 0. -1.
        -12    1    6    6    0    0  0.14388724276E+02  0.17486208755E+03 -0.58585464437E+01  0.17555086903E+03  0.00000000000E+00 0.  1.
</event>
<event>
12    1  0.1629553E-001  0.1947105E+03  0.7818608E-02  0.1155105E+00
         21   -1    0    0  503  502  0.00000000000E+00  0.00000000000E+00  0.36138895203E+03  0.36138895203E+03  0.00000000000E+00 0.  1.
         21   -1    0    0  501  503 -0.00000000000E+00 -0.00000000000E+00 -0.11492033290E+03  0.11492033290E+03  0.00000000000E+00 0. -1.
          6    2    1    2  501    0 -0.85444334199E+02  0.23803817665E+02  0.45152722894E+02  0.19623738008E+03  0.16912417029E+03 0.  0.
         24    2    3    3    0    0 -0.90480129623E+02  0.66643427980E+02 -0.12103023601E+02  0.12439796225E+03  0.51965079454E+02 0.  0.
         -6    2    1    2    0  502  0.85444334199E+02 -0.23803817665E+02  0.20131589624E+03  0.28007190485E+03  0.17333443347E+03 0.  0.
        -24    2    5    5    0    0 -0.44209660356E+01 -0.59107299582E+02  0.70067342227E+02  0.11706766886E+03  0.72678668405E+02 0.  0.
          5    1    3    3  501    0  0.50357954241E+01 -0.42839610315E+02  0.57255746495E+02  0.71839417831E+02  0.47000000000E+01 0. -1.
        -11    1    4    4    0    0 -0.77177041572E+02  0.46088854702E+02  0.11213091578E+02  0.90588143244E+02  0.00000000000E+00 0.  1.
         12    1    4    4    0    0 -0.13303088051E+02  0.20554573277E+02 -0.23316115179E+02  0.33809819008E+02  0.00000000000E+00 0. -1.
         -5    1    5    5    0  502  0.89865300235E+02  0.35303481917E+02  0.13124855401E+03  0.16300423599E+03  0.47000000000E+01 0.  1.
         13    1    6    6    0    0 -0.88207234723E+01 -0.54890226716E+01 -0.13894262820E+02  0.17348921343E+02  0.00000000000E+00 0. -1.
        -14    1    6    6    0    0  0.43997574367E+01 -0.53618276910E+02  0.83961605047E+02  0.99718747517E+02  0.00000000000E+00 0.  1.
</event>
<event>
12    1  0.1629553E-001  0.1917400E+03  0.7818608E-02  0.1157048E+00
         21   -1    0    0  501  502  0.00000000000E+00  0.00000000000E+00  0.22146524148E+02  0.22146524148E+02  0.00000000000E+00 0.  1.
         21   -1    0    0  502  503 -0.00000000000E+00 -0.00000000000E+00 -0.17075900034E+04  0.17075900034E+04  0.00000000000E+00 0. -1.
         -6    2    1    2    0  503 -0.47194767016E+02 -0.70495722299E+02 -0.68859852184E+03  0.71461876100E+03  0.17121640224E+03 0.  0.
        -24    2    3    3    0    0 -0.52776204733E+02 -0.41708850545E+02 -0.19723709454E+03  0.22236072027E+03  0.77568437224E+02 0.  0.
          6    2    1    2  501    0  0.47194767016E+02  0.70495722299E+02 -0.99684495746E+03  0.10151177666E+04  0.17195120805E+03 0.  0.
         24    2    5    5    0    0  0.66681054891E+02  0.62313635894E+02 -0.41109191371E+03  0.42896473179E+03  0.81760793176E+02 0.  0.
          5    1    5    5  501    0 -0.19486287876E+02  0.81820864049E+01 -0.58575304374E+03  0.58615303480E+03  0.47000000000E+01 0. -1.
        -11    1    6    6    0    0  0.30294423824E+02  0.77329007637E+02 -0.26997064773E+03  0.28245650670E+03  0.00000000000E+00 0.  1.
         12    1    6    6    0    0  0.36386631067E+02 -0.15015371743E+02 -0.14112126598E+03  0.14650822510E+03  0.00000000000E+00 0. -1.
         -5    1    3    3    0  503  0.55814377178E+01 -0.28786871754E+02 -0.49136142729E+03  0.49225804073E+03  0.47000000000E+01 0.  1.
         13    1    4    4    0    0  0.89188483287E+01 -0.33463838567E+02 -0.10907034293E+03  0.11443650665E+03  0.00000000000E+00 0. -1.
        -14    1    4    4    0    0 -0.61695053062E+02 -0.82450119783E+01 -0.88166751615E+02  0.10792421362E+03  0.00000000000E+00 0.  1.
</event>
<event>
12    1  0.1629553E-001  0.1898676E+03  0.7818608E-02  0.1159236E+00
         21   -1    0    0  503  502  0.00000000000E+00  0.00000000000E+00  0.75591688591E+03  0.75591688591E+03  0.00000000000E+00 0.  1.
         21   -1    0    0  501  503 -0.00000000000E+00 -0.00000000000E+00 -0.53361332697E+02  0.53361332697E+02  0.00000000000E+00 0.  1.
          6    2    1    2  501    0  0.60022685563E+02 -0.54974586517E+02  0.49367401509E+03  0.52892698538E+03  0.17153656968E+03 0.  0.
         24    2    3    3    0    0  0.41632816595E+02 -0.21010064110E+02  0.10975554146E+03  0.14304195009E+03  0.78993711093E+02 0.  0.
         -6    2    1    2    0  502 -0.60022685563E+02  0.54974586517E+02  0.20888153812E+03  0.28035123323E+03  0.16834603964E+03 0.  0.
        -24    2    5    5    0    0 -0.11067228664E+02 -0.34383442261E+02  0.10776400490E+03  0.13672554057E+03  0.76000579212E+02 0.  0.
          5    1    3    3  501    0  0.18389868968E+02 -0.33964522407E+02  0.38391847363E+03  0.38588503529E+03  0.47000000000E+01 0. -1.
        -13    1    4    4    0    0  0.63984316324E+02 -0.25496163249E+02  0.84616512411E+02  0.10910545930E+03  0.00000000000E+00 0.  1.
         14    1    4    4    0    0 -0.22351499729E+02  0.44860991393E+01  0.25139029047E+02  0.33936490789E+02  0.00000000000E+00 0. -1.
         -5    1    5    5    0  502 -0.48955456899E+02  0.89358028778E+02  0.10111753322E+03  0.14362569266E+03  0.47000000000E+01 0.  1.
         11    1    6    6    0    0  0.96180186717E+01  0.21649907369E+02  0.39111534626E+02  0.45726763641E+02  0.00000000000E+00 0. -1.
        -12    1    6    6    0    0 -0.20685247336E+02 -0.56033349630E+02  0.68652470270E+02  0.90998776927E+02  0.00000000000E+00 0.  1.
</event>
<event>
12    1  0.1629553E-001  0.1911300E+03  0.7818608E-02  0.1157661E+00
         21   -1    0    0  501  502  0.00000000000E+00  0.00000000000E+00  0.10945823210E+04  0.10945823210E+04  0.00000000000E+00 0. -1.
         21   -1    0    0  502  503 -0.00000000000E+00 -0.00000000000E+00 -0.33621914233E+02  0.33621914233E+02  0.00000000000E+00 0.  1.
         -6    2    1    2    0  503  0.34266173786E+02 -0.73108999539E+02  0.46911280179E+03  0.50655454975E+03  0.17323854822E+03 0.  0.
        -24    2    3    3    0    0  0.64340826039E+02 -0.56823628755E+02  0.45307288344E+03  0.46848793721E+03  0.82687622542E+02 0.  0.
          6    2    1    2  501    0 -0.34266173786E+02  0.73108999539E+02  0.59184760499E+03  0.62164968550E+03  0.17217911449E+03 0.  0.
         24    2    5    5    0    0  0.45694036021E+02  0.34024825141E+02  0.35738274290E+03  0.37081693366E+03  0.80852580111E+02 0.  0.
          5    1    5    5  501    0 -0.79960209807E+02  0.39084174397E+02  0.23446486208E+03  0.25083275183E+03  0.47000000000E+01 0. -1.
        -13    1    6    6    0    0  0.63194242606E+01  0.43592749592E+02  0.88052312612E+02  0.98455435078E+02  0.00000000000E+00 0.  1.
         14    1    6    6    0    0  0.39374611760E+02 -0.95679244506E+01  0.26933043029E+03  0.27236149858E+03  0.00000000000E+00 0. -1.
         -5    1    3    3    0  503 -0.30074652253E+02 -0.16285370783E+02  0.16039918352E+02  0.38066612542E+02  0.47000000000E+01 0.  1.
         11    1    4    4    0    0  0.82420524939E+02 -0.46022094354E+02  0.40739300659E+03  0.41818684571E+03  0.00000000000E+00 0. -1.
        -12    1    4    4    0    0 -0.18079698900E+02 -0.10801534401E+02  0.45679876846E+02  0.50301091503E+02  0.00000000000E+00 0.  1.
</event>
<event>
12    1  0.1629553E-001  0.2015944E+03  0.7818608E-02  0.1148910E+00
         21   -1    0    0  501  502  0.00000000000E+00  0.00000000000E+00  0.30301157260E+02  0.30301157260E+02  0.00000000000E+00 0.  1.
         21   -1    0    0  502  503 -0.00000000000E+00 -0.00000000000E+00 -0.13296996180E+04  0.13296996180E+04  0.00000000000E+00 0.  1.
         -6    2    1    2    0  503  0.98510808283E+02 -0.23153970390E+02 -0.61373453859E+03  0.64599566273E+03  0.17435546080E+03 0.  0.
        -24    2    3    3    0    0  0.78334509045E+02 -0.74405326477E+02 -0.32405815397E+03  0.35109180999E+03  0.81113032085E+02 0.  0.
          6    2    1    2  501    0 -0.98510808283E+02  0.23153970390E+02 -0.68566392215E+03  0.71400511253E+03  0.17154533188E+03 0.  0.
         24    2    5    5    0    0  0.95053027096E+01 -0.44669389161E+02 -0.19563892327E+03  0.20763165562E+03  0.52446267844E+02 0.  0.
          5    1    5    5  501    0 -0.10801611099E+03  0.67823359550E+02 -0.49002499888E+03  0.50637345691E+03  0.47000000000E+01 0. -1.
        -13    1    6    6    0    0  0.16142628091E+02 -0.23468108865E+02 -0.17501703787E+03  0.17731976799E+03  0.00000000000E+00 0.  1.
         14    1    6    6    0    0 -0.66373253813E+01 -0.21201280296E+02 -0.20621885401E+02  0.30311887633E+02  0.00000000000E+00 0. -1.
         -5    1    3    3    0  503  0.20176299238E+02  0.51251356087E+02 -0.28967638462E+03  0.29490385274E+03  0.47000000000E+01 0.  1.
         11    1    4    4    0    0  0.35029381575E+02 -0.10583299993E+02 -0.21151250604E+03  0.21465461566E+03  0.00000000000E+00 0. -1.
        -12    1    4    4    0    0  0.43305127470E+02 -0.63822026484E+02 -0.11254564793E+03  0.13643719433E+03  0.00000000000E+00 0.  1.
</event>
<event>
12    1  0.1629553E-001  0.1740012E+03  0.7818608E-02  0.1173857E+00
         21   -1    0    0  503  502  0.00000000000E+00  0.00000000000E+00  0.15330122800E+03  0.15330122800E+03  0.00000000000E+00 0. -1.
         21   -1    0    0  501  503 -0.00000000000E+00 -0.00000000000E+00 -0.19723278614E+03  0.19723278614E+03  0.00000000000E+00 0. -1.
          6    2    1    2  501    0 -0.21568626333E+02  0.11293240446E+00 -0.28437077246E+02  0.17630962663E+03  0.17265919809E+03 0.  0.
         24    2    3    3    0    0 -0.72423286662E+02  0.35043384028E+02 -0.14414372705E+02  0.11286627260E+03  0.77832192150E+02 0.  0.
         -6    2    1    2    0  502  0.21568626333E+02 -0.11293240446E+00 -0.15494480892E+02  0.17422438751E+03  0.17218838483E+03 0.  0.
        -24    2    5    5    0    0  0.21131994476E+02 -0.64306588128E+02  0.64607526772E+01  0.10621601770E+03  0.81597810171E+02 0.  0.
          5    1    3    3  501    0  0.50854660328E+02 -0.34930451624E+02 -0.14022704541E+02  0.63443354029E+02  0.47000000000E+01 0. -1.
        -13    1    4    4    0    0 -0.30236527016E+02  0.91349878123E+00  0.30104350841E+02  0.42677324020E+02  0.00000000000E+00 0.  1.
         14    1    4    4    0    0 -0.42186759646E+02  0.34129885247E+02 -0.44518723546E+02  0.70188948579E+02  0.00000000000E+00 0. -1.
         -5    1    5    5    0  502  0.43663185710E+00  0.64193655723E+02 -0.21955233569E+02  0.68008369805E+02  0.47000000000E+01 0.  1.
         13    1    6    6    0    0 -0.68923897788E+01  0.26504819728E+01  0.29226042960E+02  0.30144513243E+02  0.00000000000E+00 0. -1.
        -14    1    6    6    0    0  0.28024384255E+02 -0.66957070101E+02 -0.22765290283E+02  0.76071504461E+02  0.00000000000E+00 0.  1.
</event>
<event>
12    1  0.1629553E-001  0.3388304E+03  0.7818608E-02  0.1067458E+00
         21   -1    0    0  501  502  0.00000000000E+00  0.00000000000E+00  0.74443010556E+03  0.74443010556E+03  0.00000000000E+00 0.  1.
         21   -1    0    0  502  503 -0.00000000000E+00 -0.00000000000E+00 -0.22386143394E+03  0.22386143394E+03  0.00000000000E+00 0.  1.
         -6    2    1    2    0  503 -0.28990976238E+03 -0.14380920169E+02  0.53205429988E+03  0.63078351217E+03  0.17479010274E+03 0.  0.
        -24    2    3    3    0    0 -0.10093133210E+03  0.39350821795E+02  0.28104257975E+03  0.31199060001E+03  0.81348521079E+02 0.  0.
          6    2    1    2  501    0  0.28990976238E+03  0.14380920169E+02 -0.11485628259E+02  0.33750802733E+03  0.17182918166E+03 0.  0.
         24    2    5    5    0    0  0.16186049909E+03  0.59087135835E+02 -0.49192301809E+02  0.19665653541E+03  0.81017279475E+02 0.  0.
          5    1    5    5  501    0  0.12804926329E+03 -0.44706215665E+02  0.37706673550E+02  0.14085149193E+03  0.47000000000E+01 0. -1.
        -11    1    6    6    0    0  0.14966177793E+03  0.59535397375E+02 -0.16682231537E+02  0.16193025709E+03  0.00000000000E+00 0.  1.
         12    1    6    6    0    0  0.12198721164E+02 -0.44826154019E+00 -0.32510070272E+02  0.34726278314E+02  0.00000000000E+00 0. -1.
         -5    1    3    3    0  503 -0.18897843028E+03 -0.53731741964E+02  0.25101172013E+03  0.31879291216E+03  0.47000000000E+01 0.  1.
         11    1    4    4    0    0 -0.64012055383E+02  0.99622968705E+01  0.24267435966E+03  0.25117252125E+03  0.00000000000E+00 0. -1.
        -12    1    4    4    0    0 -0.36919276720E+02  0.29388524924E+02  0.38368220092E+02  0.60818078758E+02  0.00000000000E+00 0.  1.
</event>
<event>
12    1  0.1629553E-001  0.2361219E+03  0.7818608E-02  0.1122620E+00
         21   -1    0    0  503  502  0.00000000000E+00  0.00000000000E+00  0.15162988663E+03  0.15162988663E+03  0.00000000000E+00 0. -1.
         21   -1    0    0  501  503 -0.00000000000E+00 -0.00000000000E+00 -0.36585166702E+03  0.36585166702E+03  0.00000000000E+00 0.  1.
          6    2    1    2  501    0 -0.10683960702E+03 -0.11952973094E+03 -0.10253575574E+03  0.25742407423E+03  0.17335372677E+03 0.  0.
         24    2    3    3    0    0 -0.14437035216E+02 -0.49398300143E+02 -0.99102320537E+02  0.14127532763E+03  0.86538016026E+02 0.  0.
         -6    2    1    2    0  502  0.10683960702E+03  0.11952973094E+03 -0.11168602464E+03  0.26005747941E+03  0.17162187008E+03 0.  0.
        -24    2    5    5    0    0  0.10207798518E+03  0.81506281979E+02 -0.14377605171E+03  0.20985473496E+03  0.79399418639E+02 0.  0.
          5    1    3    3  501    0 -0.92402571799E+02 -0.70131430797E+02 -0.34334352066E+01  0.11614874661E+03  0.47000000000E+01 0. -1.
        -11    1    4    4    0    0 -0.24099018766E+02  0.15010609462E+02 -0.83932965567E+01  0.29606224497E+02  0.00000000000E+00 0.  1.
         12    1    4    4    0    0  0.96619835498E+01 -0.64408909605E+02 -0.90709023980E+02  0.11166910313E+03  0.00000000000E+00 0. -1.
         -5    1    5    5    0  502  0.47616218311E+01  0.38023448961E+02  0.32090027063E+02  0.50202744449E+02  0.47000000000E+01 0.  1.
         11    1    6    6    0    0 -0.53717276369E+00  0.37819646919E+02 -0.57618186093E+02  0.68923650631E+02  0.00000000000E+00 0. -1.
        -12    1    6    6    0    0  0.10261515795E+03  0.43686635060E+02 -0.86157865614E+02  0.14093108433E+03  0.00000000000E+00 0.  1.
</event>
<event>
12    1  0.1629553E-001  0.1962031E+03  0.7818608E-02  0.1153250E+00
         21   -1    0    0  503  502  0.00000000000E+00  0.00000000000E+00  0.94519175102E+03  0.94519175102E+03  0.00000000000E+00 0. -1.
         21   -1    0    0  501  503 -0.00000000000E+00 -0.00000000000E+00 -0.57187124715E+02  0.57187124715E+02  0.00000000000E+00 0. -1.
          6    2    1    2  501    0  0.93054963106E+02 -0.70444040945E+01  0.17205150584E+03  0.26002819796E+03  0.17118438388E+03 0.  0.
         24    2    3    3    0    0  0.17407356028E+02  0.40552952914E+02  0.41350851856E+02  0.10162106490E+03  0.81666332407E+02 0.  0.
         -6    2    1    2    0  502 -0.93054963106E+02  0.70444040945E+01  0.71595312046E+03  0.74235067777E+03  0.17258855207E+03 0.  0.
        -24    2    5    5    0    0 -0.13164537635E+03 -0.78825487736E+00  0.61550718447E+03  0.63435972168E+03  0.78943244758E+02 0.  0.
          5    1    3    3  501    0  0.75647607079E+02 -0.47597357008E+02  0.13070065399E+03  0.15840713306E+03  0.47000000000E+01 0. -1.
        -11    1    4    4    0    0 -0.15981308711E+01 -0.22933351875E+02 -0.93725719049E+00  0.23008066011E+02  0.00000000000E+00 0.  1.
         12    1    4    4    0    0  0.19005486899E+02  0.63486304789E+02  0.42288109046E+02  0.78612998892E+02  0.00000000000E+00 0. -1.
         -5    1    5    5    0  502  0.38590413247E+02  0.78326589719E+01  0.10044593599E+03  0.10799095609E+03  0.47000000000E+01 0.  1.
         13    1    6    6    0    0 -0.14068431244E+02  0.25821789102E+02  0.74695946536E+02  0.80275587690E+02  0.00000000000E+00 0. -1.
        -14    1    6    6    0    0 -0.11757694511E+03 -0.26610043980E+02  0.54081123793E+03  0.55408413399E+03  0.00000000000E+00 0.  1.
</event>
<event>
12    1  0.1629553E-001  0.2069768E+03  0.7818608E-02  0.1144142E+00
         21   -1    0    0  503  502  0.00000000000E+00  0.00000000000E+00  0.20179589586E+03  0.20179589586E+03  0.00000000000E+00 0.  1.
         21   -1    0    0  501  503 -0.00000000000E+00 -0.00000000000E+00 -0.31834188122E+03  0.31834188122E+03  0.00000000000E+00 0. -1.
          6    2    1    2  501    0  0.30498537792E+02 -0.11068368225E+03 -0.20902496726E+03  0.29416124389E+03  0.17221603335E+03 0.  0.
         24    2    3    3    0    0  0.51630721820E+02 -0.12100290749E+03 -0.21873772554E+03  0.26828686882E+03  0.82608815216E+02 0.  0.
         -6    2    1    2    0  502 -0.30498537792E+02  0.11068368225E+03  0.92478981900E+02  0.22597653320E+03  0.17126585515E+03 0.  0.
        -24    2    5    5    0    0  0.14703998280E+02  0.24876547249E+02 -0.80550026402E+01  0.86207775136E+02  0.80819844456E+02 0.  0.
          5    1    3    3  501    0 -0.21132184028E+02  0.10319225247E+02  0.97127582791E+01  0.25874375063E+02  0.47000000000E+01 0. -1.
        -13    1    4    4    0    0 -0.15338589332E+01 -0.88945809784E+02 -0.15864878618E+03  0.18188773229E+03  0.00000000000E+00 0.  1.
         14    1    4    4    0    0  0.53164580754E+02 -0.32057097709E+02 -0.60088939357E+02  0.86399136531E+02  0.00000000000E+00 0. -1.
         -5    1    5    5    0  502 -0.45202536072E+02  0.85807134997E+02  0.10053398454E+03  0.13976875807E+03  0.47000000000E+01 0.  1.
         13    1    6    6    0    0 -0.28823757673E+02 -0.84036732254E+01 -0.92043387170E+01  0.31403034587E+02  0.00000000000E+00 0. -1.
        -14    1    6    6    0    0  0.43527755953E+02  0.33280220475E+02  0.11493360768E+01  0.54804740549E+02  0.00000000000E+00 0.  1.
</event>
<event>
12    1  0.1629553E-001  0.5183850E+03  0.7818608E-02  0.1009186E+00
         21   -1    0    0  503  502  0.00000000000E+00  0.00000000000E+00  0.51326114311E+03  0.51326114311E+03  0.00000000000E+00 0. -1.
         21   -1    0    0  501  503 -0.00000000000E+00 -0.00000000000E+00 -0.53263597098E+03  0.53263597098E+03  0.00000000000E+00 0. -1.
          6    2    1    2  501    0  0.68194113580E+02  0.48380365912E+03  0.64281019861E+02  0.52080542985E+03  0.16849281452E+03 0.  0.
         24    2    3    3    0    0  0.66914444012E+02  0.15810747844E+03  0.36219950368E+02  0.19386636323E+03  0.82442491662E+02 0.  0.
         -6    2    1    2    0  502 -0.68194113580E+02 -0.48380365912E+03 -0.83655847733E+02  0.52509168423E+03  0.17322401185E+03 0.  0.
        -24    2    5    5    0    0 -0.10645223636E+03 -0.42800203648E+03 -0.57312396602E+02  0.45233474322E+03  0.82487497578E+02 0.  0.
          5    1    3    3  501    0  0.12796695680E+01  0.32569618068E+03  0.28061069493E+02  0.32693906662E+03  0.47000000000E+01 0. -1.
        -11    1    4    4    0    0  0.89921393425E+01  0.47707632352E+02 -0.25407382633E+02  0.54794268376E+02  0.00000000000E+00 0.  1.
         12    1    4    4    0    0  0.57922304669E+02  0.11039984609E+03  0.61627333001E+02  0.13907209486E+03  0.00000000000E+00 0. -1.
         -5    1    5    5    0  502  0.38258122782E+02 -0.55801622638E+02 -0.26343451131E+02  0.72756941011E+02  0.47000000000E+01 0.  1.
         11    1    6    6    0    0 -0.67045577182E+01 -0.19179278597E+03 -0.15421593114E+02  0.19252856769E+03  0.00000000000E+00 0. -1.
        -12    1    6    6    0    0 -0.99747678644E+02 -0.23620925051E+03 -0.41890803488E+02  0.25980617552E+03  0.00000000000E+00 0.  1.
</event>
<event>
12    1  0.1629553E-001  0.2338263E+03  0.7818608E-02  0.1123992E+00
         21   -1    0    0  501  502  0.00000000000E+00  0.00000000000E+00  0.69257178942E+03  0.69257178942E+03  0.00000000000E+00 0.  1.
         21   -1    0    0  502  503 -0.00000000000E+00 -0.00000000000E+00 -0.81558513637E+02  0.81558513637E+02  0.00000000000E+00 0.  1.
         -6    2    1    2    0  503  0.15218870239E+03 -0.44576931828E+02  0.37516858593E+03  0.44201971638E+03  0.17170165349E+03 0.  0.
        -24    2    3    3    0    0  0.64309101056E+02 -0.88126669985E+02  0.21461054580E+03  0.25381669230E+03  0.80394380876E+02 0.  0.
          6    2    1    2  501    0 -0.15218870239E+03  0.44576931828E+02  0.23584468986E+03  0.33211058668E+03  0.17183195298E+03 0.  0.
         24    2    5    5    0    0 -0.83172126057E+02  0.66233106946E+02  0.67838530788E+02  0.14913398376E+03  0.79589269661E+02 0.  0.
          5    1    5    5  501    0 -0.69016576337E+02 -0.21656175119E+02  0.16800615907E+03  0.18297660292E+03  0.47000000000E+01 0. -1.
        -13    1    6    6    0    0 -0.90017945504E+02  0.30952170776E+02  0.38273603740E+02  0.10259695966E+03  0.00000000000E+00 0.  1.
         14    1    6    6    0    0  0.68458194468E+01  0.35280936171E+02  0.29564927048E+02  0.46537024103E+02  0.00000000000E+00 0. -1.
         -5    1    3    3    0  503  0.87879601339E+02  0.43549738158E+02  0.16055804012E+03  0.18820302408E+03  0.47000000000E+01 0.  1.
         13    1    4    4    0    0  0.18948037065E+02  0.12924119335E+02  0.22918837072E+02  0.32424281981E+02  0.00000000000E+00 0. -1.
        -14    1    4    4    0    0  0.45361063991E+02 -0.10105078932E+03  0.19169170873E+03  0.22139241032E+03  0.00000000000E+00 0.  1.
</event>
<event>
12    1  0.1629553E-001  0.2168081E+03  0.7818608E-02  0.1136500E+00
         21   -1    0    0  501  502  0.00000000000E+00  0.00000000000E+00  0.76744220380E+02  0.76744220380E+02  0.00000000000E+00 0.  1.
         21   -1    0    0  502  503 -0.00000000000E+00 -0.00000000000E+00 -0.16283643081E+04  0.16283643081E+04  0.00000000000E+00 0. -1.
         -6    2    1    2    0  503 -0.12429146927E+03  0.47477429421E+02 -0.14494922203E+04  0.14654507542E+04  0.16975199734E+03 0.  0.
        -24    2    3    3    0    0 -0.77467314819E+02  0.84944349792E+02 -0.70937983420E+03  0.72289792400E+03  0.78389616182E+02 0.  0.
          6    2    1    2  501    0  0.12429146927E+03 -0.47477429421E+02 -0.10212786747E+03  0.23965777434E+03  0.17118198460E+03 0.  0.
         24    2    5    5    0    0  0.45131001282E+02  0.30143225848E+02 -0.41703695445E+01  0.91640521240E+02  0.73723617721E+02 0.  0.
          5    1    5    5  501    0  0.79160467985E+02 -0.77620655269E+02 -0.97957497924E+02  0.14801725310E+03  0.47000000000E+01 0. -1.
        -11    1    6    6    0    0  0.56200904998E+02 -0.26505970025E+01  0.28032714935E+01  0.56333167123E+02  0.00000000000E+00 0.  1.
         12    1    6    6    0    0 -0.11069903716E+02  0.32793822851E+02 -0.69736410379E+01  0.35307354117E+02  0.00000000000E+00 0. -1.
         -5    1    3    3    0  503 -0.46824154447E+02 -0.37466920371E+02 -0.74011238609E+03  0.74255283018E+03  0.47000000000E+01 0.  1.
         11    1    4    4    0    0 -0.52162768645E+02  0.63166416547E+01 -0.19623809131E+03  0.20315078852E+03  0.00000000000E+00 0. -1.
        -12    1    4    4    0    0 -0.25304546173E+02  0.78627708138E+02 -0.51314174289E+03  0.51974713548E+03  0.00000000000E+00 0.  1.
</event>
<event>
12    1  0.1629553E-001  0.1966369E+03  0.7818608E-02  0.1153290E+00
         21   -1    0    0  501  502  0.00000000000E+00  0.00000000000E+00  0.24119705771E+03  0.24119705771E+03  0.00000000000E+00 0. -1.
         21   -1    0    0  502  503 -0.00000000000E+00 -0.00000000000E+00 -0.15779986285E+03  0.15779986285E+03  0.00000000000E+00 0. -1.
         -6    2    1    2    0  503  0.62282195574E+02  0.67160779158E+02  0.38364490369E+02  0.19726939142E+03  0.17045156652E+03 0.  0.
        -24    2    3    3    0    0 -0.22983930893E+02  0.26698107152E+02 -0.12827526228E+02  0.89797289405E+02  0.81596309663E+02 0.  0.
          6    2    1    2  501    0 -0.62282195574E+02 -0.67160779158E+02  0.45032704494E+02  0.20172752914E+03  0.17400117642E+03 0.  0.
         24    2    5    5    0    0  0.12269257029E+02 -0.21792157423E+01 -0.19998161888E+02  0.83272363564E+02  0.79869120474E+02 0.  0.
          5    1    5    5  501    0 -0.74551452603E+02 -0.64981563415E+02  0.65030866382E+02  0.11845516558E+03  0.47000000000E+01 0. -1.
        -11    1    6    6    0    0 -0.14474325994E+02  0.19013586929E+02 -0.37849985958E+02  0.44762082591E+02  0.00000000000E+00 0.  1.
         12    1    6    6    0    0  0.26743583023E+02 -0.21192802671E+02  0.17851824070E+02  0.38510280973E+02  0.00000000000E+00 0. -1.
         -5    1    3    3    0  503  0.85266126468E+02  0.40462672005E+02  0.51192016597E+02  0.10747210202E+03  0.47000000000E+01 0.  1.
         13    1    4    4    0    0  0.76228366454E+01 -0.11660700722E+02 -0.33702802832E+02  0.36468596060E+02  0.00000000000E+00 0. -1.
        -14    1    4    4    0    0 -0.30606767539E+02  0.38358807874E+02  0.20875276603E+02  0.53328693346E+02  0.00000000000E+00 0.  1.
</event>
<event>
12    1  0.1629553E-001  0.1891935E+03  0.7818608E-02  0.1159911E+00
         21   -1    0    0  503  502  0.00000000000E+00  0.00000000000E+00  0.48293113514E+03  0.48293113514E+03  0.00000000000E+00 0.  1.
         21   -1    0    0  501  503 -0.00000000000E+00 -0.00000000000E+00 -0.88249890082E+02  0.88249890082E+02  0.00000000000E+00 0.  1.
          6    2    1    2  501    0 -0.17253004530E+02 -0.71092722695E+02  0.79568816824E+02  0.20524469366E+03  0.17447735176E+03 0.  0.
         24    2    3    3    0    0 -0.34811414263E+02 -0.25361667353E+02  0.11365345633E+03  0.14538252008E+03  0.79774183007E+02 0.  0.
         -6    2    1    2    0  502  0.17253004530E+02  0.71092722695E+02  0.31511242824E+03  0.36593633157E+03  0.17106055930E+03 0.  0.
        -24    2    5    5    0    0 -0.79521362407E+01 -0.26317939124E+02  0.15497209533E+03  0.17675083429E+03  0.80427835359E+02 0.  0.
          5    1    3    3  501    0  0.17558409733E+02 -0.45731055342E+02 -0.34084639507E+02  0.59862173578E+02  0.47000000000E+01 0. -1.
        -13    1    4    4    0    0 -0.24974466172E+02 -0.54159925467E+02  0.82827295000E+02  0.10206557835E+03  0.00000000000E+00 0.  1.
         14    1    4    4    0    0 -0.98369480914E+01  0.28798258115E+02  0.30826161332E+02  0.43316941728E+02  0.00000000000E+00 0. -1.
         -5    1    5    5    0  502  0.25205140771E+02  0.97410661819E+02  0.16014033290E+03  0.18918549728E+03  0.47000000000E+01 0.  1.
         11    1    6    6    0    0 -0.37933337058E+02 -0.23473241617E+02  0.47601867469E+02  0.65237021077E+02  0.00000000000E+00 0. -1.
        -12    1    6    6    0    0  0.29981200818E+02 -0.28446975071E+01  0.10737022786E+03  0.11151381322E+03  0.00000000000E+00 0.  1.
</event>
<event>
12    1  0.1629553E-001  0.2168488E+03  0.7818608E-02  0.1136502E+00
         21   -1    0    0  501  502  0.00000000000E+00  0.00000000000E+00  0.40756966391E+02  0.40756966391E+02  0.00000000000E+00 0. -1.
         21   -1    0    0  502  503 -0.00000000000E+00 -0.00000000000E+00 -0.11485452076E+04  0.11485452076E+04  0.00000000000E+00 0.  1.
         -6    2    1    2    0  503  0.30632318752E+02  0.12816836891E+03 -0.57500338931E+03  0.61407779959E+03  0.17057894504E+03 0.  0.
        -24    2    3    3    0    0  0.34801114104E+02  0.21630918150E+02 -0.13607856642E+03  0.16236472981E+03  0.78523341000E+02 0.  0.
          6    2    1    2  501    0 -0.30632318752E+02 -0.12816836891E+03 -0.53278485189E+03  0.57522437440E+03  0.17221472862E+03 0.  0.
         24    2    5    5    0    0  0.14712544024E+02 -0.25054043315E+01 -0.21814766036E+03  0.23336769457E+03  0.81543504620E+02 0.  0.
          5    1    5    5  501    0 -0.45344862776E+02 -0.12566296458E+03 -0.31463719153E+03  0.34185667983E+03  0.47000000000E+01 0. -1.
        -11    1    6    6    0    0  0.66017329397E+01 -0.27542783462E+01 -0.22352089949E+03  0.22363533137E+03  0.00000000000E+00 0.  1.
         12    1    6    6    0    0  0.81108110842E+01  0.24887401471E+00  0.53732391311E+01  0.97323632011E+01  0.00000000000E+00 0. -1.
         -5    1    3    3    0  503 -0.41687953519E+01  0.10653745076E+03 -0.43892482288E+03  0.45171306978E+03  0.47000000000E+01 0.  1.
         11    1    4    4    0    0  0.36782969412E+02 -0.23021760309E+02 -0.58590549794E+02  0.72909812863E+02  0.00000000000E+00 0. -1.
        -12    1    4    4    0    0 -0.19818553076E+01  0.44652678459E+02 -0.77488016630E+02  0.89454916943E+02  0.00000000000E+00 0.  1.
</event>
<event>
12    1  0.1629553E-001  0.3134092E+03  0.7818608E-02  0.1078761E+00
         21   -1    0    0  501  502  0.00000000000E+00  0.00000000000E+00  0.14648882466E+04  0.14648882466E+04  0.00000000000E+00 0. -1.
         21   -1    0    0  502  503 -0.00000000000E+00 -0.00000000000E+00 -0.88659363769E+02  0.88659363769E+02  0.00000000000E+00 0.  1.
         -6    2    1    2    0  503 -0.89938928940E+02 -0.24577504313E+03  0.30431043211E+03  0.43684114052E+03  0.17242668063E+03 0.  0.
        -24    2    3    3    0    0 -0.26224653517E+02 -0.43526104468E+02  0.56480408962E+02  0.11064188783E+03  0.80432185866E+02 0.  0.
          6    2    1    2  501    0  0.89938928940E+02  0.24577504313E+03  0.10719184507E+04  0.11167064699E+04  0.17184234650E+03 0.  0.
         24    2    5    5    0    0  0.42673641302E+02  0.14902347736E+03  0.87503391834E+03  0.89225050093E+03  0.79984759177E+02 0.  0.
          5    1    5    5  501    0  0.47265287638E+02  0.96751565771E+02  0.19688453241E+03  0.22445596895E+03  0.47000000000E+01 0. -1.
        -11    1    6    6    0    0 -0.27986829850E+01  0.85248710471E+02  0.29941527429E+03  0.31132729039E+03  0.00000000000E+00 0.  1.
         12    1    6    6    0    0  0.45472324287E+02  0.63774766887E+02  0.57561864405E+03  0.58092321054E+03  0.00000000000E+00 0. -1.
         -5    1    3    3    0  503 -0.63714275424E+02 -0.20224893866E+03  0.24783002315E+03  0.32619925269E+03  0.47000000000E+01 0.  1.
         13    1    4    4    0    0 -0.39799389691E+02 -0.53495578394E+02  0.18656308280E+02  0.69237462158E+02  0.00000000000E+00 0. -1.
        -14    1    4    4    0    0  0.13574736174E+02  0.99694739262E+01  0.37824100682E+02  0.41404425669E+02  0.00000000000E+00 0.  1.
</event>
<event>
12    1  0.1629553E-001  0.2251535E+03  0.7818608E-02  0.1130098E+00
         21   -1    0    0  503  502  0.00000000000E+00  0.00000000000E+00  0.20188230545E+03  0.20188230545E+03  0.00000000000E+00 0.  1.
         21   -1    0    0  501  503 -0.00000000000E+00 -0.00000000000E+00 -0.27773504867E+03  0.27773504867E+03  0.00000000000E+00 0.  1.
          6    2    1    2  501    0 -0.12780921562E+03  0.68799060187E+02  0.36327791545E+02  0.22806539219E+03  0.17212091214E+03 0.  0.
         24    2    3    3    0    0 -0.14582577927E+02  0.21531582480E+02 -0.29095356149E+02  0.88936803519E+02  0.79918424957E+02 0.  0.
         -6    2    1    2    0  502  0.12780921562E+03 -0.68799060187E+02 -0.11218053477E+03  0.25155196192E+03  0.17212033839E+03 0.  0.
        -24    2    5    5    0    0  0.26602700741E+02 -0.81842140628E+02 -0.88533043761E+02  0.14669885309E+03  0.79225084351E+02 0.  0.
          5    1    3    3  501    0 -0.11322663769E+03  0.47267477707E+02  0.65423147694E+02  0.13912858867E+03  0.47000000000E+01 0. -1.
        -11    1    4    4    0    0 -0.22870994034E+02  0.46060999582E+02 -0.20087810476E+01  0.51465845489E+02  0.00000000000E+00 0.  1.
         12    1    4    4    0    0  0.82884161066E+01 -0.24529417102E+02 -0.27086575101E+02  0.37470958030E+02  0.00000000000E+00 0. -1.
         -5    1    5    5    0  502  0.10120651488E+03  0.13043080441E+02 -0.23647491007E+02  0.10485310883E+03  0.47000000000E+01 0.  1.
         13    1    6    6    0    0 -0.21977384610E+02 -0.48923294403E+01 -0.33459798863E+02  0.40329870588E+02  0.00000000000E+00 0. -1.
        -14    1    6    6    0    0  0.48580085351E+02 -0.76949811187E+02 -0.55073244898E+02  0.10636898250E+03  0.00000000000E+00 0.  1.
</event>
<event>
12    1  0.1629553E-001  0.1722449E+03  0.7818608E-02  0.1175801E+00
         21   -1    0    0  501  502  0.00000000000E+00  0.00000000000E+00  0.41574277213E+02  0.41574277213E+02  0.00000000000E+00 0.  1.
         21   -1    0    0  502  503 -0.00000000000E+00 -0.00000000000E+00 -0.88177308141E+03  0.88177308141E+03  0.00000000000E+00 0.  1.
         -6    2    1    2    0  503  0.19733467561E+01 -0.51990316352E+01 -0.21481182906E+03  0.27467396409E+03  0.17108693877E+03 0.  0.
        -24    2    3    3    0    0 -0.47128613138E+02 -0.39279285555E+02 -0.86341097616E+02  0.13290201690E+03  0.80275728012E+02 0.  0.
          6    2    1    2  501    0 -0.19733467561E+01  0.51990316352E+01 -0.62538697514E+03  0.64867339454E+03  0.17215510471E+03 0.  0.
         24    2    5    5    0    0 -0.19531770938E+02  0.60059806583E+02 -0.50183017167E+03  0.51226820193E+03  0.81218957527E+02 0.  0.
          5    1    5    5  501    0  0.17558424182E+02 -0.54860774948E+02 -0.12355680347E+03  0.13640519261E+03  0.47000000000E+01 0. -1.
        -11    1    6    6    0    0  0.27184095434E+02  0.69219917872E+01 -0.21587499059E+03  0.21768991841E+03  0.00000000000E+00 0.  1.
         12    1    6    6    0    0 -0.46715866372E+02  0.53137814796E+02 -0.28595518108E+03  0.29457828352E+03  0.00000000000E+00 0. -1.
         -5    1    3    3    0  503  0.49101959895E+02  0.34080253920E+02 -0.12847073144E+03  0.14177194719E+03  0.47000000000E+01 0.  1.
         11    1    4    4    0    0 -0.24095954530E+02 -0.13204140738E+02 -0.93438299815E+02  0.97394456874E+02  0.00000000000E+00 0. -1.
        -12    1    4    4    0    0 -0.23032658608E+02 -0.26075144817E+02  0.70972021994E+01  0.35507560024E+02  0.00000000000E+00 0.  1.
</event>
<event>
12    1  0.1629553E-001  0.2486161E+03  0.7818608E-02  0.1114361E+00
         21   -1    0    0  503  502  0.00000000000E+00  0.00000000000E+00  0.10245403520E+04  0.10245403520E+04  0.00000000000E+00 0.  1.
         21   -1    0    0  501  503 -0.00000000000E+00 -0.00000000000E+00 -0.63817867230E+02  0.63817867230E+02  0.00000000000E+00 0.  1.
          6    2    1    2  501    0 -0.54678570047E+02  0.16896890031E+03  0.34929434284E+03  0.42873825428E+03  0.17398194576E+03 0.  0.
         24    2    3    3    0    0  0.64350182353E+01  0.72785566668E+02  0.26790021712E+03  0.28861974000E+03  0.78687227732E+02 0.  0.
         -6    2    1    2    0  502  0.54678570047E+02 -0.16896890031E+03  0.61142814191E+03  0.65961996493E+03  0.17237717401E+03 0.  0.
        -24    2    5    5    0    0 -0.13929547035E+01 -0.17777431648E+03  0.44939280014E+03  0.48786696430E+03  0.66743075417E+02 0.  0.
          5    1    3    3  501    0 -0.61113588282E+02  0.96183333641E+02  0.81394125717E+02  0.14011851428E+03  0.47000000000E+01 0. -1.
        -13    1    4    4    0    0 -0.26646763978E+02  0.42662807601E+02  0.73012497574E+02  0.88662224114E+02  0.00000000000E+00 0.  1.
         14    1    4    4    0    0  0.33081782213E+02  0.30122759066E+02  0.19488771955E+03  0.19995751588E+03  0.00000000000E+00 0. -1.
         -5    1    5    5    0  502  0.56071524750E+02  0.88054161736E+01  0.16203534177E+03  0.17175300063E+03  0.47000000000E+01 0.  1.
         13    1    6    6    0    0 -0.29145638563E+02 -0.11223851349E+03  0.31722652728E+03  0.33775674940E+03  0.00000000000E+00 0. -1.
        -14    1    6    6    0    0  0.27752683859E+02 -0.65535802988E+02  0.13216627286E+03  0.15011021489E+03  0.00000000000E+00 0.  1.
</event>
<event>
12    1  0.1629553E-001  0.2520186E+03  0.7818608E-02  0.1112317E+00
         21   -1    0    0  501  502  0.00000000000E+00  0.00000000000E+00  0.10781976342E+03  0.10781976342E+03  0.00000000000E+00 0.  1.
         21   -1    0    0  502  503 -0.00000000000E+00 -0.00000000000E+00 -0.10213918794E+04  0.10213918794E+04  0.00000000000E+00 0.  1.
         -6    2    1    2    0  503 -0.17252492188E+03 -0.57114031927E+02 -0.86758167748E+02  0.26484210385E+03  0.17201017116E+03 0.  0.
        -24    2    3    3    0    0 -0.70893198210E+02 -0.53175913020E+02  0.15699510295E+02  0.12039771376E+03  0.79972567652E+02 0.  0.
          6    2    1    2  501    0  0.17252492188E+03  0.57114031927E+02 -0.82681394819E+03  0.86436953892E+03  0.17460393349E+03 0.  0.
         24    2    5    5    0    0  0.59960949104E+02 -0.34252657922E+01 -0.19033216269E+03  0.21516478863E+03  0.80389714819E+02 0.  0.
          5    1    5    5  501    0  0.11256397278E+03  0.60539297719E+02 -0.63648178550E+03  0.64920475029E+03  0.47000000000E+01 0. -1.
        -11    1    6    6    0    0  0.29184048282E+02  0.32708537690E+01 -0.17945594377E+03  0.18184290724E+03  0.00000000000E+00 0.  1.
         12    1    6    6    0    0  0.30776900822E+02 -0.66961195612E+01 -0.10876218919E+02  0.33321881390E+02  0.00000000000E+00 0. -1.
         -5    1    3    3    0  503 -0.10163172367E+03 -0.39381189071E+01 -0.10245767804E+03  0.14444439009E+03  0.47000000000E+01 0.  1.
         13    1    4    4    0    0 -0.41575046169E+02  0.50716243433E+01 -0.19604610851E+02  0.46244422410E+02  0.00000000000E+00 0. -1.
        -14    1    4    4    0    0 -0.29318152041E+02 -0.58247537363E+02  0.35304121146E+02  0.74153291349E+02  0.00000000000E+00 0.  1.
</event>
<event>
12    1  0.1629553E-001  0.1805490E+03  0.7818608E-02  0.1167429E+00
         21   -1    0    0  501  502  0.00000000000E+00  0.00000000000E+00  0.57575321414E+03  0.57575321414E+03  0.00000000000E+00 0. -1.
         21   -1    0    0  502  503 -0.00000000000E+00 -0.00000000000E+00 -0.14970919566E+03  0.14970919566E+03  0.00000000000E+00 0. -1.
         -6    2    1    2    0  503 -0.34485332509E+02 -0.43141331821E+02 -0.73465929430E+02  0.19432390032E+03  0.17121367579E+03 0.  0.
        -24    2    3    3    0    0  0.16032546535E+02 -0.66147780720E+02 -0.88790765500E+02  0.13654593398E+03  0.78284229607E+02 0.  0.
          6    2    1    2  501    0  0.34485332509E+02  0.43141331821E+02  0.49950994791E+03  0.53113850948E+03  0.17189390776E+03 0.  0.
         24    2    5    5    0    0  0.80906925896E+02  0.45725847047E+02  0.26312170568E+03  0.29017557641E+03  0.79574175437E+02 0.  0.
          5    1    5    5  501    0 -0.46421593388E+02 -0.25845152260E+01  0.23638824223E+03  0.24096293307E+03  0.47000000000E+01 0. -1.
        -11    1    6    6    0    0  0.31889643614E+02  0.12025288470E+02  0.19225611505E+02  0.39130308846E+02  0.00000000000E+00 0.  1.
         12    1    6    6    0    0  0.49017282282E+02  0.33700558577E+02  0.24389609418E+03  0.25104526756E+03  0.00000000000E+00 0. -1.
         -5    1    3    3    0  503 -0.50517879043E+02  0.23006448899E+02  0.15324836070E+02  0.57777966342E+02  0.47000000000E+01 0.  1.
         11    1    4    4    0    0  0.31879277848E+02  0.10553558158E+01 -0.14234216899E+02  0.34928714015E+02  0.00000000000E+00 0. -1.
        -12    1    4    4    0    0 -0.15846731313E+02 -0.67203136536E+02 -0.74556548600E+02  0.10161721996E+03  0.00000000000E+00 0.  1.
</event>
<event>
12    1  0.1629553E-001  0.1752905E+03  0.7818608E-02  0.1172630E+00
         21   -1    0    0  503  502  0.00000000000E+00  0.00000000000E+00  0.19994758675E+03  0.19994758675E+03  0.00000000000E+00 0. -1.
         21   -1    0    0  501  503 -0.00000000000E+00 -0.00000000000E+00 -0.18349326518E+03  0.18349326518E+03  0.00000000000E+00 0. -1.
          6    2    1    2  501    0 -0.31514089499E+02 -0.22477362880E+02 -0.69895313060E+02  0.18871170325E+03  0.17096310268E+03 0.  0.
         24    2    3    3    0    0 -0.50877943960E+02  0.21386592372E+02 -0.93974114416E+02  0.13485184710E+03  0.79422509226E+02 0.  0.
         -6    2    1    2    0  502  0.31514089499E+02  0.22477362880E+02  0.86349634634E+02  0.19472914868E+03  0.17019051755E+03 0.  0.
        -24    2    5    5    0    0 -0.42691672316E+02  0.33261385207E+02  0.60185448540E+02  0.11517134040E+03  0.81934429897E+02 0.  0.
          5    1    3    3  501    0  0.19363854462E+02 -0.43863955251E+02  0.24078801356E+02  0.53859856151E+02  0.47000000000E+01 0. -1.
        -13    1    4    4    0    0 -0.13462055110E+01 -0.19138784567E+02  0.22198554158E+01  0.19314064876E+02  0.00000000000E+00 0.  1.
         14    1    4    4    0    0 -0.49531738449E+02  0.40525376938E+02 -0.96193969832E+02  0.11553778223E+03  0.00000000000E+00 0. -1.
         -5    1    5    5    0  502  0.74205761814E+02 -0.10784022327E+02  0.26164186094E+02  0.79557808278E+02  0.47000000000E+01 0.  1.
         13    1    6    6    0    0 -0.17537613850E+02  0.76773760474E+01  0.74217167319E+02  0.76646578054E+02  0.00000000000E+00 0. -1.
        -14    1    6    6    0    0 -0.25154058465E+02  0.25584009160E+02 -0.14031718779E+02  0.38524762346E+02  0.00000000000E+00 0.  1.
</event>
<event>
12    1  0.1629553E-001  0.1761678E+03  0.7818608E-02  0.1175593E+00
         21   -1    0    0  501  502  0.00000000000E+00  0.00000000000E+00  0.17257468785E+04  0.17257468785E+04  0.00000000000E+00 0. -1.
         21   -1    0    0  502  503 -0.00000000000E+00 -0.00000000000E+00 -0.19341702660E+02  0.19341702660E+02  0.00000000000E+00 0. -1.
         -6    2    1    2    0  503  0.72335068277E+01  0.75662307239E+01  0.12238075113E+04  0.12364222258E+04  0.17585654422E+03 0.  0.
        -24    2    3    3    0    0  0.15904112184E+01  0.68545469191E+02  0.56202224091E+03  0.57179289585E+03  0.79856782537E+02 0.  0.
          6    2    1    2  501    0 -0.72335068277E+01 -0.75662307239E+01  0.48259766450E+03  0.50866635537E+03  0.16041004905E+03 0.  0.
         24    2    5    5    0    0 -0.50570863259E+02  0.28735667850E+02  0.23185988634E+03  0.25159150693E+03  0.78461000820E+02 0.  0.
          5    1    5    5  501    0  0.43337356431E+02 -0.36301898573E+02  0.25073777816E+03  0.25707484844E+03  0.47000000000E+01 0. -1.
        -13    1    6    6    0    0  0.10372719707E+02 -0.16992179828E+02  0.68554610741E+02  0.71386708449E+02  0.00000000000E+00 0.  1.
         14    1    6    6    0    0 -0.60943582966E+02  0.45727847677E+02  0.16330527560E+03  0.18020479848E+03  0.00000000000E+00 0. -1.
         -5    1    3    3    0  503  0.56430956093E+01 -0.60979238467E+02  0.66178527042E+03  0.66462932993E+03  0.47000000000E+01 0.  1.
         13    1    4    4    0    0  0.17158262861E+02 -0.12427014867E+02  0.16045503083E+03  0.16184762464E+03  0.00000000000E+00 0. -1.
        -14    1    4    4    0    0 -0.15567851643E+02  0.80972484059E+02  0.40156721008E+03  0.40994527121E+03  0.00000000000E+00 0.  1.
</event>
<event>
12    1  0.1629553E-001  0.1744674E+03  0.7818608E-02  0.1173505E+00
         21   -1    0    0  503  502  0.00000000000E+00  0.00000000000E+00  0.45594395404E+03  0.45594395404E+03  0.00000000000E+00 0. -1.
         21   -1    0    0  501  503 -0.00000000000E+00 -0.00000000000E+00 -0.14034382191E+03  0.14034382191E+03  0.00000000000E+00 0. -1.
          6    2    1    2  501    0 -0.11847483196E+02  0.23097349993E+02 -0.58407446378E+02  0.18398455020E+03  0.17252546039E+03 0.  0.
         24    2    3    3    0    0 -0.62075657074E+02  0.26204559357E+02 -0.73250244509E+02  0.13130701364E+03  0.85649678217E+02 0.  0.
         -6    2    1    2    0  502  0.11847483196E+02 -0.23097349993E+02  0.37400757851E+03  0.41230322575E+03  0.17157631173E+03 0.  0.
        -24    2    5    5    0    0  0.73916460192E+02 -0.68142665184E+01  0.23043206981E+03  0.25497009697E+03  0.80004588852E+02 0.  0.
          5    1    3    3  501    0  0.50228173878E+02 -0.31072093637E+01  0.14842798131E+02  0.52677536555E+02  0.47000000000E+01 0. -1.
        -11    1    4    4    0    0 -0.48147646510E+01  0.13831906980E+02  0.17792408782E+02  0.23045030258E+02  0.00000000000E+00 0.  1.
         12    1    4    4    0    0 -0.57260892423E+02  0.12372652377E+02 -0.91042653291E+02  0.10826198338E+03  0.00000000000E+00 0. -1.
         -5    1    5    5    0  502 -0.62068976996E+02 -0.16283083475E+02  0.14357550870E+03  0.15733312878E+03  0.47000000000E+01 0.  1.
         13    1    6    6    0    0  0.47245565354E+02  0.31050342399E+02  0.16783938478E+03  0.17710541012E+03  0.00000000000E+00 0. -1.
        -14    1    6    6    0    0  0.26670894838E+02 -0.37864608917E+02  0.62592685026E+02  0.77864686853E+02  0.00000000000E+00 0.  1.
</event>
<event>
12    1  0.1629553E-001  0.1831826E+03  0.7818608E-02  0.1164826E+00
         21   -1    0    0  503  502  0.00000000000E+00  0.00000000000E+00  0.42865526020E+03  0.42865526020E+03  0.00000000000E+00 0. -1.
         21   -1    0    0  501  503 -0.00000000000E+00 -0.00000000000E+00 -0.80075389502E+02  0.80075389502E+02  0.00000000000E+00 0.  1.
          6    2    1    2  501    0 -0.60700594782E+02 -0.32487726592E+01  0.13507522388E+03  0.22759875815E+03  0.17280266745E+03 0.  0.
         24    2    3    3    0    0 -0.42399548579E+02  0.46348198592E+02  0.23420764186E+02  0.10397191552E+03  0.79471691754E+02 0.  0.
         -6    2    1    2    0  502  0.60700594782E+02  0.32487726592E+01  0.21350464682E+03  0.28113189155E+03  0.17249866522E+03 0.  0.
        -24    2    5    5    0    0  0.98698363194E+02  0.10304778748E+02  0.20736376348E+03  0.24171846650E+03  0.74702953614E+02 0.  0.
          5    1    3    3  501    0 -0.18301046203E+02 -0.49596971251E+02  0.11165445969E+03  0.12362684263E+03  0.47000000000E+01 0. -1.
        -13    1    4    4    0    0 -0.34430604505E+02 -0.16211811177E+02  0.11807629800E+02  0.39846072199E+02  0.00000000000E+00 0.  1.
         14    1    4    4    0    0 -0.79689440746E+01  0.62560009769E+02  0.11613134386E+02  0.64125843325E+02  0.00000000000E+00 0. -1.
         -5    1    5    5    0  502 -0.37997768412E+02 -0.70560060884E+01  0.61408833413E+01  0.39413425054E+02  0.47000000000E+01 0.  1.
         13    1    6    6    0    0  0.52406837891E+02 -0.28628859467E+02  0.13350420822E+03  0.14625136534E+03  0.00000000000E+00 0. -1.
        -14    1    6    6    0    0  0.46291525304E+02  0.38933638215E+02  0.73859555262E+02  0.95467101156E+02  0.00000000000E+00 0.  1.
</event>
<event>
12    1  0.1629553E-001  0.2462712E+03  0.7818608E-02  0.1115853E+00
         21   -1    0    0  501  502  0.00000000000E+00  0.00000000000E+00  0.63489393035E+03  0.63489393035E+03  0.00000000000E+00 0. -1.
         21   -1    0    0  502  503 -0.00000000000E+00 -0.00000000000E+00 -0.10771929699E+03  0.10771929699E+03  0.00000000000E+00 0. -1.
         -6    2    1    2    0  503 -0.17045769174E+03  0.33486384521E+02  0.13611921060E+03  0.28047271260E+03  0.17308766680E+03 0.  0.
        -24    2    3    3    0    0 -0.93079967663E+02  0.84640471266E+02  0.10760647767E+03  0.18331758555E+03  0.78729240930E+02 0.  0.
          6    2    1    2  501    0  0.17045769174E+03 -0.33486384521E+02  0.39105542276E+03  0.46214051474E+03  0.17456330965E+03 0.  0.
         24    2    5    5    0    0  0.18238840855E+03 -0.57117710476E+02  0.38041444415E+03  0.43322508640E+03  0.80254979609E+02 0.  0.
          5    1    5    5  501    0 -0.11930716812E+02  0.23631325956E+02  0.10640978611E+02  0.28915428336E+02  0.47000000000E+01 0. -1.
        -13    1    6    6    0    0  0.95094420760E+02 -0.50335358971E+02  0.28020868871E+03  0.30015580363E+03  0.00000000000E+00 0.  1.
         14    1    6    6    0    0  0.87293987790E+02 -0.67823515053E+01  0.10020575543E+03  0.13306928277E+03  0.00000000000E+00 0. -1.
         -5    1    3    3    0  503 -0.77377724075E+02 -0.51154086745E+02  0.28512732925E+02  0.97155127053E+02  0.47000000000E+01 0.  1.
         11    1    4    4    0    0 -0.17329188012E+02  0.56871622547E+02  0.76412214490E+02  0.96816882472E+02  0.00000000000E+00 0. -1.
        -12    1    4    4    0    0 -0.75750779651E+02  0.27768848719E+02  0.31194263180E+02  0.86500703074E+02  0.00000000000E+00 0.  1.
</event>
<event>
12    1  0.1629553E-001  0.1976484E+03  0.7818608E-02  0.1151798E+00
         21   -1    0    0  503  502  0.00000000000E+00  0.00000000000E+00  0.29000276944E+03  0.29000276944E+03  0.00000000000E+00 0.  1.
         21   -1    0    0  501  503 -0.00000000000E+00 -0.00000000000E+00 -0.23743705839E+03  0.23743705839E+03  0.00000000000E+00 0. -1.
          6    2    1    2  501    0  0.96540375202E+02 -0.72452729821E+01 -0.14733581924E+03  0.24652128435E+03  0.17231471784E+03 0.  0.
         24    2    3    3    0    0  0.66044594407E+02  0.58177528215E+02 -0.60539317402E+02  0.13353518656E+03  0.80125675403E+02 0.  0.
         -6    2    1    2    0  502 -0.96540375202E+02  0.72452729821E+01  0.19990153029E+03  0.28091854347E+03  0.17199438428E+03 0.  0.
        -24    2    5    5    0    0 -0.23324868405E+02  0.51942686206E+02  0.16197450975E+03  0.18700944874E+03  0.74126243492E+02 0.  0.
          5    1    3    3  501    0  0.30495780795E+02 -0.65422801197E+02 -0.86796501842E+02  0.11298609779E+03  0.47000000000E+01 0. -1.
        -13    1    4    4    0    0 -0.18148070113E+02  0.14035754193E+02 -0.51511443033E+01  0.23513594626E+02  0.00000000000E+00 0.  1.
         14    1    4    4    0    0  0.84192664520E+02  0.44141774022E+02 -0.55388173098E+02  0.11002159194E+03  0.00000000000E+00 0. -1.
         -5    1    5    5    0  502 -0.73215506798E+02 -0.44697413224E+02  0.37927020546E+02  0.93909094725E+02  0.47000000000E+01 0.  1.
         13    1    6    6    0    0 -0.45868853146E+02  0.44553020245E+02  0.84398638623E+02  0.10588698458E+03  0.00000000000E+00 0. -1.
        -14    1    6    6    0    0  0.22543984741E+02  0.73896659613E+01  0.77575871126E+02  0.81122464164E+02  0.00000000000E+00 0.  1.
</event>
<event>
12    1  0.1629553E-001  0.1735428E+03  0.7818608E-02  0.1174415E+00
         21   -1    0    0  503  502  0.00000000000E+00  0.00000000000E+00  0.48460940912E+03  0.48460940912E+03  0.00000000000E+00 0.  1.
         21   -1    0    0  501  503 -0.00000000000E+00 -0.00000000000E+00 -0.63128395371E+02  0.63128395371E+02  0.00000000000E+00 0.  1.
          6    2    1    2  501    0  0.14538167968E+02  0.22073087133E+02  0.25022009389E+03  0.30451143217E+03  0.17151832973E+03 0.  0.
         24    2    3    3    0    0  0.53239150373E+02 -0.31737000120E+02  0.18880128972E+03  0.21402579223E+03  0.79495084328E+02 0.  0.
         -6    2    1    2    0  502 -0.14538167968E+02 -0.22073087133E+02  0.17126091986E+03  0.24322637232E+03  0.17067567494E+03 0.  0.
        -24    2    5    5    0    0 -0.55566565139E+02 -0.60240662192E+02  0.13296991428E+03  0.17519414269E+03  0.79343613389E+02 0.  0.
          5    1    3    3  501    0 -0.38700982405E+02  0.53810087253E+02  0.61418804172E+02  0.90485639939E+02  0.47000000000E+01 0. -1.
        -11    1    4    4    0    0  0.14086292369E+02  0.19196296672E+02  0.13606581399E+02  0.27423721410E+02  0.00000000000E+00 0.  1.
         12    1    4    4    0    0  0.39152858004E+02 -0.50933296792E+02  0.17519470832E+03  0.18660207082E+03  0.00000000000E+00 0. -1.
         -5    1    5    5    0  502  0.41028397171E+02  0.38167575059E+02  0.38291005575E+02  0.68032229629E+02  0.47000000000E+01 0.  1.
         13    1    6    6    0    0 -0.23358071359E+02  0.37722867183E+01 -0.54207774304E+00  0.23666928254E+02  0.00000000000E+00 0. -1.
        -14    1    6    6    0    0 -0.32208493780E+02 -0.64012948911E+02  0.13351199203E+03  0.15152721444E+03  0.00000000000E+00 0.  1.
</event>
<event>
12    1  0.1629553E-001  0.1919629E+03  0.7818608E-02  0.1156751E+00
         21   -1    0    0  503  502  0.00000000000E+00  0.00000000000E+00  0.52892987017E+03  0.52892987017E+03  0.00000000000E+00 0. -1.
         21   -1    0    0  501  503 -0.00000000000E+00 -0.00000000000E+00 -0.19825903000E+03  0.19825903000E+03  0.00000000000E+00 0. -1.
          6    2    1    2  501    0 -0.70697067334E+02 -0.46042906873E+02 -0.12754492158E+03  0.23047227204E+03  0.17242893189E+03 0.  0.
         24    2    3    3    0    0  0.43537919141E+01 -0.77005205616E+02 -0.74621828247E+02  0.13344526948E+03  0.79312454883E+02 0.  0.
         -6    2    1    2    0  502  0.70697067334E+02  0.46042906873E+02  0.45821576175E+03  0.49671662813E+03  0.17218507408E+03 0.  0.
        -24    2    5    5    0    0  0.74984349393E+02  0.53158580287E+02  0.46754217719E+03  0.48337175569E+03  0.81265487377E+02 0.  0.
          5    1    3    3  501    0 -0.75050859248E+02  0.30962298743E+02 -0.52923093337E+02  0.97027002560E+02  0.47000000000E+01 0. -1.
        -11    1    4    4    0    0  0.32956857672E+02 -0.16594687830E+02 -0.55251725046E+01  0.37310396178E+02  0.00000000000E+00 0.  1.
         12    1    4    4    0    0 -0.28603065758E+02 -0.60410517786E+02 -0.69096655743E+02  0.96134873301E+02  0.00000000000E+00 0. -1.
         -5    1    5    5    0  502 -0.42872820596E+01 -0.71156734144E+01 -0.93264154310E+01  0.13344872438E+02  0.47000000000E+01 0.  1.
         11    1    6    6    0    0  0.61308691915E+02  0.11972625037E+02  0.14445150051E+03  0.15737959034E+03  0.00000000000E+00 0. -1.
        -12    1    6    6    0    0  0.13675657478E+02  0.41185955250E+02  0.32309067668E+03  0.32599216535E+03  0.00000000000E+00 0.  1.
</event>
<event>
12    1  0.1629553E-001  0.1968765E+03  0.7818608E-02  0.1153358E+00
         21   -1    0    0  501  502  0.00000000000E+00  0.00000000000E+00  0.16519556671E+03  0.16519556671E+03  0.00000000000E+00 0. -1.
         21   -1    0    0  502  503 -0.00000000000E+00 -0.00000000000E+00 -0.26517092187E+03  0.26517092187E+03  0.00000000000E+00 0. -1.
         -6    2    1    2    0  503  0.55240439618E+02 -0.70459958818E+02 -0.12947180022E+03  0.23563380560E+03  0.17534032999E+03 0.  0.
        -24    2    3    3    0    0 -0.12666965572E+01 -0.36103618950E+02 -0.15082882678E+01  0.91515226229E+02  0.84069530014E+02 0.  0.
          6    2    1    2  501    0 -0.55240439618E+02  0.70459958818E+02  0.29496445061E+02  0.19473268298E+03  0.17039561492E+03 0.  0.
         24    2    5    5    0    0 -0.65197203539E+02 -0.14749022873E+02 -0.20752653678E+01  0.10319815066E+03  0.78596072087E+02 0.  0.
          5    1    5    5  501    0  0.99567639213E+01  0.85208981691E+02  0.31571710429E+02  0.91534532326E+02  0.47000000000E+01 0. -1.
        -11    1    6    6    0    0  0.16266983033E+02 -0.13916235073E+02 -0.36401835738E+01  0.21714678723E+02  0.00000000000E+00 0.  1.
         12    1    6    6    0    0 -0.81464186572E+02 -0.83278780030E+00  0.15649182060E+01  0.81483471934E+02  0.00000000000E+00 0. -1.
         -5    1    3    3    0  503  0.56507136175E+02 -0.34356339868E+02 -0.12796351195E+03  0.14411857937E+03  0.47000000000E+01 0.  1.
         11    1    4    4    0    0  0.21374654456E+02 -0.14904723418E+02 -0.36441437466E+02  0.44799609350E+02  0.00000000000E+00 0. -1.
        -12    1    4    4    0    0 -0.22641351014E+02 -0.21198895532E+02  0.34933149198E+02  0.46715616879E+02  0.00000000000E+00 0.  1.
</event>
<event>
12    1  0.1629553E-001  0.1806632E+03  0.7818608E-02  0.1167402E+00
         21   -1    0    0  503  502  0.00000000000E+00  0.00000000000E+00  0.63537076889E+03  0.63537076889E+03  0.00000000000E+00 0. -1.
         21   -1    0    0  501  503 -0.00000000000E+00 -0.00000000000E+00 -0.22347254409E+03  0.22347254409E+03  0.00000000000E+00 0. -1.
          6    2    1    2  501    0 -0.53124348919E+02 -0.44139007410E+01 -0.17133459147E+03  0.24827003501E+03  0.17158318415E+03 0.  0.
         24    2    3    3    0    0 -0.93468414723E+02 -0.32021473899E+02 -0.97333731881E+02  0.15945540243E+03  0.78679417006E+02 0.  0.
         -6    2    1    2    0  502  0.53124348919E+02  0.44139007410E+01  0.58323281627E+03  0.61057327797E+03  0.17261961309E+03 0.  0.
        -24    2    5    5    0    0  0.64725264131E+01 -0.55934114007E+02  0.23822735623E+03  0.25720500988E+03  0.78940643186E+02 0.  0.
          5    1    3    3  501    0  0.40344065804E+02  0.27607573158E+02 -0.74000859586E+02  0.88814632582E+02  0.47000000000E+01 0. -1.
        -11    1    4    4    0    0 -0.32298777050E+02 -0.50248313417E+02 -0.30612985043E+02  0.67121225059E+02  0.00000000000E+00 0.  1.
         12    1    4    4    0    0 -0.61169637673E+02  0.18226839518E+02 -0.66720746839E+02  0.92334177370E+02  0.00000000000E+00 0. -1.
         -5    1    5    5    0  502  0.46651822506E+02  0.60348014748E+02  0.34500546004E+03  0.35336826808E+03  0.47000000000E+01 0.  1.
         13    1    6    6    0    0  0.36174126001E+02 -0.55241805283E+02  0.18204845530E+03  0.19365398142E+03  0.00000000000E+00 0. -1.
        -14    1    6    6    0    0 -0.29701599587E+02 -0.69230872383E+00  0.56178900928E+02  0.63551028464E+02  0.00000000000E+00 0.  1.
</event>
<event>
12    1  0.1629553E-001  0.1916515E+03  0.7818608E-02  0.1157020E+00
         21   -1    0    0  501  502  0.00000000000E+00  0.00000000000E+00  0.81501556380E+02  0.81501556380E+02  0.00000000000E+00 0. -1.
         21   -1    0    0  502  503 -0.00000000000E+00 -0.00000000000E+00 -0.47779693002E+03  0.47779693002E+03  0.00000000000E+00 0. -1.
         -6    2    1    2    0  503  0.38153630750E+02  0.77294233694E+02 -0.26520820286E+03  0.32710431177E+03  0.17097292714E+03 0.  0.
        -24    2    3    3    0    0  0.33281261922E+02  0.65207660365E+02 -0.28360959837E+03  0.30407114894E+03  0.81640541191E+02 0.  0.
          6    2    1    2  501    0 -0.38153630750E+02 -0.77294233694E+02 -0.13108717079E+03  0.23219417463E+03  0.17117298352E+03 0.  0.
         24    2    5    5    0    0 -0.84150133386E+02 -0.55590162106E+02 -0.12843085869E+03  0.18104839306E+03  0.78182632956E+02 0.  0.
          5    1    5    5  501    0  0.45996502636E+02 -0.21704071588E+02 -0.26563120986E+01  0.51145781568E+02  0.47000000000E+01 0. -1.
        -11    1    6    6    0    0 -0.58301837812E+02 -0.30761175290E+02 -0.12936819338E+03  0.14519464059E+03  0.00000000000E+00 0.  1.
         12    1    6    6    0    0 -0.25848295574E+02 -0.24828986816E+02  0.93733468938E+00  0.35853752477E+02  0.00000000000E+00 0. -1.
         -5    1    3    3    0  503  0.48723688281E+01  0.12086573329E+02  0.18401395516E+02  0.23033162826E+02  0.47000000000E+01 0.  1.
         11    1    4    4    0    0  0.49037962569E+02  0.71847652962E+02 -0.19071947818E+03  0.20962043404E+03  0.00000000000E+00 0. -1.
        -12    1    4    4    0    0 -0.15756700647E+02 -0.66399925969E+01 -0.92890120194E+02  0.94450714908E+02  0.00000000000E+00 0.  1.
</event>
<event>
12    1  0.1629553E-001  0.2113928E+03  0.7818608E-02  0.1141922E+00
         21   -1    0    0  503  502  0.00000000000E+00  0.00000000000E+00  0.11734575869E+04  0.11734575869E+04  0.00000000000E+00 0. -1.
         21   -1    0    0  501  503 -0.00000000000E+00 -0.00000000000E+00 -0.38128774098E+02  0.38128774098E+02  0.00000000000E+00 0.  1.
          6    2    1    2  501    0 -0.67615441691E+02 -0.81655599426E+02  0.46344432624E+03  0.50937958887E+03  0.18288640507E+03 0.  0.
         24    2    3    3    0    0  0.31764073301E+02 -0.23951833626E+02  0.26876990889E+03  0.28326848485E+03  0.80131915620E+02 0.  0.
         -6    2    1    2    0  502  0.67615441691E+02  0.81655599426E+02  0.67188448652E+03  0.70220677209E+03  0.17443079621E+03 0.  0.
        -24    2    5    5    0    0  0.48755059980E+02  0.28817429644E+02  0.16313341427E+03  0.19035002484E+03  0.80081964144E+02 0.  0.
          5    1    3    3  501    0 -0.99379514992E+02 -0.57703765800E+02  0.19467441735E+03  0.22611110401E+03  0.47000000000E+01 0. -1.
        -11    1    4    4    0    0  0.10003334836E+02 -0.39664597237E+02  0.59031770806E+02  0.71819892413E+02  0.00000000000E+00 0.  1.
         12    1    4    4    0    0  0.21760738465E+02  0.15712763611E+02  0.20973813808E+03  0.21144859244E+03  0.00000000000E+00 0. -1.
         -5    1    5    5    0  502  0.18860381712E+02  0.52838169782E+02  0.50875107225E+03  0.51185674724E+03  0.47000000000E+01 0.  1.
         13    1    6    6    0    0 -0.79284224955E+01 -0.82722066082E+01  0.89760621366E+02  0.90488996201E+02  0.00000000000E+00 0. -1.
        -14    1    6    6    0    0  0.56683482475E+02  0.37089636252E+02  0.73372792906E+02  0.99861028643E+02  0.00000000000E+00 0.  1.
</event>
<event>
12    1  0.1629553E-001  0.1901443E+03  0.7818608E-02  0.1158354E+00
         21   -1    0    0  503  502  0.00000000000E+00  0.00000000000E+00  0.28965632070E+03  0.28965632070E+03  0.00000000000E+00 0. -1.
         21   -1    0    0  501  503 -0.00000000000E+00 -0.00000000000E+00 -0.12539975555E+03  0.12539975555E+03  0.00000000000E+00 0. -1.
          6    2    1    2  501    0  0.10266310069E+02 -0.81290161781E+02  0.67262060588E+02  0.20169049842E+03  0.17158492018E+03 0.  0.
         24    2    3    3    0    0  0.46707500616E+02 -0.11591529810E+02 -0.75910297370E+01  0.93012373673E+02  0.79232087860E+02 0.  0.
         -6    2    1    2    0  502 -0.10266310069E+02  0.81290161781E+02  0.96994504559E+02  0.21336557783E+03  0.17147433733E+03 0.  0.
        -24    2    5    5    0    0 -0.40982378240E+02  0.10847938518E+03  0.46715852779E+02  0.14830588572E+03  0.79780527095E+02 0.  0.
          5    1    3    3  501    0 -0.36441190547E+02 -0.69698631971E+02  0.74853090325E+02  0.10867812475E+03  0.47000000000E+01 0. -1.
        -11    1    4    4    0    0  0.21856444791E+02  0.29963225441E+02 -0.21197614201E+02  0.42718121512E+02  0.00000000000E+00 0.  1.
         12    1    4    4    0    0  0.24851055825E+02 -0.41554755251E+02  0.13606584464E+02  0.50294252160E+02  0.00000000000E+00 0. -1.
         -5    1    5    5    0  502  0.30716068171E+02 -0.27189223395E+02  0.50278651779E+02  0.65059692110E+02  0.47000000000E+01 0.  1.
         13    1    6    6    0    0  0.12255408043E+02  0.78437389302E+02  0.30654887471E+02  0.85101945881E+02  0.00000000000E+00 0. -1.
        -14    1    6    6    0    0 -0.53237786282E+02  0.30041995873E+02  0.16060965308E+02  0.63203939837E+02  0.00000000000E+00 0.  1.
</event>
<event>
12    1  0.1629553E-001  0.2901097E+03  0.7818608E-02  0.1090304E+00
         21   -1    0    0  501  502  0.00000000000E+00  0.00000000000E+00  0.39412891817E+03  0.39412891817E+03  0.00000000000E+00 0. -1.
         21   -1    0    0  502  503 -0.00000000000E+00 -0.00000000000E+00 -0.21350068011E+03  0.21350068011E+03  0.00000000000E+00 0. -1.
         -6    2    1    2    0  503  0.17346542765E+03 -0.15572233253E+03  0.86932088881E+02  0.30276470322E+03  0.17253862755E+03 0.  0.
        -24    2    3    3    0    0  0.19912701551E+03 -0.13795167866E+03  0.59692449612E+02  0.26107056481E+03  0.76892244847E+02 0.  0.
          6    2    1    2  501    0 -0.17346542765E+03  0.15572233253E+03  0.93696149171E+02  0.30486489506E+03  0.17269608112E+03 0.  0.
         24    2    5    5    0    0 -0.45703305895E+02  0.11767162897E+03  0.81062553714E+02  0.17087715857E+03  0.81807464637E+02 0.  0.
          5    1    5    5  501    0 -0.12776212176E+03  0.38050703556E+02  0.12633595457E+02  0.13398773650E+03  0.47000000000E+01 0. -1.
        -13    1    6    6    0    0  0.15753337071E+02  0.21680226232E+01 -0.18083954367E+01  0.16004319574E+02  0.00000000000E+00 0.  1.
         14    1    6    6    0    0 -0.61456642967E+02  0.11550360635E+03  0.82870949151E+02  0.15487283899E+03  0.00000000000E+00 0. -1.
         -5    1    3    3    0  503 -0.25661587855E+02 -0.17770653871E+02  0.27239639269E+02  0.41694138410E+02  0.47000000000E+01 0.  1.
         13    1    4    4    0    0  0.53817637025E+02 -0.81851660025E+02  0.15655374853E+02  0.99202434777E+02  0.00000000000E+00 0. -1.
        -14    1    4    4    0    0  0.14530937848E+03 -0.56100018632E+02  0.44037074759E+02  0.16186813003E+03  0.00000000000E+00 0.  1.
</event>
<event>
12    1  0.1629553E-001  0.1781937E+03  0.7818608E-02  0.1170499E+00
         21   -1    0    0  503  502  0.00000000000E+00  0.00000000000E+00  0.29921393914E+02  0.29921393914E+02  0.00000000000E+00 0.  1.
         21   -1    0    0  501  503 -0.00000000000E+00 -0.00000000000E+00 -0.19567650779E+04  0.19567650779E+04  0.00000000000E+00 0.  1.
          6    2    1    2  501    0 -0.34301982718E+02  0.32799691985E+01 -0.16492197498E+04  0.16588184877E+04  0.17483022531E+03 0.  0.
         24    2    3    3    0    0 -0.11811340661E+02 -0.65789184867E+02 -0.10987692165E+04  0.11035759672E+04  0.78220198437E+02 0.  0.
         -6    2    1    2    0  502  0.34301982718E+02 -0.32799691985E+01 -0.27762393414E+03  0.32786798410E+03  0.17098240253E+03 0.  0.
        -24    2    5    5    0    0 -0.33177646699E+02 -0.93206378588E+01 -0.23195089898E+03  0.24602602539E+03  0.74430874665E+02 0.  0.
          5    1    3    3  501    0 -0.22490642057E+02  0.69069154065E+02 -0.55045053327E+03  0.55524252052E+03  0.47000000000E+01 0. -1.
        -11    1    4    4    0    0  0.27909713901E+02 -0.25915604196E+02 -0.24387494941E+03  0.24683103860E+03  0.00000000000E+00 0.  1.
         12    1    4    4    0    0 -0.39721054562E+02 -0.39873580670E+02 -0.85489426714E+03  0.85674492856E+03  0.00000000000E+00 0. -1.
         -5    1    5    5    0  502  0.67479629417E+02  0.60406686603E+01 -0.45673035160E+02  0.81841958706E+02  0.47000000000E+01 0.  1.
         11    1    6    6    0    0 -0.14043062267E+02  0.31441690388E+02 -0.71243679975E+02  0.79129320916E+02  0.00000000000E+00 0. -1.
        -12    1    6    6    0    0 -0.19134584432E+02 -0.40762328247E+02 -0.16070721900E+03  0.16689670448E+03  0.00000000000E+00 0.  1.
</event>
<event>
12    1  0.1629553E-001  0.1733550E+03  0.7818608E-02  0.1174405E+00
         21   -1    0    0  501  502  0.00000000000E+00  0.00000000000E+00  0.41614513087E+02  0.41614513087E+02  0.00000000000E+00 0. -1.
         21   -1    0    0  502  503 -0.00000000000E+00 -0.00000000000E+00 -0.12989595150E+04  0.12989595150E+04  0.00000000000E+00 0. -1.
         -6    2    1    2    0  503 -0.16848682836E+02  0.41378852301E+01 -0.10754503465E+04  0.10893325502E+04  0.17248465721E+03 0.  0.
        -24    2    3    3    0    0 -0.14088034969E+02 -0.62160257287E+02 -0.56898232382E+03  0.57851456613E+03  0.82920733732E+02 0.  0.
          6    2    1    2  501    0  0.16848682836E+02 -0.41378852301E+01 -0.18189465540E+03  0.25124147785E+03  0.17244017607E+03 0.  0.
         24    2    5    5    0    0  0.34118118563E+02  0.52431517671E+02 -0.15633680008E+03  0.18663788102E+03  0.80494680032E+02 0.  0.
          5    1    5    5  501    0 -0.17269435727E+02 -0.56569402901E+02 -0.25557855316E+02  0.64603596829E+02  0.47000000000E+01 0. -1.
        -13    1    6    6    0    0  0.65101511154E+01  0.69080753642E+02 -0.11341273645E+03  0.13295480954E+03  0.00000000000E+00 0.  1.
         14    1    6    6    0    0  0.27607967447E+02 -0.16649235971E+02 -0.42924063631E+02  0.53683071480E+02  0.00000000000E+00 0. -1.
         -5    1    3    3    0  503 -0.27606478669E+01  0.66298142517E+02 -0.50646802266E+03  0.51081798408E+03  0.47000000000E+01 0.  1.
         13    1    4    4    0    0 -0.14700296751E+02  0.13869814632E+02 -0.49024438406E+02  0.53027031253E+02  0.00000000000E+00 0. -1.
        -14    1    4    4    0    0  0.61226178213E+00 -0.76030071919E+02 -0.51995788542E+03  0.52548753488E+03  0.00000000000E+00 0.  1.
</event>
<event>
12    1  0.1629553E-001  0.1793354E+03  0.7818608E-02  0.1168895E+00
         21   -1    0    0  503  502  0.00000000000E+00  0.00000000000E+00  0.92801610226E+03  0.92801610226E+03  0.00000000000E+00 0.  1.
         21   -1    0    0  501  503 -0.00000000000E+00 -0.00000000000E+00 -0.43471599734E+02  0.43471599734E+02  0.00000000000E+00 0.  1.
          6    2    1    2  501    0  0.34158628110E+02 -0.21303370068E+02  0.21740485383E+03  0.28066463861E+03  0.17287892714E+03 0.  0.
         24    2    3    3    0    0 -0.13511105418E+02 -0.58111870466E+02  0.66221958102E+02  0.11785914990E+03  0.77109610433E+02 0.  0.
         -6    2    1    2    0  502 -0.34158628110E+02  0.21303370068E+02  0.66713964870E+03  0.69082306338E+03  0.17475854366E+03 0.  0.
        -24    2    5    5    0    0  0.50762923686E+02  0.13115831896E+02  0.37501336127E+03  0.38645722504E+03  0.77235135713E+02 0.  0.
          5    1    3    3  501    0  0.47669733528E+02  0.36808500398E+02  0.15118289572E+03  0.16280548871E+03  0.47000000000E+01 0. -1.
        -13    1    4    4    0    0  0.70519375850E+01 -0.63480793179E+02  0.71588315748E+02  0.95939709599E+02  0.00000000000E+00 0.  1.
         14    1    4    4    0    0 -0.20563043003E+02  0.53689227133E+01 -0.53663576457E+01  0.21919440299E+02  0.00000000000E+00 0. -1.
         -5    1    5    5    0  502 -0.84921551796E+02  0.81875381714E+01  0.29212628743E+03  0.30436583834E+03  0.47000000000E+01 0.  1.
         13    1    6    6    0    0  0.38679322095E+02 -0.16702832660E+02  0.87132362737E+02  0.96783899553E+02  0.00000000000E+00 0. -1.
        -14    1    6    6    0    0  0.12083601591E+02  0.29818664556E+02  0.28788099853E+03  0.28967332549E+03  0.00000000000E+00 0.  1.
</event>
<event>
12    1  0.1629553E-001  0.1793916E+03  0.7818608E-02  0.1168843E+00
         21   -1    0    0  503  502  0.00000000000E+00  0.00000000000E+00  0.14231679854E+03  0.14231679854E+03  0.00000000000E+00 0. -1.
         21   -1    0    0  501  503 -0.00000000000E+00 -0.00000000000E+00 -0.22540766339E+03  0.22540766339E+03  0.00000000000E+00 0.  1.
          6    2    1    2  501    0  0.13258322253E+01 -0.49057657053E+02 -0.56818609274E+02  0.18641929852E+03  0.17063232096E+03 0.  0.
         24    2    3    3    0    0 -0.34618910886E+02  0.18308263100E+02  0.34755378403E+01  0.89014648062E+02  0.79861547178E+02 0.  0.
         -6    2    1    2    0  502 -0.13258322253E+01  0.49057657053E+02 -0.26272255577E+02  0.18130516340E+03  0.17254831010E+03 0.  0.
        -24    2    5    5    0    0 -0.31816682815E+02  0.77955218788E+02  0.21384099928E+02  0.11760289293E+03  0.79270696057E+02 0.  0.
          5    1    3    3  501    0  0.35944743111E+02 -0.67365920153E+02 -0.60294147114E+02  0.97404650462E+02  0.47000000000E+01 0. -1.
        -13    1    4    4    0    0  0.18715608190E+02  0.25346156336E+02 -0.10884350271E+02  0.33334227331E+02  0.00000000000E+00 0.  1.
         14    1    4    4    0    0 -0.53334519076E+02 -0.70378932359E+01  0.14359888111E+02  0.55680420731E+02  0.00000000000E+00 0. -1.
         -5    1    5    5    0  502  0.30490850589E+02 -0.28897561735E+02 -0.47656355505E+02  0.63702270477E+02  0.47000000000E+01 0.  1.
         11    1    6    6    0    0 -0.53522084316E+02  0.31073522053E+02  0.53153316721E+00  0.61890708590E+02  0.00000000000E+00 0. -1.
        -12    1    6    6    0    0  0.21705401501E+02  0.46881696735E+02  0.20852566761E+02  0.55712184337E+02  0.00000000000E+00 0.  1.
</event>
<event>
12    1  0.1629553E-001  0.1910831E+03  0.7818608E-02  0.1157490E+00
         21   -1    0    0  503  502  0.00000000000E+00  0.00000000000E+00  0.55076443244E+03  0.55076443244E+03  0.00000000000E+00 0.  1.
         21   -1    0    0  501  503 -0.00000000000E+00 -0.00000000000E+00 -0.66300346657E+02  0.66300346657E+02  0.00000000000E+00 0. -1.
          6    2    1    2  501    0  0.79420335520E+02  0.21889711318E+02  0.23871903593E+03  0.30577170056E+03  0.17240303242E+03 0.  0.
         24    2    3    3    0    0  0.18343163559E+02 -0.38966100581E+02  0.17869332787E+03  0.20060979488E+03  0.80362651363E+02 0.  0.
         -6    2    1    2    0  502 -0.79420335520E+02 -0.21889711318E+02  0.24574504985E+03  0.31129307854E+03  0.17241230254E+03 0.  0.
        -24    2    5    5    0    0  0.24546421435E+02  0.32035584538E+01  0.98890344197E+02  0.12955933563E+03  0.79959562791E+02 0.  0.
          5    1    3    3  501    0  0.61077171961E+02  0.60855811899E+02  0.60025708068E+02  0.10516190568E+03  0.47000000000E+01 0. -1.
        -13    1    4    4    0    0  0.25638497929E+02  0.17264441902E+02  0.91696860748E+02  0.96766253422E+02  0.00000000000E+00 0.  1.
         14    1    4    4    0    0 -0.72953343702E+01 -0.56230542483E+02  0.86996467118E+02  0.10384354146E+03  0.00000000000E+00 0. -1.
         -5    1    5    5    0  502 -0.10396675695E+03 -0.25093269772E+02  0.14685470565E+03  0.18173374291E+03  0.47000000000E+01 0.  1.
         13    1    6    6    0    0  0.36329293711E+02  0.32466150876E+02  0.41197246537E+02  0.63805028458E+02  0.00000000000E+00 0. -1.
        -14    1    6    6    0    0 -0.11782872275E+02 -0.29262592422E+02  0.57693097660E+02  0.65754307174E+02  0.00000000000E+00 0.  1.
</event>
<event>
12    1  0.1629553E-001  0.2135175E+03  0.7818608E-02  0.1139127E+00
         21   -1    0    0  501  502  0.00000000000E+00  0.00000000000E+00  0.10931161201E+04  0.10931161201E+04  0.00000000000E+00 0. -1.
         21   -1    0    0  502  503 -0.00000000000E+00 -0.00000000000E+00 -0.43186690548E+02  0.43186690548E+02  0.00000000000E+00 0. -1.
         -6    2    1    2    0  503 -0.41716349722E+01 -0.12405305557E+03  0.40713302798E+03  0.45897207592E+03  0.17173089666E+03 0.  0.
        -24    2    3    3    0    0 -0.76406674547E+01 -0.15782963488E+03  0.32622342585E+03  0.37110089058E+03  0.79533477033E+02 0.  0.
          6    2    1    2  501    0  0.41716349722E+01  0.12405305557E+03  0.64279640160E+03  0.67733073476E+03  0.17373297672E+03 0.  0.
         24    2    5    5    0    0 -0.60285460544E+02  0.77509896554E+02  0.30705638337E+03  0.33227359072E+03  0.80498420484E+02 0.  0.
          5    1    5    5  501    0  0.64457095517E+02  0.46543159019E+02  0.33574001823E+03  0.34505714404E+03  0.47000000000E+01 0. -1.
        -13    1    6    6    0    0 -0.28195146474E+02 -0.92133990990E+01  0.11996694059E+03  0.12357960933E+03  0.00000000000E+00 0.  1.
         14    1    6    6    0    0 -0.32090314071E+02  0.86723295653E+02  0.18708944279E+03  0.20869398139E+03  0.00000000000E+00 0. -1.
         -5    1    3    3    0  503  0.34690324825E+01  0.33776579310E+02  0.80909602134E+02  0.87871185344E+02  0.47000000000E+01 0.  1.
         13    1    4    4    0    0 -0.20284661864E+02 -0.96157827931E+02  0.26761188072E+03  0.28508580126E+03  0.00000000000E+00 0. -1.
        -14    1    4    4    0    0  0.12643994409E+02 -0.61671806952E+02  0.58611545125E+02  0.86015089312E+02  0.00000000000E+00 0.  1.
</event>
<event>
12    1  0.1629553E-001  0.1854113E+03  0.7818608E-02  0.1162813E+00
         21   -1    0    0  503  502  0.00000000000E+00  0.00000000000E+00  0.18549661818E+03  0.18549661818E+03  0.00000000000E+00 0.  1.
         21   -1    0    0  501  503 -0.00000000000E+00 -0.00000000000E+00 -0.19721428945E+03  0.19721428945E+03  0.00000000000E+00 0.  1.
          6    2    1    2  501    0 -0.19481959218E+02 -0.65788658895E+02  0.42354301385E+02  0.18957591848E+03  0.17157344680E+03 0.  0.
         24    2    3    3    0    0  0.23343691229E+02 -0.97484688796E+02  0.46116966421E+02  0.13595761660E+03  0.79432401767E+02 0.  0.
         -6    2    1    2    0  502  0.19481959218E+02  0.65788658895E+02 -0.54071972656E+02  0.19313498915E+03  0.17224880677E+03 0.  0.
        -24    2    5    5    0    0  0.49095257491E+02  0.10477581062E+02  0.19781068815E+02  0.96116307960E+02  0.79542001228E+02 0.  0.
          5    1    3    3  501    0 -0.42825650447E+02  0.31696029902E+02 -0.37626650359E+01  0.53618301875E+02  0.47000000000E+01 0. -1.
        -13    1    4    4    0    0 -0.23323745683E+02 -0.64174607859E+02  0.12265957976E+02  0.69374571218E+02  0.00000000000E+00 0.  1.
         14    1    4    4    0    0  0.46667436912E+02 -0.33310080937E+02  0.33851008445E+02  0.66583045385E+02  0.00000000000E+00 0. -1.
         -5    1    5    5    0  502 -0.29613298273E+02  0.55311077832E+02 -0.73853041471E+02  0.97018681191E+02  0.47000000000E+01 0.  1.
         11    1    6    6    0    0 -0.20931695228E+02  0.46981370709E+01 -0.42231051133E+01  0.21864193876E+02  0.00000000000E+00 0. -1.
        -12    1    6    6    0    0  0.70026952719E+02  0.57794439915E+01  0.24004173929E+02  0.74252114084E+02  0.00000000000E+00 0.  1.
</event>
<event>
12    1  0.1629553E-001  0.1927803E+03  0.7818608E-02  0.1156851E+00
         21   -1    0    0  501  502  0.00000000000E+00  0.00000000000E+00  0.41167286377E+03  0.41167286377E+03  0.00000000000E+00 0.  1.
         21   -1    0    0  502  503 -0.00000000000E+00 -0.00000000000E+00 -0.93993364718E+02  0.93993364718E+02  0.00000000000E+00 0. -1.
         -6    2    1    2    0  503 -0.33196521822E+02  0.69999220406E+02  0.99006189211E+02  0.21671745774E+03  0.17652855596E+03 0.  0.
        -24    2    3    3    0    0 -0.20975424177E+02 -0.21195508047E+02  0.88949132440E+02  0.12404023230E+03  0.81146861218E+02 0.  0.
          6    2    1    2  501    0  0.33196521822E+02 -0.69999220406E+02  0.21867330984E+03  0.28894877075E+03  0.17225410230E+03 0.  0.
         24    2    5    5    0    0 -0.30490865420E+02 -0.73153927700E+02  0.17308812432E+03  0.21042403190E+03  0.89652576143E+02 0.  0.
          5    1    5    5  501    0  0.63687387243E+02  0.31547072937E+01  0.45585185525E+02  0.78524738848E+02  0.47000000000E+01 0. -1.
        -11    1    6    6    0    0 -0.46429567774E+01  0.17183761485E+02  0.64089036515E+02  0.66514985588E+02  0.00000000000E+00 0.  1.
         12    1    6    6    0    0 -0.25847908643E+02 -0.90337689184E+02  0.10899908780E+03  0.14390904631E+03  0.00000000000E+00 0. -1.
         -5    1    3    3    0  503 -0.12221097646E+02  0.91194728453E+02  0.10057056770E+02  0.92677225445E+02  0.47000000000E+01 0.  1.
         13    1    4    4    0    0 -0.29083495998E+01 -0.18824685464E+01 -0.15712034775E+02  0.16089444428E+02  0.00000000000E+00 0. -1.
        -14    1    4    4    0    0 -0.18067074577E+02 -0.19313039500E+02  0.10466116722E+03  0.10795078787E+03  0.00000000000E+00 0.  1.
</event>
<event>
12    1  0.1629553E-001  0.1980454E+03  0.7818608E-02  0.1151480E+00
         21   -1    0    0  501  502  0.00000000000E+00  0.00000000000E+00  0.11597773910E+03  0.11597773910E+03  0.00000000000E+00 0. -1.
         21   -1    0    0  502  503 -0.00000000000E+00 -0.00000000000E+00 -0.41862594081E+03  0.41862594081E+03  0.00000000000E+00 0. -1.
         -6    2    1    2    0  503  0.69436928497E+02  0.68429682461E+02 -0.26885111813E+03  0.33369518971E+03  0.17195187534E+03 0.  0.
        -24    2    3    3    0    0  0.10234740441E+03  0.81979589422E+02 -0.16639090334E+03  0.22512776817E+03  0.76163869491E+02 0.  0.
          6    2    1    2  501    0 -0.69436928497E+02 -0.68429682461E+02 -0.33797083579E+02  0.20090849020E+03  0.17238871800E+03 0.  0.
         24    2    5    5    0    0 -0.69699893735E+02 -0.35443442954E+01  0.29596103420E+02  0.11007368179E+03  0.79810077827E+02 0.  0.
          5    1    5    5  501    0  0.26296523804E+00 -0.64885338166E+02 -0.63393186999E+02  0.90834808403E+02  0.47000000000E+01 0. -1.
        -13    1    6    6    0    0  0.53095060419E+01 -0.14977547773E+02  0.30278236452E+02  0.34194873803E+02  0.00000000000E+00 0.  1.
         14    1    6    6    0    0 -0.75009399777E+02  0.11433203478E+02 -0.68213303206E+00  0.75878807991E+02  0.00000000000E+00 0. -1.
         -5    1    3    3    0  503 -0.32910475914E+02 -0.13549906960E+02 -0.10246021479E+03  0.10856742154E+03  0.47000000000E+01 0.  1.
         13    1    4    4    0    0  0.97346837232E+02  0.34805962152E+02 -0.10281375227E+03  0.14580304996E+03  0.00000000000E+00 0. -1.
        -14    1    4    4    0    0  0.50005671795E+01  0.47173627270E+02 -0.63577151067E+02  0.79324718214E+02  0.00000000000E+00 0.  1.
</event>
<event>
12    1  0.1629553E-001  0.1945381E+03  0.7818608E-02  0.1154512E+00
         21   -1    0    0  503  502  0.00000000000E+00  0.00000000000E+00  0.54067790036E+02  0.54067790036E+02  0.00000000000E+00 0.  1.
         21   -1    0    0  501  503 -0.00000000000E+00 -0.00000000000E+00 -0.70195931569E+03  0.70195931569E+03  0.00000000000E+00 0. -1.
          6    2    1    2  501    0 -0.90674380308E+02  0.78508433536E+01 -0.34970830390E+03  0.39999575680E+03  0.17151451441E+03 0.  0.
         24    2    3    3    0    0 -0.20284175351E+02  0.15035542747E+02 -0.62861948481E+02  0.10451424726E+03  0.79586983854E+02 0.  0.
         -6    2    1    2    0  502  0.90674380308E+02 -0.78508433536E+01 -0.29818322176E+03  0.35603134893E+03  0.17193489669E+03 0.  0.
        -24    2    5    5    0    0 -0.91385501040E+01 -0.33392035484E+02 -0.10705888124E+03  0.13885497565E+03  0.81366818047E+02 0.  0.
          5    1    3    3  501    0 -0.70390204956E+02 -0.71846993937E+01 -0.28684635542E+03  0.29548150954E+03  0.47000000000E+01 0. -1.
        -11    1    4    4    0    0  0.13543473767E+01 -0.26388503342E+02 -0.49161089357E+02  0.55812185697E+02  0.00000000000E+00 0.  1.
         12    1    4    4    0    0 -0.21638522728E+02  0.41424046089E+02 -0.13700859124E+02  0.48702061568E+02  0.00000000000E+00 0. -1.
         -5    1    5    5    0  502  0.99812930412E+02  0.25541192130E+02 -0.19112434052E+03  0.21717637328E+03  0.47000000000E+01 0.  1.
         13    1    6    6    0    0  0.80378794594E+01 -0.18099266040E+02 -0.11330611697E+03  0.11502376746E+03  0.00000000000E+00 0. -1.
        -14    1    6    6    0    0 -0.17176429563E+02 -0.15292769443E+02  0.62472357283E+01  0.23831208195E+02  0.00000000000E+00 0.  1.
</event>
<event>
12    1  0.1629553E-001  0.2521371E+03  0.7818608E-02  0.1112038E+00
         21   -1    0    0  503  502  0.00000000000E+00  0.00000000000E+00  0.17191838123E+03  0.17191838123E+03  0.00000000000E+00 0.  1.
         21   -1    0    0  501  503 -0.00000000000E+00 -0.00000000000E+00 -0.36908251295E+03  0.36908251295E+03  0.00000000000E+00 0. -1.
          6    2    1    2  501    0 -0.11565214192E+03  0.14253313656E+03 -0.97274111775E+02  0.26979774208E+03  0.17215532481E+03 0.  0.
         24    2    3    3    0    0 -0.58451045415E+02  0.28660498733E+02  0.14024179259E+02  0.10053952906E+03  0.75323106693E+02 0.  0.
         -6    2    1    2    0  502  0.11565214192E+03 -0.14253313656E+03 -0.99890019951E+02  0.27120315210E+03  0.17286416828E+03 0.  0.
        -24    2    5    5    0    0  0.10767486054E+03 -0.14037433721E+03 -0.28737390287E+02  0.19941816662E+03  0.87423895110E+02 0.  0.
          5    1    3    3  501    0 -0.57201096505E+02  0.11387263782E+03 -0.11129829103E+03  0.16925821302E+03  0.47000000000E+01 0. -1.
        -11    1    4    4    0    0 -0.42690712014E+02  0.50674512331E+02 -0.64816772799E+01  0.66576386449E+02  0.00000000000E+00 0.  1.
         12    1    4    4    0    0 -0.15760333402E+02 -0.22014013598E+02  0.20505856539E+02  0.33963142611E+02  0.00000000000E+00 0. -1.
         -5    1    5    5    0  502  0.79772813798E+01 -0.21587993462E+01 -0.71152629664E+02  0.71784985484E+02  0.47000000000E+01 0.  1.
         13    1    6    6    0    0  0.29371415920E+02 -0.21522220306E+02 -0.43036166996E+02  0.56373732445E+02  0.00000000000E+00 0. -1.
        -14    1    6    6    0    0  0.78303444620E+02 -0.11885211690E+03  0.14298776709E+02  0.14304443417E+03  0.00000000000E+00 0.  1.
</event>
<event>
12    1  0.1629553E-001  0.2859957E+03  0.7818608E-02  0.1092515E+00
         21   -1    0    0  501  502  0.00000000000E+00  0.00000000000E+00  0.32661108451E+03  0.32661108451E+03  0.00000000000E+00 0.  1.
         21   -1    0    0  502  503 -0.00000000000E+00 -0.00000000000E+00 -0.39490951514E+03  0.39490951514E+03  0.00000000000E+00 0. -1.
         -6    2    1    2    0  503  0.22787502672E+03  0.14398694469E+00 -0.25262019179E+03  0.38127358402E+03  0.17212070195E+03 0.  0.
        -24    2    3    3    0    0  0.11976404486E+03 -0.65466821941E+02 -0.16704376911E+03  0.22850520785E+03  0.75376906270E+02 0.  0.
          6    2    1    2  501    0 -0.22787502672E+03 -0.14398694469E+00  0.18432176115E+03  0.34024701563E+03  0.17281918724E+03 0.  0.
         24    2    5    5    0    0 -0.20221484685E+03  0.27028035997E+02  0.20269425934E+03  0.29833756143E+03  0.79366105948E+02 0.  0.
          5    1    5    5  501    0 -0.25660179863E+02 -0.27172022942E+02 -0.18372498191E+02  0.41909454197E+02  0.47000000000E+01 0. -1.
        -13    1    6    6    0    0 -0.30362351786E+02  0.17016390518E+02  0.79103065477E+02  0.86421784985E+02  0.00000000000E+00 0.  1.
         14    1    6    6    0    0 -0.17185249507E+03  0.10011645479E+02  0.12359119387E+03  0.21191577645E+03  0.00000000000E+00 0. -1.
         -5    1    3    3    0  503  0.10811098185E+03  0.65610808886E+02 -0.85576422676E+02  0.15276837617E+03  0.47000000000E+01 0.  1.
         13    1    4    4    0    0  0.12649969322E+03 -0.72807146755E+02 -0.15663961542E+03  0.21410049538E+03  0.00000000000E+00 0. -1.
        -14    1    4    4    0    0 -0.67356483618E+01  0.73403248136E+01 -0.10404153689E+02  0.14404712466E+02  0.00000000000E+00 0.  1.
</event>
<event>
12    1  0.1629553E-001  0.1745283E+03  0.7818608E-02  0.1173613E+00
         21   -1    0    0  503  502  0.00000000000E+00  0.00000000000E+00  0.29183219165E+03  0.29183219165E+03  0.00000000000E+00 0.  1.
         21   -1    0    0  501  503 -0.00000000000E+00 -0.00000000000E+00 -0.15044043861E+03  0.15044043861E+03  0.00000000000E+00 0.  1.
          6    2    1    2  501    0 -0.11782575534E+02 -0.20951146801E+02 -0.52712508323E+02  0.18231496551E+03  0.17286514535E+03 0.  0.
         24    2    3    3    0    0 -0.11845970531E+02  0.23574942417E+02 -0.90979445214E+02  0.12341653515E+03  0.79109271065E+02 0.  0.
         -6    2    1    2    0  502  0.11782575534E+02  0.20951146801E+02  0.19410426136E+03  0.25995766475E+03  0.17124176928E+03 0.  0.
        -24    2    5    5    0    0 -0.29495690306E+02  0.32162041872E+02  0.19681832368E+03  0.21684113041E+03  0.79863825460E+02 0.  0.
          5    1    3    3  501    0  0.63394996993E-01 -0.44526089217E+02  0.38266936891E+02  0.58898430361E+02  0.47000000000E+01 0. -1.
        -11    1    4    4    0    0 -0.11499516703E+02 -0.86943414600E+01 -0.89982473624E+02  0.91129995157E+02  0.00000000000E+00 0.  1.
         12    1    4    4    0    0 -0.34645382791E+00  0.32269283877E+02 -0.99697158994E+00  0.32286539990E+02  0.00000000000E+00 0. -1.
         -5    1    5    5    0  502  0.41278265840E+02 -0.11210895072E+02 -0.27140623214E+01  0.43116534338E+02  0.47000000000E+01 0.  1.
         13    1    6    6    0    0 -0.83291252146E+00 -0.20970203998E+02  0.16533782570E+02  0.26717207284E+02  0.00000000000E+00 0. -1.
        -14    1    6    6    0    0 -0.28662777784E+02  0.53132245870E+02  0.18028454111E+03  0.19012392313E+03  0.00000000000E+00 0.  1.
</event>
<event>
12    1  0.1629553E-001  0.2059656E+03  0.7818608E-02  0.1145091E+00
         21   -1    0    0  501  502  0.00000000000E+00  0.00000000000E+00  0.97165212009E+03  0.97165212009E+03  0.00000000000E+00 0. -1.
         21   -1    0    0  502  503 -0.00000000000E+00 -0.00000000000E+00 -0.48199270118E+02  0.48199270118E+02  0.00000000000E+00 0. -1.
         -6    2    1    2    0  503  0.79046641512E+02 -0.78624796653E+02  0.29869195890E+03  0.36201555182E+03  0.17148802660E+03 0.  0.
        -24    2    3    3    0    0  0.11360401921E+03 -0.25503292634E+02  0.20216287317E+03  0.24644712649E+03  0.79435934884E+02 0.  0.
          6    2    1    2  501    0 -0.79046641512E+02  0.78624796653E+02  0.62476089107E+03  0.65783583838E+03  0.17318079879E+03 0.  0.
         24    2    5    5    0    0 -0.93705190299E+02 -0.12780921059E+01  0.29783328013E+03  0.32093363079E+03  0.74239049111E+02 0.  0.
          5    1    5    5  501    0  0.14658548787E+02  0.79902888759E+02  0.32692761094E+03  0.33690220759E+03  0.47000000000E+01 0. -1.
        -13    1    6    6    0    0 -0.55610099464E+02 -0.28016157623E+02  0.23265550367E+03  0.24084428919E+03  0.00000000000E+00 0.  1.
         14    1    6    6    0    0 -0.38095090835E+02  0.26738065517E+02  0.65177776461E+02  0.80089341599E+02  0.00000000000E+00 0. -1.
         -5    1    3    3    0  503 -0.34557377694E+02 -0.53121504019E+02  0.96529085734E+02  0.11556842534E+03  0.47000000000E+01 0.  1.
         13    1    4    4    0    0  0.18767025609E+02  0.99799815406E-01 -0.29756945986E+01  0.19001735935E+02  0.00000000000E+00 0. -1.
        -14    1    4    4    0    0  0.94836993597E+02 -0.25603092450E+02  0.20513856777E+03  0.22744539055E+03  0.00000000000E+00 0.  1.
</event>
<event>
12    1  0.1629553E-001  0.1987763E+03  0.7818608E-02  0.1150777E+00
         21   -1    0    0  501  502  0.00000000000E+00  0.00000000000E+00  0.32828377437E+03  0.32828377437E+03  0.00000000000E+00 0. -1.
         21   -1    0    0  502  503 -0.00000000000E+00 -0.00000000000E+00 -0.15167438396E+03  0.15167438396E+03  0.00000000000E+00 0.  1.
         -6    2    1    2    0  503 -0.57018837075E+02 -0.81481518223E+02 -0.20746868215E+02  0.19984832205E+03  0.17210035936E+03 0.  0.
        -24    2    3    3    0    0  0.35031791711E+02 -0.24810857320E+02 -0.95179456859E+01  0.91068449054E+02  0.79750022266E+02 0.  0.
          6    2    1    2  501    0  0.57018837075E+02  0.81481518223E+02  0.19735625862E+03  0.28010983629E+03  0.17210938956E+03 0.  0.
         24    2    5    5    0    0 -0.22195588672E+02  0.84524890568E+02  0.10294355279E+03  0.15674032472E+03  0.79580481591E+02 0.  0.
          5    1    5    5  501    0  0.79214425747E+02 -0.30433723450E+01  0.94412705833E+02  0.12336951157E+03  0.47000000000E+01 0. -1.
        -11    1    6    6    0    0 -0.24334185332E+02  0.98713489119E+02  0.78704412575E+02  0.12857250899E+03  0.00000000000E+00 0.  1.
         12    1    6    6    0    0  0.21385966602E+01 -0.14188598551E+02  0.24239140214E+02  0.28167815727E+02  0.00000000000E+00 0. -1.
         -5    1    3    3    0  503 -0.92050628786E+02 -0.56670660903E+02 -0.11228922529E+02  0.10877987299E+03  0.47000000000E+01 0.  1.
         11    1    4    4    0    0  0.11990804848E+02  0.24442823563E+02 -0.22319857241E+02  0.35205213419E+02  0.00000000000E+00 0. -1.
        -12    1    4    4    0    0  0.23040986863E+02 -0.49253680883E+02  0.12801911555E+02  0.55863235635E+02  0.00000000000E+00 0.  1.
</event>
<event>
12    1  0.1629553E-001  0.3095061E+03  0.7818608E-02  0.1080689E+00
         21   -1    0    0  503  502  0.00000000000E+00  0.00000000000E+00  0.21561531168E+04  0.21561531168E+04  0.00000000000E+00 0. -1.
         21   -1    0    0  501  503 -0.00000000000E+00 -0.00000000000E+00 -0.14487723080E+03  0.14487723080E+03  0.00000000000E+00 0. -1.
          6    2    1    2  501    0  0.11722761887E+03  0.22756382509E+03  0.46598923606E+02  0.31212371377E+03  0.17240111340E+03 0.  0.
         24    2    3    3    0    0  0.44836646224E+02  0.20954075918E+03  0.60100584982E+02  0.23616537858E+03  0.79021206782E+02 0.  0.
         -6    2    1    2    0  502 -0.11722761887E+03 -0.22756382509E+03  0.19646769624E+04  0.19889066338E+04  0.17397247603E+03 0.  0.
        -24    2    5    5    0    0 -0.76801689127E+02 -0.51294729542E+02  0.61918676006E+03  0.63130911452E+03  0.81420547280E+02 0.  0.
          5    1    3    3  501    0  0.72390972644E+02  0.18023065910E+02 -0.13501661376E+02  0.75958335192E+02  0.47000000000E+01 0. -1.
        -13    1    4    4    0    0 -0.17407630005E+02  0.98945177975E+02  0.15530880138E+02  0.10165816280E+03  0.00000000000E+00 0.  1.
         14    1    4    4    0    0  0.62244276229E+02  0.11059558121E+03  0.44569704844E+02  0.13450721578E+03  0.00000000000E+00 0. -1.
         -5    1    5    5    0  502 -0.40425929742E+02 -0.17626909555E+03  0.13454902023E+04  0.13575975193E+04  0.47000000000E+01 0.  1.
         11    1    6    6    0    0 -0.55912227029E+02 -0.73383717156E+02  0.48818060065E+03  0.49682154334E+03  0.00000000000E+00 0. -1.
        -12    1    6    6    0    0 -0.20889462098E+02  0.22088987614E+02  0.13100615940E+03  0.13448757118E+03  0.00000000000E+00 0.  1.
</event>
<event>
12    1  0.1629553E-001  0.1865186E+03  0.7818608E-02  0.1162417E+00
         21   -1    0    0  501  502  0.00000000000E+00  0.00000000000E+00  0.52502648093E+02  0.52502648093E+02  0.00000000000E+00 0. -1.
         21   -1    0    0  502  503 -0.00000000000E+00 -0.00000000000E+00 -0.65089983789E+03  0.65089983789E+03  0.00000000000E+00 0.  1.
         -6    2    1    2    0  503 -0.49984574109E+02 -0.54876177264E+02 -0.29816215344E+03  0.35169569162E+03  0.17111206060E+03 0.  0.
        -24    2    3    3    0    0 -0.30499959864E+02  0.19025594228E+02 -0.67239064942E+02  0.10840844407E+03  0.77065414447E+02 0.  0.
          6    2    1    2  501    0  0.49984574109E+02  0.54876177264E+02 -0.30023503636E+03  0.35170679436E+03  0.16747160852E+03 0.  0.
         24    2    5    5    0    0  0.95729624115E+02  0.39287901639E+02 -0.25010423831E+03  0.28191574300E+03  0.78845773391E+02 0.  0.
          5    1    5    5  501    0 -0.45745050005E+02  0.15588275625E+02 -0.50130798043E+02  0.69791051356E+02  0.47000000000E+01 0. -1.
        -13    1    6    6    0    0  0.67390206611E+02  0.23504666469E+02 -0.23597826505E+03  0.24653529335E+03  0.00000000000E+00 0.  1.
         14    1    6    6    0    0  0.28339417503E+02  0.15783235170E+02 -0.14125973268E+02  0.35380449653E+02  0.00000000000E+00 0. -1.
         -5    1    3    3    0  503 -0.19484614245E+02 -0.73901771492E+02 -0.23092308850E+03  0.24328724755E+03  0.47000000000E+01 0.  1.
         11    1    4    4    0    0 -0.33468315949E+02 -0.24327332738E+02 -0.36577696933E+02  0.55225675220E+02  0.00000000000E+00 0. -1.
        -12    1    4    4    0    0  0.29683560841E+01  0.43352926966E+02 -0.30661368009E+02  0.53182768850E+02  0.00000000000E+00 0.  1.
</event>
<event>
12    1  0.1629553E-001  0.1821402E+03  0.7818608E-02  0.1166200E+00
         21   -1    0    0  503  502  0.00000000000E+00  0.00000000000E+00  0.20031446022E+03  0.20031446022E+03  0.00000000000E+00 0.  1.
         21   -1    0    0  501  503 -0.00000000000E+00 -0.00000000000E+00 -0.43484972500E+03  0.43484972500E+03  0.00000000000E+00 0. -1.
          6    2    1    2  501    0 -0.32902619110E+02 -0.43605555500E+02 -0.36818243741E+03  0.41077166047E+03  0.17375564167E+03 0.  0.
         24    2    3    3    0    0 -0.56051969417E+02 -0.30288008551E+02 -0.37037408161E+03  0.38356609522E+03  0.76725499923E+02 0.  0.
         -6    2    1    2    0  502  0.32902619110E+02  0.43605555500E+02  0.13364717263E+03  0.22439252476E+03  0.17177430425E+03 0.  0.
        -24    2    5    5    0    0  0.43598777213E+02  0.30494657792E+02  0.21687356947E+02  0.11106382687E+03  0.95047644153E+02 0.  0.
          5    1    3    3  501    0  0.23149350307E+02 -0.13317546949E+02  0.21916441932E+01  0.27205565251E+02  0.47000000000E+01 0. -1.
        -13    1    4    4    0    0  0.10757094061E+02  0.15060505592E+02 -0.84788319100E+02  0.86784750718E+02  0.00000000000E+00 0.  1.
         14    1    4    4    0    0 -0.66809063478E+02 -0.45348514143E+02 -0.28558576251E+03  0.29678134450E+03  0.00000000000E+00 0. -1.
         -5    1    5    5    0  502 -0.10696158103E+02  0.13110897708E+02  0.11195981568E+03  0.11332869789E+03  0.47000000000E+01 0.  1.
         13    1    6    6    0    0  0.21964463006E+01 -0.12112898522E+02 -0.29929764378E+02  0.32362593880E+02  0.00000000000E+00 0. -1.
        -14    1    6    6    0    0  0.41402330913E+02  0.42607556314E+02  0.51617121325E+02  0.78701232989E+02  0.00000000000E+00 0.  1.
</event>
<event>
12    1  0.1629553E-001  0.2328410E+03  0.7818608E-02  0.1124722E+00
         21   -1    0    0  501  502  0.00000000000E+00  0.00000000000E+00  0.12683240742E+04  0.12683240742E+04  0.00000000000E+00 0. -1.
         21   -1    0    0  502  503 -0.00000000000E+00 -0.00000000000E+00 -0.42677681581E+02  0.42677681581E+02  0.00000000000E+00 0. -1.
         -6    2    1    2    0  503 -0.25254732330E+02  0.15524505747E+03  0.60800988128E+03  0.65093374491E+03  0.17117212145E+03 0.  0.
        -24    2    3    3    0    0 -0.50999612240E+02  0.12064302389E+03  0.27023960134E+03  0.31038866482E+03  0.78460062786E+02 0.  0.
          6    2    1    2  501    0  0.25254732330E+02 -0.15524505747E+03  0.61763651129E+03  0.66006801082E+03  0.17168601997E+03 0.  0.
         24    2    5    5    0    0  0.25067781532E+02 -0.18254919077E+03  0.57349040349E+03  0.60794777022E+03  0.82198830265E+02 0.  0.
          5    1    5    5  501    0  0.18695079839E+00  0.27304133305E+02  0.44146107797E+02  0.52120240596E+02  0.47000000000E+01 0. -1.
        -13    1    6    6    0    0 -0.18813833768E+02 -0.40492349228E+02  0.70556740586E+02  0.83497570798E+02  0.00000000000E+00 0.  1.
         14    1    6    6    0    0  0.43881615299E+02 -0.14205684154E+03  0.50293366291E+03  0.52445019943E+03  0.00000000000E+00 0. -1.
         -5    1    3    3    0  503  0.25744879910E+02  0.34602033580E+02  0.33777027994E+03  0.34054508010E+03  0.47000000000E+01 0.  1.
         13    1    4    4    0    0 -0.67027732828E+02  0.60655462123E+02  0.16777790977E+03  0.19058129252E+03  0.00000000000E+00 0. -1.
        -14    1    4    4    0    0  0.16028120589E+02  0.59987561763E+02  0.10246169157E+03  0.11980737229E+03  0.00000000000E+00 0.  1.
</event>
<event>
12    1  0.1629553E-001  0.1814367E+03  0.7818608E-02  0.1166554E+00
         21   -1    0    0  501  502  0.00000000000E+00  0.00000000000E+00  0.12291092568E+03  0.12291092568E+03  0.00000000000E+00 0. -1.
         21   -1    0    0  502  503 -0.00000000000E+00 -0.00000000000E+00 -0.45852128177E+03  0.45852128177E+03  0.00000000000E+00 0. -1.
         -6    2    1    2    0  503  0.12878967822E+02  0.53733943417E+02 -0.35583925245E+03  0.39942565544E+03  0.17281804347E+03 0.  0.
        -24    2    3    3    0    0  0.71278643403E+02  0.11568870793E+02 -0.18686876074E+03  0.21568253985E+03  0.79903319569E+02 0.  0.
          6    2    1    2  501    0 -0.12878967822E+02 -0.53733943417E+02  0.20228896367E+02  0.18200655201E+03  0.17223232055E+03 0.  0.
         24    2    5    5    0    0  0.36280318866E+02 -0.49649046844E+02 -0.36582635717E+02  0.10662112885E+03  0.79047368661E+02 0.  0.
          5    1    5    5  501    0 -0.49159286688E+02 -0.40848965729E+01  0.56811532084E+02  0.75385423162E+02  0.47000000000E+01 0. -1.
        -13    1    6    6    0    0  0.17477426543E+02 -0.39766452202E+02 -0.60598690065E+02  0.74558918963E+02  0.00000000000E+00 0.  1.
         14    1    6    6    0    0  0.18802892323E+02 -0.98825946414E+01  0.24016054348E+02  0.32062209889E+02  0.00000000000E+00 0. -1.
         -5    1    3    3    0  503 -0.58399675580E+02  0.42165072624E+02 -0.16897049171E+03  0.18374311559E+03  0.47000000000E+01 0.  1.
         11    1    4    4    0    0  0.20921066861E+02  0.38089316597E+02 -0.43760936217E+02  0.61672575883E+02  0.00000000000E+00 0. -1.
        -12    1    4    4    0    0  0.50357576542E+02 -0.26520445805E+02 -0.14310782452E+03  0.15400996397E+03  0.00000000000E+00 0.  1.
</event>
<event>
12    1  0.1629553E-001  0.2011252E+03  0.7818608E-02  0.1150515E+00
         21   -1    0    0  503  502  0.00000000000E+00  0.00000000000E+00  0.27692936763E+03  0.27692936763E+03  0.00000000000E+00 0. -1.
         21   -1    0    0  501  503 -0.00000000000E+00 -0.00000000000E+00 -0.27062023206E+03  0.27062023206E+03  0.00000000000E+00 0. -1.
          6    2    1    2  501    0 -0.66634314472E+02 -0.53153947733E+02 -0.18685223321E+03  0.26869002259E+03  0.17324865701E+03 0.  0.
         24    2    3    3    0    0 -0.40108752131E+02  0.96928877733E+00 -0.20601920139E+02  0.91788392338E+02  0.79943844894E+02 0.  0.
         -6    2    1    2    0  502  0.66634314472E+02  0.53153947733E+02  0.19316136878E+03  0.27885957710E+03  0.18216990785E+03 0.  0.
        -24    2    5    5    0    0  0.10722189296E+03  0.45005724829E+02  0.19066057882E+03  0.23712123724E+03  0.79705553354E+02 0.  0.
          5    1    3    3  501    0 -0.26525562341E+02 -0.54123236510E+02 -0.16625031307E+03  0.17690163025E+03  0.47000000000E+01 0. -1.
        -11    1    4    4    0    0 -0.16842658669E+02  0.39664952633E+02 -0.17564098937E+02  0.46534731007E+02  0.00000000000E+00 0.  1.
         12    1    4    4    0    0 -0.23266093461E+02 -0.38695663856E+02 -0.30378212018E+01  0.45253661331E+02  0.00000000000E+00 0. -1.
         -5    1    5    5    0  502 -0.40587578492E+02  0.81482229036E+01  0.25007899663E+01  0.41738339866E+02  0.47000000000E+01 0.  1.
         13    1    6    6    0    0  0.23229304028E+02 -0.17116063647E+02  0.79500400528E+02  0.84574664554E+02  0.00000000000E+00 0. -1.
        -14    1    6    6    0    0  0.83992588936E+02  0.62121788477E+02  0.11116017829E+03  0.15254657268E+03  0.00000000000E+00 0.  1.
</event>
<event>
12    1  0.1629553E-001  0.3164716E+03  0.7818608E-02  0.1077328E+00
         21   -1    0    0  501  502  0.00000000000E+00  0.00000000000E+00  0.85032002348E+03  0.85032002348E+03  0.00000000000E+00 0. -1.
         21   -1    0    0  502  503 -0.00000000000E+00 -0.00000000000E+00 -0.13995924617E+03  0.13995924617E+03  0.00000000000E+00 0.  1.
         -6    2    1    2    0  503 -0.34709441527E+02  0.26305911869E+03  0.15765898877E+03  0.35356838025E+03  0.17248013656E+03 0.  0.
        -24    2    3    3    0    0  0.19284812965E+02  0.15224326818E+03  0.15244119821E+03  0.23009835319E+03  0.78466658593E+02 0.  0.
          6    2    1    2  501    0  0.34709441527E+02 -0.26305911869E+03  0.55270178854E+03  0.63671088940E+03  0.17180408717E+03 0.  0.
         24    2    5    5    0    0 -0.30780140580E+02 -0.73158877885E+02  0.23984523751E+03  0.26488794990E+03  0.79625684136E+02 0.  0.
          5    1    5    5  501    0  0.65489582107E+02 -0.18990024081E+03  0.31285655103E+03  0.37182293951E+03  0.47000000000E+01 0. -1.
        -13    1    6    6    0    0 -0.17318433725E+02  0.14984390108E+02  0.40902020200E+02  0.46876810365E+02  0.00000000000E+00 0.  1.
         14    1    6    6    0    0 -0.13461706855E+02 -0.88143267993E+02  0.19894321731E+03  0.21801113953E+03  0.00000000000E+00 0. -1.
         -5    1    3    3    0  503 -0.53994254491E+02  0.11081585051E+03  0.52177905629E+01  0.12347002706E+03  0.47000000000E+01 0.  1.
         11    1    4    4    0    0  0.37718632353E+02  0.45626781266E+02  0.81445996726E+02  0.10068738142E+03  0.00000000000E+00 0. -1.
        -12    1    4    4    0    0 -0.18433819389E+02  0.10661648691E+03  0.70995201484E+02  0.12941097176E+03  0.00000000000E+00 0.  1.
</event>
<event>
12    1  0.1629553E-001  0.2131480E+03  0.7818608E-02  0.1139501E+00
         21   -1    0    0  501  502  0.00000000000E+00  0.00000000000E+00  0.85337881808E+02  0.85337881808E+02  0.00000000000E+00 0. -1.
         21   -1    0    0  502  503 -0.00000000000E+00 -0.00000000000E+00 -0.61798262006E+03  0.61798262006E+03  0.00000000000E+00 0. -1.
         -6    2    1    2    0  503 -0.11281794399E+03 -0.37267034055E+02 -0.39997782741E+03  0.45225761198E+03  0.17446479547E+03 0.  0.
        -24    2    3    3    0    0 -0.34987808376E+02 -0.82163177490E+02 -0.24770424454E+03  0.27538893825E+03  0.80664366849E+02 0.  0.
          6    2    1    2  501    0  0.11281794399E+03  0.37267034055E+02 -0.13266691084E+03  0.25106288989E+03  0.17696142273E+03 0.  0.
         24    2    5    5    0    0  0.72573762906E+02  0.93766612838E+02 -0.80838439045E+02  0.16434451235E+03  0.80094548925E+02 0.  0.
          5    1    5    5  501    0  0.40244181085E+02 -0.56499578783E+02 -0.51828471795E+02  0.86718377536E+02  0.47000000000E+01 0. -1.
        -13    1    6    6    0    0 -0.13214284369E+02  0.62195847301E+01  0.41581683866E+01  0.15185220115E+02  0.00000000000E+00 0.  1.
         14    1    6    6    0    0  0.85788047275E+02  0.87547028108E+02 -0.84996607431E+02  0.14915929224E+03  0.00000000000E+00 0. -1.
         -5    1    3    3    0  503 -0.77830135614E+02  0.44896143435E+02 -0.15227358287E+03  0.17686867373E+03  0.47000000000E+01 0.  1.
         11    1    4    4    0    0 -0.50410294977E+02 -0.18578385967E+02 -0.13112309299E+03  0.14170257506E+03  0.00000000000E+00 0. -1.
        -12    1    4    4    0    0  0.15422486601E+02 -0.63584791523E+02 -0.11658115155E+03  0.13368636319E+03  0.00000000000E+00 0.  1.
</event>
<event>
12    1  0.1629553E-001  0.1849341E+03  0.7818608E-02  0.1164887E+00
         21   -1    0    0  503  502  0.00000000000E+00  0.00000000000E+00  0.25042815552E+03  0.25042815552E+03  0.00000000000E+00 0. -1.
         21   -1    0    0  501  503 -0.00000000000E+00 -0.00000000000E+00 -0.16637638947E+03  0.16637638947E+03  0.00000000000E+00 0. -1.
          6    2    1    2  501    0  0.69533854887E+02 -0.28744652905E+01 -0.54555511330E+02  0.18569287976E+03  0.16328601364E+03 0.  0.
         24    2    3    3    0    0  0.74097586401E+02  0.49767013838E+02 -0.56560855839E+02  0.13260743565E+03  0.80114877510E+02 0.  0.
         -6    2    1    2    0  502 -0.69533854887E+02  0.28744652905E+01  0.13860727738E+03  0.23111166522E+03  0.17134002724E+03 0.  0.
        -24    2    5    5    0    0 -0.25321005724E+02 -0.47730827625E+02  0.12989971737E+03  0.16318830176E+03  0.82686758449E+02 0.  0.
          5    1    3    3  501    0 -0.45637315143E+01 -0.52641479129E+02  0.20053445094E+01  0.53085444114E+02  0.47000000000E+01 0. -1.
        -11    1    4    4    0    0  0.59955512750E+02  0.40419174660E+02  0.12950398030E+01  0.72319086813E+02  0.00000000000E+00 0.  1.
         12    1    4    4    0    0  0.14142073651E+02  0.93478391783E+01 -0.57855895642E+02  0.60288348833E+02  0.00000000000E+00 0. -1.
         -5    1    5    5    0  502 -0.44212849163E+02  0.50605292915E+02  0.87075600069E+01  0.67923363458E+02  0.47000000000E+01 0.  1.
         11    1    6    6    0    0  0.24353297216E+02  0.60544066868E+01  0.40368412046E+02  0.47532595308E+02  0.00000000000E+00 0. -1.
        -12    1    6    6    0    0 -0.49674302940E+02 -0.53785234311E+02  0.89531305326E+02  0.11565570646E+03  0.00000000000E+00 0.  1.
</event>
<event>
12    1  0.1629553E-001  0.2154085E+03  0.7818608E-02  0.1137442E+00
         21   -1    0    0  503  502  0.00000000000E+00  0.00000000000E+00  0.85475170102E+03  0.85475170102E+03  0.00000000000E+00 0.  1.
         21   -1    0    0  501  503 -0.00000000000E+00 -0.00000000000E+00 -0.63436154624E+02  0.63436154624E+02  0.00000000000E+00 0. -1.
          6    2    1    2  501    0  0.21398418278E+02  0.12830538633E+03  0.21982609374E+03  0.30744975893E+03  0.17111890109E+03 0.  0.
         24    2    3    3    0    0 -0.69443859882E+01  0.43615667101E+02  0.19271878441E+03  0.21400159514E+03  0.81887739893E+02 0.  0.
         -6    2    1    2    0  502 -0.21398418278E+02 -0.12830538633E+03  0.57148945266E+03  0.61073809672E+03  0.17169934133E+03 0.  0.
        -24    2    5    5    0    0 -0.42926530714E+02 -0.88551546254E+02  0.19986671822E+03  0.23634609069E+03  0.78922152453E+02 0.  0.
          5    1    3    3  501    0  0.28342804266E+02  0.84689719226E+02  0.27107309326E+02  0.93448163787E+02  0.47000000000E+01 0. -1.
        -11    1    4    4    0    0 -0.21306787630E+02 -0.73360168345E+01  0.11679153615E+02  0.25381075061E+02  0.00000000000E+00 0.  1.
         12    1    4    4    0    0  0.14362401642E+02  0.50951683935E+02  0.18103963079E+03  0.18862052008E+03  0.00000000000E+00 0. -1.
         -5    1    5    5    0  502  0.21528112436E+02 -0.39753840072E+02  0.37162273445E+03  0.37439200603E+03  0.47000000000E+01 0.  1.
         11    1    6    6    0    0  0.13755753394E+02 -0.45875172606E+02  0.43771455711E+02  0.64882143522E+02  0.00000000000E+00 0. -1.
        -12    1    6    6    0    0 -0.56682284108E+02 -0.42676373649E+02  0.15609526251E+03  0.17146394716E+03  0.00000000000E+00 0.  1.
</event>
<event>
12    1  0.1629553E-001  0.2023550E+03  0.7818608E-02  0.1149101E+00
         21   -1    0    0  503  502  0.00000000000E+00  0.00000000000E+00  0.57410850743E+02  0.57410850743E+02  0.00000000000E+00 0. -1.
         21   -1    0    0  501  503 -0.00000000000E+00 -0.00000000000E+00 -0.69116837282E+03  0.69116837282E+03  0.00000000000E+00 0. -1.
          6    2    1    2  501    0  0.66878451166E+02  0.65622388877E+02 -0.31355790928E+03  0.36979784722E+03  0.17220005861E+03 0.  0.
         24    2    3    3    0    0 -0.10412002914E+02 -0.11921754096E+02 -0.10038643251E+03  0.13010830446E+03  0.81241596685E+02 0.  0.
         -6    2    1    2    0  502 -0.66878451166E+02 -0.65622388877E+02 -0.32019961280E+03  0.37878137634E+03  0.17935583034E+03 0.  0.
        -24    2    5    5    0    0 -0.73785484071E+02 -0.97300788228E+02 -0.31268444589E+03  0.34516894081E+03  0.80363511282E+02 0.  0.
          5    1    3    3  501    0  0.77290454079E+02  0.77544142973E+02 -0.21317147677E+03  0.23968954276E+03  0.47000000000E+01 0. -1.
        -13    1    4    4    0    0  0.19079598469E+02 -0.23450081872E+01  0.53217474285E+01  0.19946206076E+02  0.00000000000E+00 0.  1.
         14    1    4    4    0    0 -0.29491601382E+02 -0.95767459090E+01 -0.10570817994E+03  0.11016209838E+03  0.00000000000E+00 0. -1.
         -5    1    5    5    0  502  0.69070329050E+01  0.31678399351E+02 -0.75151669062E+01  0.33612435536E+02  0.47000000000E+01 0.  1.
         13    1    6    6    0    0 -0.25403817963E+02 -0.72109552850E+02 -0.10161032696E+03  0.12716052896E+03  0.00000000000E+00 0. -1.
        -14    1    6    6    0    0 -0.48381666107E+02 -0.25191235378E+02 -0.21107411893E+03  0.21800841185E+03  0.00000000000E+00 0.  1.
</event>
<event>
12    1  0.1629553E-001  0.1959566E+03  0.7818608E-02  0.1153338E+00
         21   -1    0    0  503  502  0.00000000000E+00  0.00000000000E+00  0.64360533346E+03  0.64360533346E+03  0.00000000000E+00 0. -1.
         21   -1    0    0  501  503 -0.00000000000E+00 -0.00000000000E+00 -0.17679365499E+03  0.17679365499E+03  0.00000000000E+00 0. -1.
          6    2    1    2  501    0 -0.44550024573E+02 -0.85469552055E+02 -0.10089395158E+03  0.21982536347E+03  0.16986421619E+03 0.  0.
         24    2    3    3    0    0 -0.53075813941E+02 -0.48845842257E+01 -0.79320596130E+01  0.96412926972E+02  0.79947693707E+02 0.  0.
         -6    2    1    2    0  502  0.44550024573E+02  0.85469552055E+02  0.56770563005E+03  0.60057362499E+03  0.17061432421E+03 0.  0.
        -24    2    5    5    0    0  0.34415448720E+02  0.96024227356E+02  0.57047237381E+03  0.58495774623E+03  0.79572358538E+02 0.  0.
          5    1    3    3  501    0  0.85257893680E+01 -0.80584967830E+02 -0.92961891963E+02  0.12341243650E+03  0.47000000000E+01 0. -1.
        -13    1    4    4    0    0 -0.11540843107E+00  0.31659855186E+02 -0.44772734058E+01  0.31975079775E+02  0.00000000000E+00 0.  1.
         14    1    4    4    0    0 -0.52960405510E+02 -0.36544439411E+02 -0.34547862073E+01  0.64437847197E+02  0.00000000000E+00 0. -1.
         -5    1    5    5    0  502  0.10134575852E+02 -0.10554675301E+02 -0.27667437618E+01  0.15615878760E+02  0.47000000000E+01 0.  1.
         13    1    6    6    0    0  0.30571962824E+02  0.10226028150E+03  0.39012816792E+03  0.40446482849E+03  0.00000000000E+00 0. -1.
        -14    1    6    6    0    0  0.38434858963E+01 -0.62360541410E+01  0.18034420589E+03  0.18049291774E+03  0.00000000000E+00 0.  1.
</event>
<event>
12    1  0.1629553E-001  0.2045666E+03  0.7818608E-02  0.1145999E+00
         21   -1    0    0  501  502  0.00000000000E+00  0.00000000000E+00  0.19242173463E+03  0.19242173463E+03  0.00000000000E+00 0.  1.
         21   -1    0    0  502  503 -0.00000000000E+00 -0.00000000000E+00 -0.58061491781E+03  0.58061491781E+03  0.00000000000E+00 0.  1.
         -6    2    1    2    0  503 -0.89757869190E+02  0.64471369453E+02 -0.49994379576E+03  0.54017709209E+03  0.17214662164E+03 0.  0.
        -24    2    3    3    0    0 -0.72127467365E+02  0.12457505707E+02 -0.13951601365E+03  0.17555873105E+03  0.77450558339E+02 0.  0.
          6    2    1    2  501    0  0.89757869190E+02 -0.64471369453E+02  0.11175061258E+03  0.23285956036E+03  0.17182067069E+03 0.  0.
         24    2    5    5    0    0  0.66383492894E+02 -0.37245008275E+02  0.14547489552E+03  0.18339185908E+03  0.81704773300E+02 0.  0.
          5    1    5    5  501    0  0.23374376296E+02 -0.27226361178E+02 -0.33724282939E+02  0.49467701280E+02  0.47000000000E+01 0. -1.
        -13    1    6    6    0    0  0.72744867784E+02  0.41602507848E+00  0.10503009166E+03  0.12776270590E+03  0.00000000000E+00 0.  1.
         14    1    6    6    0    0 -0.63613748898E+01 -0.37661033354E+02  0.40444803856E+02  0.55629153172E+02  0.00000000000E+00 0. -1.
         -5    1    3    3    0  503 -0.17630401826E+02  0.52013863746E+02 -0.36042778211E+03  0.36461836104E+03  0.47000000000E+01 0.  1.
         13    1    4    4    0    0  0.15418549731E+01 -0.16701971918E+02 -0.63796297040E+02  0.65964389626E+02  0.00000000000E+00 0. -1.
        -14    1    4    4    0    0 -0.73669322338E+02  0.29159477625E+02 -0.75719716605E+02  0.10959434142E+03  0.00000000000E+00 0.  1.
</event>
<event>
12    1  0.1629553E-001  0.2169010E+03  0.7818608E-02  0.1137125E+00
         21   -1    0    0  501  502  0.00000000000E+00  0.00000000000E+00  0.15833599460E+03  0.15833599460E+03  0.00000000000E+00 0. -1.
         21   -1    0    0  502  503 -0.00000000000E+00 -0.00000000000E+00 -0.30676384251E+03  0.30676384251E+03  0.00000000000E+00 0. -1.
         -6    2    1    2    0  503 -0.40453132670E+02  0.11819639501E+03 -0.21729308581E+02  0.21798674327E+03  0.17731106467E+03 0.  0.
        -24    2    3    3    0    0 -0.80427905915E+02  0.13216083131E+03 -0.13355426686E+02  0.17456785481E+03  0.79752336183E+02 0.  0.
          6    2    1    2  501    0  0.40453132670E+02 -0.11819639501E+03 -0.12669853933E+03  0.24711309384E+03  0.17148037072E+03 0.  0.
         24    2    5    5    0    0 -0.32835116575E+01 -0.58919194347E+02 -0.14041026646E+03  0.17203458802E+03  0.79991272254E+02 0.  0.
          5    1    5    5  501    0  0.43736644327E+02 -0.59277200664E+02  0.13711727128E+02  0.75078505821E+02  0.47000000000E+01 0. -1.
        -13    1    6    6    0    0 -0.18416807296E+02  0.15020314609E+02 -0.29516508471E+02  0.37894761040E+02  0.00000000000E+00 0.  1.
         14    1    6    6    0    0  0.15133295639E+02 -0.73939508956E+02 -0.11089375799E+03  0.13413982698E+03  0.00000000000E+00 0. -1.
         -5    1    3    3    0  503  0.39974773246E+02 -0.13964436303E+02 -0.83738818950E+01  0.43418888462E+02  0.47000000000E+01 0.  1.
         11    1    4    4    0    0 -0.29332971571E+02  0.34824940424E+02 -0.40936503839E+02  0.61229053914E+02  0.00000000000E+00 0. -1.
        -12    1    4    4    0    0 -0.51094934344E+02  0.97335890890E+02  0.27581077152E+02  0.11333880089E+03  0.00000000000E+00 0.  1.
</event>
<event>
12    1  0.1629553E-001  0.2282000E+03  0.7818608E-02  0.1128072E+00
         21   -1    0    0  503  502  0.00000000000E+00  0.00000000000E+00  0.10610756915E+04  0.10610756915E+04  0.00000000000E+00 0. -1.
         21   -1    0    0  501  503 -0.00000000000E+00 -0.00000000000E+00 -0.51231741710E+02  0.51231741710E+02  0.00000000000E+00 0.  1.
          6    2    1    2  501    0 -0.72018542194E+02  0.12974586195E+03  0.38496011115E+03  0.44705932809E+03  0.17218332249E+03 0.  0.
         24    2    3    3    0    0  0.17791347264E+02  0.94584855079E+02  0.24851336880E+03  0.27990097160E+03  0.85573550699E+02 0.  0.
         -6    2    1    2    0  502  0.72018542194E+02 -0.12974586195E+03  0.62488383865E+03  0.66524810513E+03  0.17336254054E+03 0.  0.
        -24    2    5    5    0    0  0.34627749846E+02 -0.15009163885E+03  0.56905680500E+03  0.59488639909E+03  0.79609040934E+02 0.  0.
          5    1    3    3  501    0 -0.89809889457E+02  0.35161006867E+02  0.13644674235E+03  0.16715835649E+03  0.47000000000E+01 0. -1.
        -11    1    4    4    0    0 -0.15298664333E+02  0.91840852014E+02  0.20511570481E+03  0.22525817097E+03  0.00000000000E+00 0.  1.
         12    1    4    4    0    0  0.33090011597E+02  0.27440030650E+01  0.43397663993E+02  0.54642800627E+02  0.00000000000E+00 0. -1.
         -5    1    5    5    0  502  0.37390792347E+02  0.20345776905E+02  0.55827033652E+02  0.70361706038E+02  0.47000000000E+01 0.  1.
         11    1    6    6    0    0  0.59246610693E+02 -0.10538936957E+03  0.43342160799E+03  0.44996818817E+03  0.00000000000E+00 0. -1.
        -12    1    6    6    0    0 -0.24618860847E+02 -0.44702269277E+02  0.13563519701E+03  0.14491821092E+03  0.00000000000E+00 0.  1.
</event>
<event>
12    1  0.1629553E-001  0.2458972E+03  0.7818608E-02  0.1115971E+00
         21   -1    0    0  501  502  0.00000000000E+00  0.00000000000E+00  0.87516910240E+03  0.87516910240E+03  0.00000000000E+00 0.  1.
         21   -1    0    0  502  503 -0.00000000000E+00 -0.00000000000E+00 -0.70160995256E+02  0.70160995256E+02  0.00000000000E+00 0.  1.
         -6    2    1    2    0  503 -0.11323191916E+03  0.13248924708E+03  0.46322625988E+03  0.52444637141E+03  0.17346630951E+03 0.  0.
        -24    2    3    3    0    0 -0.67923766938E+02  0.11848882079E+03  0.19556065146E+03  0.25257175229E+03  0.83037840083E+02 0.  0.
          6    2    1    2  501    0  0.11323191916E+03 -0.13248924708E+03  0.34178184727E+03  0.42088372625E+03  0.17307053993E+03 0.  0.
         24    2    5    5    0    0  0.13794469200E+03 -0.66141022452E+02  0.26506161331E+03  0.31638065284E+03  0.80222725835E+02 0.  0.
          5    1    5    5  501    0 -0.24712772844E+02 -0.66348224629E+02  0.76720233958E+02  0.10450307341E+03  0.47000000000E+01 0. -1.
        -11    1    6    6    0    0  0.76244250584E+02 -0.61686189586E+02  0.99810717389E+02  0.13993052218E+03  0.00000000000E+00 0.  1.
         12    1    6    6    0    0  0.61700441416E+02 -0.44548328665E+01  0.16525089592E+03  0.17645013066E+03  0.00000000000E+00 0. -1.
         -5    1    3    3    0  503 -0.45308152217E+02  0.14000426288E+02  0.26766560841E+03  0.27187461912E+03  0.47000000000E+01 0.  1.
         11    1    4    4    0    0  0.38519869445E+01  0.81740138198E+01  0.70310386781E+02  0.70888664782E+02  0.00000000000E+00 0. -1.
        -12    1    4    4    0    0 -0.71775753883E+02  0.11031480697E+03  0.12525026468E+03  0.18168308750E+03  0.00000000000E+00 0.  1.
</event>
<event>
12    1  0.1629553E-001  0.2123470E+03  0.7818608E-02  0.1139939E+00
         21   -1    0    0  503  502  0.00000000000E+00  0.00000000000E+00  0.52389382132E+03  0.52389382132E+03  0.00000000000E+00 0.  1.
         21   -1    0    0  501  503 -0.00000000000E+00 -0.00000000000E+00 -0.12444819703E+03  0.12444819703E+03  0.00000000000E+00 0.  1.
          6    2    1    2  501    0 -0.90496626103E+02  0.85004746084E+02  0.19006653162E+02  0.21319590146E+03  0.17226663444E+03 0.  0.
         24    2    3    3    0    0 -0.12757162426E+03  0.80921592838E+02  0.36193946450E+02  0.17185922671E+03  0.73503527408E+02 0.  0.
         -6    2    1    2    0  502  0.90496626103E+02 -0.85004746084E+02  0.38043897113E+03  0.43514611690E+03  0.17088851951E+03 0.  0.
        -24    2    5    5    0    0  0.70286510367E+02 -0.10016782184E+03  0.38290407078E+03  0.40932879014E+03  0.77205860821E+02 0.  0.
          5    1    3    3  501    0  0.37074998157E+02  0.40831532456E+01 -0.17187293288E+02  0.41336674749E+02  0.47000000000E+01 0. -1.
        -11    1    4    4    0    0 -0.76649639221E+02  0.55136277174E+01  0.12772018693E+02  0.77901808353E+02  0.00000000000E+00 0.  1.
         12    1    4    4    0    0 -0.50921985039E+02  0.75407965121E+02  0.23421927758E+02  0.93957418355E+02  0.00000000000E+00 0. -1.
         -5    1    5    5    0  502  0.20210115735E+02  0.15163075759E+02 -0.24650996472E+01  0.25817326755E+02  0.47000000000E+01 0.  1.
         11    1    6    6    0    0  0.29926938380E+02 -0.19002192992E+02  0.22057436704E+03  0.22340491573E+03  0.00000000000E+00 0. -1.
        -12    1    6    6    0    0  0.40359571987E+02 -0.81165628851E+02  0.16232970375E+03  0.18592387441E+03  0.00000000000E+00 0.  1.
</event>
<event>
12    1  0.1629553E-001  0.2184297E+03  0.7818608E-02  0.1135085E+00
         21   -1    0    0  501  502  0.00000000000E+00  0.00000000000E+00  0.10988480814E+04  0.10988480814E+04  0.00000000000E+00 0.  1.
         21   -1    0    0  502  503 -0.00000000000E+00 -0.00000000000E+00 -0.64245944672E+02  0.64245944672E+02  0.00000000000E+00 0.  1.
         -6    2    1    2    0  503 -0.10127341024E+03  0.89619571354E+02  0.84873241336E+03  0.87638933121E+03  0.17153302650E+03 0.  0.
        -24    2    3    3    0    0 -0.94082567997E+02  0.11393982380E+03  0.51801883212E+03  0.54467146056E+03  0.80558528241E+02 0.  0.
          6    2    1    2  501    0  0.10127341024E+03 -0.89619571354E+02  0.18586972337E+03  0.28670469486E+03  0.17135943744E+03 0.  0.
         24    2    5    5    0    0  0.10796704602E+01 -0.67548182092E+02  0.13848958904E+03  0.17359899720E+03  0.79958257627E+02 0.  0.
          5    1    5    5  501    0  0.10019373978E+03 -0.22071389261E+02  0.47380134329E+02  0.11310569767E+03  0.47000000000E+01 0. -1.
        -13    1    6    6    0    0  0.98507028357E+01  0.74985668582E+01  0.71677260241E+02  0.72738535089E+02  0.00000000000E+00 0.  1.
         14    1    6    6    0    0 -0.87710323755E+01 -0.75046748950E+02  0.66812328802E+02  0.10086046211E+03  0.00000000000E+00 0. -1.
         -5    1    3    3    0  503 -0.71908422460E+01 -0.24320252442E+02  0.33071358124E+03  0.33171787065E+03  0.47000000000E+01 0.  1.
         13    1    4    4    0    0 -0.63677827233E+01  0.11081835299E+02  0.18246144559E+03  0.18290854233E+03  0.00000000000E+00 0. -1.
        -14    1    4    4    0    0 -0.87714785273E+02  0.10285798850E+03  0.33555738653E+03  0.36176291823E+03  0.00000000000E+00 0.  1.
</event>
<event>
12    1  0.1629553E-001  0.1777888E+03  0.7818608E-02  0.1170216E+00
         21   -1    0    0  503  502  0.00000000000E+00  0.00000000000E+00  0.28160312213E+03  0.28160312213E+03  0.00000000000E+00 0. -1.
         21   -1    0    0  501  503 -0.00000000000E+00 -0.00000000000E+00 -0.18202343134E+03  0.18202343134E+03  0.00000000000E+00 0. -1.
          6    2    1    2  501    0  0.37471116712E+02  0.23988653571E+02 -0.94316251061E+02  0.20125712369E+03  0.17213173599E+03 0.  0.
         24    2    3    3    0    0  0.82988848445E+02 -0.51481115518E-01 -0.95461759540E+02  0.14955418212E+03  0.79789436881E+02 0.  0.
         -6    2    1    2    0  502 -0.37471116712E+02 -0.23988653571E+02  0.19389594185E+03  0.26236942978E+03  0.17106297476E+03 0.  0.
        -24    2    5    5    0    0  0.42005658227E+02 -0.32071465636E+02  0.10786307600E+03  0.14487205274E+03  0.80996384305E+02 0.  0.
          5    1    3    3  501    0 -0.45517731733E+02  0.24040134686E+02  0.11455084793E+01  0.51702941575E+02  0.47000000000E+01 0. -1.
        -13    1    4    4    0    0  0.16317350360E+02  0.10386287659E+02  0.11925537420E+02  0.22723321431E+02  0.00000000000E+00 0.  1.
         14    1    4    4    0    0  0.66671498086E+02 -0.10437768775E+02 -0.10738729696E+03  0.12683086069E+03  0.00000000000E+00 0. -1.
         -5    1    5    5    0  502 -0.79476774938E+02  0.80828120656E+01  0.86032865847E+02  0.11749737704E+03  0.47000000000E+01 0.  1.
         13    1    6    6    0    0 -0.23331041983E+02 -0.15797631057E+02  0.42787083082E+02  0.51231212612E+02  0.00000000000E+00 0. -1.
        -14    1    6    6    0    0  0.65336700209E+02 -0.16273834579E+02  0.65075992918E+02  0.93640840131E+02  0.00000000000E+00 0.  1.
</event>
<event>
12    1  0.1629553E-001  0.2168487E+03  0.7818608E-02  0.1136438E+00
         21   -1    0    0  501  502  0.00000000000E+00  0.00000000000E+00  0.41250704497E+03  0.41250704497E+03  0.00000000000E+00 0. -1.
         21   -1    0    0  502  503 -0.00000000000E+00 -0.00000000000E+00 -0.11406727159E+03  0.11406727159E+03  0.00000000000E+00 0. -1.
         -6    2    1    2    0  503  0.72095666028E+02 -0.10989339726E+03  0.16767194017E+03  0.27334798599E+03  0.17126265823E+03 0.  0.
        -24    2    3    3    0    0  0.32192756289E+02 -0.14068140920E+03  0.13882252285E+03  0.21508545288E+03  0.78501125696E+02 0.  0.
          6    2    1    2  501    0 -0.72095666028E+02  0.10989339726E+03  0.13076783320E+03  0.25322633057E+03  0.17247899720E+03 0.  0.
         24    2    5    5    0    0 -0.46340890454E+02 -0.83750864805E+01  0.43798989130E+02  0.10410754386E+03  0.81868241943E+02 0.  0.
          5    1    5    5  501    0 -0.25754775573E+02  0.11826848374E+03  0.86968844074E+02  0.14911878671E+03  0.47000000000E+01 0. -1.
        -13    1    6    6    0    0  0.36620480320E+01  0.20142964925E+02 -0.12172268539E+02  0.23818349085E+02  0.00000000000E+00 0.  1.
         14    1    6    6    0    0 -0.50002938486E+02 -0.28518051405E+02  0.55971257669E+02  0.80289194779E+02  0.00000000000E+00 0. -1.
         -5    1    3    3    0  503  0.39902909739E+02  0.30788011943E+02  0.28849417312E+02  0.58262533109E+02  0.47000000000E+01 0.  1.
         13    1    4    4    0    0  0.58274241703E+02 -0.92822229812E+02  0.87877007043E+02  0.14047854626E+03  0.00000000000E+00 0. -1.
        -14    1    4    4    0    0 -0.26081485415E+02 -0.47859179388E+02  0.50945515812E+02  0.74606906613E+02  0.00000000000E+00 0.  1.
</event>
<event>
12    1  0.1629553E-001  0.2973806E+03  0.7818608E-02  0.1086561E+00
         21   -1    0    0  503  502  0.00000000000E+00  0.00000000000E+00  0.64834882974E+03  0.64834882974E+03  0.00000000000E+00 0.  1.
         21   -1    0    0  501  503 -0.00000000000E+00 -0.00000000000E+00 -0.15271712487E+03  0.15271712487E+03  0.00000000000E+00 0. -1.
          6    2    1    2  501    0  0.12129817011E+03  0.20950809196E+03  0.11684935942E+03  0.31951367201E+03  0.17270879287E+03 0.  0.
         24    2    3    3    0    0  0.13645974464E+03  0.13662856403E+03  0.12674006910E+03  0.24427262555E+03  0.79482350635E+02 0.  0.
         -6    2    1    2    0  502 -0.12129817011E+03 -0.20950809196E+03  0.37878234546E+03  0.48155228260E+03  0.17265471026E+03 0.  0.
        -24    2    5    5    0    0 -0.15243809743E+03 -0.14364998914E+03  0.27678921889E+03  0.35612631779E+03  0.79630330916E+02 0.  0.
          5    1    3    3  501    0 -0.15161574525E+02  0.72879527937E+02 -0.98907096847E+01  0.75241046461E+02  0.47000000000E+01 0. -1.
        -13    1    4    4    0    0  0.23438060450E+02  0.55720983430E+02  0.74131142627E+02  0.95653525702E+02  0.00000000000E+00 0.  1.
         14    1    4    4    0    0  0.11302168419E+03  0.80907580597E+02  0.52608926475E+02  0.14861909985E+03  0.00000000000E+00 0. -1.
         -5    1    5    5    0  502  0.31139927316E+02 -0.65858102820E+02  0.10199312657E+03  0.12542596481E+03  0.47000000000E+01 0.  1.
         11    1    6    6    0    0  0.30478000995E+01 -0.27746715454E+02  0.20022227759E+02  0.34351985509E+02  0.00000000000E+00 0. -1.
        -12    1    6    6    0    0 -0.15548589753E+03 -0.11590327369E+03  0.25676699113E+03  0.32177433228E+03  0.00000000000E+00 0.  1.
</event>
<event>
12    1  0.1629553E-001  0.1788223E+03  0.7818608E-02  0.1169001E+00
         21   -1    0    0  501  502  0.00000000000E+00  0.00000000000E+00  0.11008866022E+03  0.11008866022E+03  0.00000000000E+00 0.  1.
         21   -1    0    0  502  503 -0.00000000000E+00 -0.00000000000E+00 -0.44654056663E+03  0.44654056663E+03  0.00000000000E+00 0.  1.
         -6    2    1    2    0  503 -0.37220571645E+02  0.35033387337E+02 -0.33301696288E+03  0.37799167125E+03  0.17136130481E+03 0.  0.
        -24    2    3    3    0    0 -0.48113325011E+02  0.60333182958E+01 -0.76275067824E+02  0.11934491067E+03  0.77936055574E+02 0.  0.
          6    2    1    2  501    0  0.37220571645E+02 -0.35033387337E+02 -0.34349435289E+01  0.17863755560E+03  0.17113406514E+03 0.  0.
         24    2    5    5    0    0  0.12914170934E+02 -0.87957803968E+02  0.70947768709E+01  0.11926786634E+03  0.79190510748E+02 0.  0.
          5    1    5    5  501    0  0.24306400711E+02  0.52924416631E+02 -0.10529720400E+02  0.59369689261E+02  0.47000000000E+01 0. -1.
        -13    1    6    6    0    0 -0.87001211706E+01 -0.76063732570E+02  0.33112042351E+02  0.83413373445E+02  0.00000000000E+00 0.  1.
         14    1    6    6    0    0  0.21614292105E+02 -0.11894071398E+02 -0.26017265480E+02  0.35854492894E+02  0.00000000000E+00 0. -1.
         -5    1    3    3    0  503  0.10892753366E+02  0.29000069041E+02 -0.25674189505E+03  0.25864676057E+03  0.47000000000E+01 0.  1.
         11    1    4    4    0    0  0.11367667832E+02 -0.20961359903E+02 -0.87600753739E+01  0.25403570644E+02  0.00000000000E+00 0. -1.
        -12    1    4    4    0    0 -0.59480992843E+02  0.26994678199E+02 -0.67514992451E+02  0.93941340028E+02  0.00000000000E+00 0.  1.
</event>
<event>
12    1  0.1629553E-001  0.1775828E+03  0.7818608E-02  0.1170499E+00
         21   -1    0    0  501  502  0.00000000000E+00  0.00000000000E+00  0.36238744137E+03  0.36238744137E+03  0.00000000000E+00 0. -1.
         21   -1    0    0  502  503 -0.00000000000E+00 -0.00000000000E+00 -0.15870550991E+03  0.15870550991E+03  0.00000000000E+00 0. -1.
         -6    2    1    2    0  503 -0.17678712565E+02  0.37079055731E+02 -0.73861051217E+02  0.19233068220E+03  0.17276644112E+03 0.  0.
        -24    2    3    3    0    0 -0.73422776010E+01 -0.38284065433E+02 -0.46061730145E+01  0.89351217867E+02  0.80267332072E+02 0.  0.
          6    2    1    2  501    0  0.17678712565E+02 -0.37079055731E+02  0.27754298268E+03  0.32876226908E+03  0.17136840166E+03 0.  0.
         24    2    5    5    0    0  0.75361886148E+02 -0.36803488094E+02  0.15604161697E+03  0.19418108050E+03  0.79519778524E+02 0.  0.
          5    1    5    5  501    0 -0.57683173583E+02 -0.27556763644E+00  0.12150136571E+03  0.13458118859E+03  0.47000000000E+01 0. -1.
        -11    1    6    6    0    0  0.25592285829E+02  0.19918552171E+02  0.18597808173E+02  0.37384385556E+02  0.00000000000E+00 0.  1.
         12    1    6    6    0    0  0.49769600319E+02 -0.56722040265E+02  0.13744380880E+03  0.15679669494E+03  0.00000000000E+00 0. -1.
         -5    1    3    3    0  503 -0.10336434964E+02  0.75363121164E+02 -0.69254878202E+02  0.10297946433E+03  0.47000000000E+01 0.  1.
         11    1    4    4    0    0  0.25320439404E+02 -0.13380103202E+02 -0.29667959913E+02  0.41235175017E+02  0.00000000000E+00 0. -1.
        -12    1    4    4    0    0 -0.32662717005E+02 -0.24903962231E+02  0.25061786899E+02  0.48116042850E+02  0.00000000000E+00 0.  1.
</event>
<event>
12    1  0.1629553E-001  0.1742664E+03  0.7818608E-02  0.1173547E+00
         21   -1    0    0  503  502  0.00000000000E+00  0.00000000000E+00  0.46798386212E+02  0.46798386212E+02  0.00000000000E+00 0. -1.
         21   -1    0    0  501  503 -0.00000000000E+00 -0.00000000000E+00 -0.77529452283E+03  0.77529452283E+03  0.00000000000E+00 0. -1.
          6    2    1    2  501    0  0.28481880569E+02  0.48679034168E+01 -0.53120165021E+03  0.55905631819E+03  0.17185418156E+03 0.  0.
         24    2    3    3    0    0 -0.33836820226E+02  0.43035029862E+02 -0.23067468391E+03  0.24973626148E+03  0.78488510647E+02 0.  0.
         -6    2    1    2    0  502 -0.28481880569E+02 -0.48679034168E+01 -0.19729448641E+03  0.26303659085E+03  0.17154655273E+03 0.  0.
        -24    2    5    5    0    0  0.88526677808E+01  0.36510305502E+02 -0.18544235642E+03  0.20586502747E+03  0.81118246075E+02 0.  0.
          5    1    3    3  501    0  0.62318700796E+02 -0.38167126445E+02 -0.30052696630E+03  0.30932005671E+03  0.47000000000E+01 0. -1.
        -13    1    4    4    0    0 -0.31261026894E+02  0.23048817179E+01 -0.25120186690E+02  0.40169491676E+02  0.00000000000E+00 0.  1.
         14    1    4    4    0    0 -0.25757933323E+01  0.40730148144E+02 -0.20555449722E+03  0.20956676981E+03  0.00000000000E+00 0. -1.
         -5    1    5    5    0  502 -0.37334548350E+02 -0.41378208919E+02 -0.11852129987E+02  0.57171563378E+02  0.47000000000E+01 0.  1.
         11    1    6    6    0    0 -0.23583895824E+02 -0.10501288702E+02 -0.98599544929E+02  0.10192324302E+03  0.00000000000E+00 0. -1.
        -12    1    6    6    0    0  0.32436563605E+02  0.47011594204E+02 -0.86842811493E+02  0.10394178446E+03  0.00000000000E+00 0.  1.
</event>
<event>
12    1  0.1629553E-001  0.1822272E+03  0.7818608E-02  0.1165731E+00
         21   -1    0    0  503  502  0.00000000000E+00  0.00000000000E+00  0.64278680840E+03  0.64278680840E+03  0.00000000000E+00 0.  1.
         21   -1    0    0  501  503 -0.00000000000E+00 -0.00000000000E+00 -0.59424998804E+02  0.59424998804E+02  0.00000000000E+00 0.  1.
          6    2    1    2  501    0 -0.55704722434E+02  0.23726678233E+02  0.16431706819E+03  0.24537082978E+03  0.17187429665E+03 0.  0.
         24    2    3    3    0    0 -0.94204002023E+02  0.49227069653E+02  0.10224381537E+03  0.16786184187E+03  0.80162970197E+02 0.  0.
         -6    2    1    2    0  502  0.55704722434E+02 -0.23726678233E+02  0.41904474140E+03  0.45684097742E+03  0.17157858838E+03 0.  0.
        -24    2    5    5    0    0  0.25889156617E+02  0.54038978646E+02  0.24451589184E+03  0.26340138818E+03  0.77471351418E+02 0.  0.
          5    1    3    3  501    0  0.38499279590E+02 -0.25500391419E+02  0.62073252821E+02  0.77508987912E+02  0.47000000000E+01 0. -1.
        -13    1    4    4    0    0 -0.93648085441E+02  0.22758396388E+02  0.10341721367E+03  0.14136134053E+03  0.00000000000E+00 0.  1.
         14    1    4    4    0    0 -0.55591658212E+00  0.26468673265E+02 -0.11733983027E+01  0.26500501339E+02  0.00000000000E+00 0. -1.
         -5    1    5    5    0  502  0.29815565817E+02 -0.77765656879E+02  0.17452884956E+03  0.19343958924E+03  0.47000000000E+01 0.  1.
         13    1    6    6    0    0  0.84374141302E+01 -0.11416146930E+02  0.12674722955E+03  0.12753971368E+03  0.00000000000E+00 0. -1.
        -14    1    6    6    0    0  0.17451742487E+02  0.65455125576E+02  0.11776866229E+03  0.13586167450E+03  0.00000000000E+00 0.  1.
</event>
<event>
12    1  0.1629553E-001  0.2770445E+03  0.7818608E-02  0.1097340E+00
         21   -1    0    0  503  502  0.00000000000E+00  0.00000000000E+00  0.79617339022E+03  0.79617339022E+03  0.00000000000E+00 0.  1.
         21   -1    0    0  501  503 -0.00000000000E+00 -0.00000000000E+00 -0.17671670884E+03  0.17671670884E+03  0.00000000000E+00 0.  1.
          6    2    1    2  501    0  0.11711051471E+03 -0.18227292194E+03 -0.18283156397E+02  0.27764714064E+03  0.17267127779E+03 0.  0.
         24    2    3    3    0    0  0.23301914706E+01 -0.10670328788E+03 -0.33911528995E+02  0.13925773273E+03  0.82775013669E+02 0.  0.
         -6    2    1    2    0  502 -0.11711051471E+03  0.18227292194E+03  0.63773983777E+03  0.69524295842E+03  0.17237279316E+03 0.  0.
        -24    2    5    5    0    0 -0.65268220486E+02  0.86657956290E+02  0.17787441998E+03  0.22266689300E+03  0.78560129593E+02 0.  0.
          5    1    3    3  501    0  0.11478032324E+03 -0.75569634056E+02  0.15628372598E+02  0.13838940792E+03  0.47000000000E+01 0. -1.
        -13    1    4    4    0    0 -0.85188321526E+01 -0.77905873507E+02  0.16601297344E+02  0.80109292231E+02  0.00000000000E+00 0.  1.
         14    1    4    4    0    0  0.10849023623E+02 -0.28797414375E+02 -0.50512826339E+02  0.59148440495E+02  0.00000000000E+00 0. -1.
         -5    1    5    5    0  502 -0.51842294221E+02  0.95614965648E+02  0.45986541779E+03  0.47257606541E+03  0.47000000000E+01 0.  1.
         13    1    6    6    0    0 -0.31929037429E+02  0.19280065770E+02  0.98273002647E+01  0.38571494626E+02  0.00000000000E+00 0. -1.
        -14    1    6    6    0    0 -0.33339183057E+02  0.67377890521E+02  0.16804711972E+03  0.18409539838E+03  0.00000000000E+00 0.  1.
</event>
<event>
12    1  0.1629553E-001  0.1824646E+03  0.7818608E-02  0.1166512E+00
         21   -1    0    0  503  502  0.00000000000E+00  0.00000000000E+00  0.16468809204E+03  0.16468809204E+03  0.00000000000E+00 0. -1.
         21   -1    0    0  501  503 -0.00000000000E+00 -0.00000000000E+00 -0.19843728220E+03  0.19843728220E+03  0.00000000000E+00 0. -1.
          6    2    1    2  501    0  0.31988469997E+02  0.44689194605E+02 -0.26553097230E+01  0.17803040382E+03  0.16931446390E+03 0.  0.
         24    2    3    3    0    0  0.44000778501E+02  0.19132720668E+02  0.58791915488E+02  0.11024190626E+03  0.79966612153E+02 0.  0.
         -6    2    1    2    0  502 -0.31988469997E+02 -0.44689194605E+02 -0.31093880432E+02  0.18509497042E+03  0.17399118469E+03 0.  0.
        -24    2    5    5    0    0 -0.86055870352E+02 -0.46986298908E+02 -0.24371759732E+02  0.13036072725E+03  0.82380892377E+02 0.  0.
          5    1    3    3  501    0 -0.12012308505E+02  0.25556473937E+02 -0.61447225211E+02  0.67788497563E+02  0.47000000000E+01 0. -1.
        -13    1    4    4    0    0  0.14770318876E+01 -0.26710477029E+02  0.38935548186E+01  0.27033145867E+02  0.00000000000E+00 0.  1.
         14    1    4    4    0    0  0.42523746614E+02  0.45843197697E+02  0.54898360670E+02  0.83208760388E+02  0.00000000000E+00 0. -1.
         -5    1    5    5    0  502  0.54067400356E+02  0.22971043031E+01 -0.67221206992E+01  0.54734243176E+02  0.47000000000E+01 0.  1.
         11    1    6    6    0    0 -0.42886393522E+02 -0.24328933098E+01 -0.47600972252E+02  0.64117191755E+02  0.00000000000E+00 0. -1.
        -12    1    6    6    0    0 -0.43169476830E+02 -0.44553405598E+02  0.23229212520E+02  0.66243535492E+02  0.00000000000E+00 0.  1.
</event>
<event>
12    1  0.1629553E-001  0.2098915E+03  0.7818608E-02  0.1142882E+00
         21   -1    0    0  503  502  0.00000000000E+00  0.00000000000E+00  0.10735735127E+03  0.10735735127E+03  0.00000000000E+00 0.  1.
         21   -1    0    0  501  503 -0.00000000000E+00 -0.00000000000E+00 -0.10427260899E+04  0.10427260899E+04  0.00000000000E+00 0.  1.
          6    2    1    2  501    0 -0.76061888240E+02 -0.79493776766E+02 -0.92230263965E+03  0.94588403402E+03  0.17874500084E+03 0.  0.
         24    2    3    3    0    0 -0.65840291590E+02 -0.10113341536E+03 -0.90174202488E+03  0.91398444349E+03  0.87555535581E+02 0.  0.
         -6    2    1    2    0  502  0.76061888240E+02  0.79493776766E+02 -0.13066099030E+02  0.20419940719E+03  0.17152843369E+03 0.  0.
        -24    2    5    5    0    0  0.44560499636E+02  0.10464406799E+03 -0.51416508267E+02  0.14836287326E+03  0.80198913633E+02 0.  0.
          5    1    3    3  501    0 -0.10221596650E+02  0.21639638589E+02 -0.20560614773E+02  0.31899590533E+02  0.47000000000E+01 0. -1.
        -13    1    4    4    0    0 -0.76391923297E+02 -0.62616050862E+02 -0.46246349853E+03  0.47289426222E+03  0.00000000000E+00 0.  1.
         14    1    4    4    0    0  0.10551631706E+02 -0.38517364494E+02 -0.43927852635E+03  0.44109018127E+03  0.00000000000E+00 0. -1.
         -5    1    5    5    0  502  0.31501388604E+02 -0.25150291219E+02  0.38350409237E+02  0.55836533927E+02  0.47000000000E+01 0.  1.
         13    1    6    6    0    0 -0.10850404704E+02  0.14454653213E+01 -0.26411332461E+02  0.28589843207E+02  0.00000000000E+00 0. -1.
        -14    1    6    6    0    0  0.55410904340E+02  0.10319860266E+03 -0.25005175807E+02  0.11977303006E+03  0.00000000000E+00 0.  1.
</event>
<event>
12    1  0.1629553E-001  0.2167859E+03  0.7818608E-02  0.1136701E+00
         21   -1    0    0  501  502  0.00000000000E+00  0.00000000000E+00  0.95421542413E+03  0.95421542413E+03  0.00000000000E+00 0. -1.
         21   -1    0    0  502  503 -0.00000000000E+00 -0.00000000000E+00 -0.59336055712E+02  0.59336055712E+02  0.00000000000E+00 0. -1.
         -6    2    1    2    0  503 -0.73361716499E+02  0.11648206368E+03  0.23188906924E+03  0.31601849861E+03  0.16475781750E+03 0.  0.
        -24    2    3    3    0    0 -0.13368280523E+02 -0.30849682779E+01  0.86655261458E+02  0.11850790038E+03  0.79666556106E+02 0.  0.
          6    2    1    2  501    0  0.73361716499E+02 -0.11648206368E+03  0.66299029919E+03  0.69753298123E+03  0.16746973005E+03 0.  0.
         24    2    5    5    0    0  0.53595643065E+02 -0.15208941337E+03  0.52597904159E+03  0.55451984995E+03  0.69531497763E+02 0.  0.
          5    1    5    5  501    0  0.19766073434E+02  0.35607349690E+02  0.13701125760E+03  0.14301313128E+03  0.47000000000E+01 0. -1.
        -11    1    6    6    0    0  0.20678055936E+02 -0.83482302611E+01  0.32023298810E+02  0.39022642305E+02  0.00000000000E+00 0.  1.
         12    1    6    6    0    0  0.32917587129E+02 -0.14374118311E+03  0.49395574278E+03  0.51549720764E+03  0.00000000000E+00 0. -1.
         -5    1    3    3    0  503 -0.59993435976E+02  0.11956703196E+03  0.14523380778E+03  0.19751059823E+03  0.47000000000E+01 0.  1.
         13    1    4    4    0    0 -0.19137368551E+02  0.35226796603E+02  0.57147792736E+02  0.69807136373E+02  0.00000000000E+00 0. -1.
        -14    1    4    4    0    0  0.57690880276E+01 -0.38311764881E+02  0.29507468722E+02  0.48700764012E+02  0.00000000000E+00 0.  1.
</event>
<event>
12    1  0.1629553E-001  0.1758303E+03  0.7818608E-02  0.1172161E+00
         21   -1    0    0  503  502  0.00000000000E+00  0.00000000000E+00  0.33978464287E+02  0.33978464287E+02  0.00000000000E+00 0. -1.
         21   -1    0    0  501  503 -0.00000000000E+00 -0.00000000000E+00 -0.91757714958E+03  0.91757714958E+03  0.00000000000E+00 0. -1.
          6    2    1    2  501    0  0.24473162048E+02 -0.20719437761E+02 -0.38369779549E+03  0.42163373956E+03  0.17182194653E+03 0.  0.
         24    2    3    3    0    0  0.33226753685E+02 -0.73918509821E+02 -0.20229558174E+03  0.23233075546E+03  0.80536415915E+02 0.  0.
         -6    2    1    2    0  502 -0.24473162048E+02  0.20719437761E+02 -0.49990088981E+03  0.52992187431E+03  0.17288164298E+03 0.  0.
        -24    2    5    5    0    0  0.44497252173E+02  0.17616451561E+02 -0.25253451680E+03  0.27305856620E+03  0.92178921560E+02 0.  0.
          5    1    3    3  501    0 -0.87535916371E+01  0.53199072060E+02 -0.18140221375E+03  0.18930298410E+03  0.47000000000E+01 0. -1.
        -11    1    4    4    0    0  0.18694876914E+02 -0.78141666055E+02 -0.97007099149E+02  0.12596029407E+03  0.00000000000E+00 0.  1.
         12    1    4    4    0    0  0.14531876771E+02  0.42231562347E+01 -0.10528848259E+03  0.10637046139E+03  0.00000000000E+00 0. -1.
         -5    1    5    5    0  502 -0.68970414221E+02  0.31029861995E+01 -0.24736637301E+03  0.25686330811E+03  0.47000000000E+01 0.  1.
         11    1    6    6    0    0 -0.10173286330E+02  0.36314083585E+02 -0.51151794426E+02  0.63550881145E+02  0.00000000000E+00 0. -1.
        -12    1    6    6    0    0  0.54670538504E+02 -0.18697632023E+02 -0.20138272238E+03  0.20950768505E+03  0.00000000000E+00 0.  1.
</event>
<event>
12    1  0.1629553E-001  0.2535392E+03  0.7818608E-02  0.1111115E+00
         21   -1    0    0  501  502  0.00000000000E+00  0.00000000000E+00  0.42813693473E+03  0.42813693473E+03  0.00000000000E+00 0.  1.
         21   -1    0    0  502  503 -0.00000000000E+00 -0.00000000000E+00 -0.24796415690E+03  0.24796415690E+03  0.00000000000E+00 0.  1.
         -6    2    1    2    0  503 -0.18616511519E+03 -0.55616965030E+01 -0.12233140428E+03  0.28150857212E+03  0.17202825676E+03 0.  0.
        -24    2    3    3    0    0 -0.73394185219E+02 -0.66563450584E+02 -0.53056850366E+02  0.13570202060E+03  0.76043472080E+02 0.  0.
          6    2    1    2  501    0  0.18616511519E+03  0.55616965030E+01  0.30250418211E+03  0.39459251951E+03  0.17177337884E+03 0.  0.
         24    2    5    5    0    0  0.78444481495E+02 -0.77914325319E+01  0.24988399896E+03  0.27387377758E+03  0.79690589215E+02 0.  0.
          5    1    5    5  501    0  0.10772063370E+03  0.13353129035E+02  0.52620183149E+02  0.12071874193E+03  0.47000000000E+01 0. -1.
        -13    1    6    6    0    0  0.77853237855E+02 -0.17606695426E+02  0.25154153254E+03  0.26390199879E+03  0.00000000000E+00 0.  1.
         14    1    6    6    0    0  0.59124363977E+00  0.98152628937E+01 -0.16575335816E+01  0.99717787926E+01  0.00000000000E+00 0. -1.
         -5    1    3    3    0  503 -0.11277092997E+03  0.61001754081E+02 -0.69274553910E+02  0.14580655152E+03  0.47000000000E+01 0.  1.
         11    1    4    4    0    0 -0.36890478092E+02 -0.61467486588E+02 -0.72284819447E+00  0.71691574057E+02  0.00000000000E+00 0. -1.
        -12    1    4    4    0    0 -0.36503707127E+02 -0.50959639966E+01 -0.52334002171E+02  0.64010446541E+02  0.00000000000E+00 0.  1.
</event>
<event>
12    1  0.1629553E-001  0.2124558E+03  0.7818608E-02  0.1140070E+00
         21   -1    0    0  503  502  0.00000000000E+00  0.00000000000E+00  0.83813756507E+03  0.83813756507E+03  0.00000000000E+00 0.  1.
         21   -1    0    0  501  503 -0.00000000000E+00 -0.00000000000E+00 -0.59784304727E+02  0.59784304727E+02  0.00000000000E+00 0. -1.
          6    2    1    2  501    0  0.85474100087E+02  0.88444796898E+02  0.24307524280E+03  0.32283594928E+03  0.17323155774E+03 0.  0.
         24    2    3    3    0    0  0.17369047135E+02  0.30294567017E+02  0.46453059116E+02  0.10672921502E+03  0.89519796965E+02 0.  0.
         -6    2    1    2    0  502 -0.85474100087E+02 -0.88444796898E+02  0.53527801754E+03  0.57508592052E+03  0.17050793540E+03 0.  0.
        -24    2    5    5    0    0 -0.11975669392E+03 -0.86050185729E+02  0.50148470004E+03  0.52665959803E+03  0.64320506983E+02 0.  0.
          5    1    3    3  501    0  0.68105052952E+02  0.58150229881E+02  0.19662218369E+03  0.21610673426E+03  0.47000000000E+01 0. -1.
        -13    1    4    4    0    0 -0.30101576145E+02  0.61966388898E+01  0.43695435559E+02  0.53420916396E+02  0.00000000000E+00 0.  1.
         14    1    4    4    0    0  0.47470623280E+02  0.24097928127E+02  0.27576235575E+01  0.53308298625E+02  0.00000000000E+00 0. -1.
         -5    1    5    5    0  502  0.34282593831E+02 -0.23946111695E+01  0.33793317497E+02  0.48426322490E+02  0.47000000000E+01 0.  1.
         11    1    6    6    0    0 -0.19815957574E+02  0.79950607328E+01  0.10339598239E+03  0.10558088059E+03  0.00000000000E+00 0. -1.
        -12    1    6    6    0    0 -0.99940736345E+02 -0.94045246461E+02  0.39808871765E+03  0.42107871744E+03  0.00000000000E+00 0.  1.
</event>
<event>
12    1  0.1629553E-001  0.1736415E+03  0.7818608E-02  0.1174311E+00
         21   -1    0    0  501  502  0.00000000000E+00  0.00000000000E+00  0.66343782610E+03  0.66343782610E+03  0.00000000000E+00 0. -1.
         21   -1    0    0  502  503 -0.00000000000E+00 -0.00000000000E+00 -0.52100362615E+02  0.52100362615E+02  0.00000000000E+00 0. -1.
         -6    2    1    2    0  503 -0.19369351135E+02  0.99232808533E+01  0.17515363938E+03  0.24606220984E+03  0.17144728185E+03 0.  0.
        -24    2    3    3    0    0 -0.39655160200E+02  0.34571078432E+02  0.18835445918E+03  0.21119991476E+03  0.79751554892E+02 0.  0.
          6    2    1    2  501    0  0.19369351135E+02 -0.99232808533E+01  0.43618382410E+03  0.46947597888E+03  0.17227223533E+03 0.  0.
         24    2    5    5    0    0  0.33895303986E+02  0.94380754427E+01  0.43668774728E+03  0.44481407785E+03  0.76976660904E+02 0.  0.
          5    1    5    5  501    0 -0.14525952851E+02 -0.19361356296E+02 -0.50392317863E+00  0.24661901030E+02  0.47000000000E+01 0. -1.
        -13    1    6    6    0    0  0.40172049904E+02  0.80421633479E+01  0.10002733492E+03  0.10809226483E+03  0.00000000000E+00 0.  1.
         14    1    6    6    0    0 -0.62767459172E+01  0.13959120948E+01  0.33666041236E+03  0.33672181301E+03  0.00000000000E+00 0. -1.
         -5    1    3    3    0  503  0.20285809065E+02 -0.24647797579E+02 -0.13200819795E+02  0.34862295079E+02  0.47000000000E+01 0.  1.
         11    1    4    4    0    0  0.10848253151E+02  0.40962403945E+02  0.10870657946E+03  0.11667357692E+03  0.00000000000E+00 0. -1.
        -12    1    4    4    0    0 -0.50503413351E+02 -0.63913255124E+01  0.79647879721E+02  0.94526337843E+02  0.00000000000E+00 0.  1.
</event>
<event>
12    1  0.1629553E-001  0.1740005E+03  0.7818608E-02  0.1173896E+00
         21   -1    0    0  501  502  0.00000000000E+00  0.00000000000E+00  0.51808734771E+02  0.51808734771E+02  0.00000000000E+00 0. -1.
         21   -1    0    0  502  503 -0.00000000000E+00 -0.00000000000E+00 -0.63872360502E+03  0.63872360502E+03  0.00000000000E+00 0. -1.
         -6    2    1    2    0  503 -0.56436086417E+00  0.24357229448E+02 -0.39655643935E+03  0.43305101352E+03  0.17228632443E+03 0.  0.
        -24    2    3    3    0    0 -0.61190625966E+02  0.34483837184E+02 -0.29942949601E+03  0.31801264893E+03  0.80873939335E+02 0.  0.
          6    2    1    2  501    0  0.56436086417E+00 -0.24357229448E+02 -0.19035843090E+03  0.25748132627E+03  0.17165869636E+03 0.  0.
         24    2    5    5    0    0  0.24015260550E+02 -0.43606353112E+02 -0.20423969004E+03  0.22378781335E+03  0.76739088106E+02 0.  0.
          5    1    5    5  501    0 -0.23450899686E+02  0.19249123664E+02  0.13881259145E+02  0.33693512927E+02  0.47000000000E+01 0. -1.
        -13    1    6    6    0    0 -0.26259257571E+02 -0.26472079312E+02 -0.67842811473E+02  0.77414253596E+02  0.00000000000E+00 0.  1.
         14    1    6    6    0    0  0.50274518121E+02 -0.17134273801E+02 -0.13639687857E+03  0.14637355975E+03  0.00000000000E+00 0. -1.
         -5    1    3    3    0  503  0.60626265102E+02 -0.10126607736E+02 -0.97126943340E+02  0.11503836459E+03  0.47000000000E+01 0.  1.
         13    1    4    4    0    0 -0.61060186058E+02 -0.10615980584E+02 -0.16896582174E+03  0.17997359328E+03  0.00000000000E+00 0. -1.
        -14    1    4    4    0    0 -0.13043990855E+00  0.45099817768E+02 -0.13046367428E+03  0.13803905564E+03  0.00000000000E+00 0.  1.
</event>
<event>
12    1  0.1629553E-001  0.1981805E+03  0.7818608E-02  0.1154544E+00
         21   -1    0    0  503  502  0.00000000000E+00  0.00000000000E+00  0.38540587274E+03  0.38540587274E+03  0.00000000000E+00 0. -1.
         21   -1    0    0  501  503 -0.00000000000E+00 -0.00000000000E+00 -0.95673365862E+02  0.95673365862E+02  0.00000000000E+00 0. -1.
          6    2    1    2  501    0 -0.30498426537E+01  0.66680345517E+02  0.12381232956E+03  0.23367714204E+03  0.18660102824E+03 0.  0.
         24    2    3    3    0    0  0.17534588921E+02 -0.25060259447E+02  0.10521438143E+02  0.86378216377E+02  0.80093802455E+02 0.  0.
         -6    2    1    2    0  502  0.30498426537E+01 -0.66680345517E+02  0.16592017732E+03  0.24740209657E+03  0.17094654757E+03 0.  0.
        -24    2    5    5    0    0 -0.37850834081E+02 -0.94028541205E+02  0.93907621931E+02  0.16005973973E+03  0.80786302197E+02 0.  0.
          5    1    3    3  501    0 -0.20584431575E+02  0.91740604965E+02  0.11329089141E+03  0.14729892566E+03  0.47000000000E+01 0. -1.
        -13    1    4    4    0    0 -0.11981035540E+02 -0.41756860753E+02  0.24298575688E+02  0.49775510174E+02  0.00000000000E+00 0.  1.
         14    1    4    4    0    0  0.29515624461E+02  0.16696601306E+02 -0.13777137545E+02  0.36602706203E+02  0.00000000000E+00 0. -1.
         -5    1    5    5    0  502  0.40900676735E+02  0.27348195688E+02  0.72012555392E+02  0.87342356842E+02  0.47000000000E+01 0.  1.
         13    1    6    6    0    0 -0.33795800866E+02 -0.10033641142E+03  0.52868546177E+02  0.11834117959E+03  0.00000000000E+00 0. -1.
        -14    1    6    6    0    0 -0.40550332148E+01  0.63078702114E+01  0.41039075755E+02  0.41718560136E+02  0.00000000000E+00 0.  1.
</event>
<event>
12    1  0.1629553E-001  0.1803110E+03  0.7818608E-02  0.1167656E+00
         21   -1    0    0  501  502  0.00000000000E+00  0.00000000000E+00  0.55257781840E+02  0.55257781840E+02  0.00000000000E+00 0. -1.
         21   -1    0    0  502  503 -0.00000000000E+00 -0.00000000000E+00 -0.98842540128E+03  0.98842540128E+03  0.00000000000E+00 0. -1.
         -6    2    1    2    0  503 -0.50230299753E+02 -0.13079911810E+02 -0.79992242086E+03  0.81999265348E+03  0.17267861839E+03 0.  0.
        -24    2    3    3    0    0  0.12548032309E+02  0.46364319136E+02 -0.41884978327E+03  0.42920731510E+03  0.80477793115E+02 0.  0.
          6    2    1    2  501    0  0.50230299753E+02  0.13079911810E+02 -0.13324519858E+03  0.22369052965E+03  0.17201454300E+03 0.  0.
         24    2    5    5    0    0  0.18133102199E+02 -0.48769556991E+02 -0.12161847981E+03  0.15288899385E+03  0.76659707311E+02 0.  0.
          5    1    5    5  501    0  0.32097197554E+02  0.61849468801E+02 -0.11626718772E+02  0.70801535797E+02  0.47000000000E+01 0. -1.
        -11    1    6    6    0    0 -0.77758035639E+01 -0.21697588062E+01 -0.91095124961E+02  0.91452133742E+02  0.00000000000E+00 0.  1.
         12    1    6    6    0    0  0.25908905763E+02 -0.46599798185E+02 -0.30523354847E+02  0.61436860107E+02  0.00000000000E+00 0. -1.
         -5    1    3    3    0  503 -0.62778332062E+02 -0.59444230945E+02 -0.38107263759E+03  0.39078533838E+03  0.47000000000E+01 0.  1.
         11    1    4    4    0    0  0.34150086256E+02 -0.35113815380E+01 -0.23490513321E+03  0.23740046293E+03  0.00000000000E+00 0. -1.
        -12    1    4    4    0    0 -0.21602053947E+02  0.49875700674E+02 -0.18394465006E+03  0.19180685217E+03  0.00000000000E+00 0.  1.
</event>
<event>
12    1  0.1629553E-001  0.2837424E+03  0.7818608E-02  0.1093935E+00
         21   -1    0    0  503  502  0.00000000000E+00  0.00000000000E+00  0.45769606447E+03  0.45769606447E+03  0.00000000000E+00 0. -1.
         21   -1    0    0  501  503 -0.00000000000E+00 -0.00000000000E+00 -0.22154377371E+03  0.22154377371E+03  0.00000000000E+00 0.  1.
          6    2    1    2  501    0 -0.19980759238E+03 -0.98684658692E+02  0.27399108958E+03  0.39298557552E+03  0.17235083278E+03 0.  0.
         24    2    3    3    0    0 -0.12603102472E+03 -0.13340094426E+03  0.20353164078E+03  0.28512072330E+03  0.78670623051E+02 0.  0.
         -6    2    1    2    0  502  0.19980759238E+03  0.98684658692E+02 -0.37838798823E+02  0.28625426266E+03  0.17563596544E+03 0.  0.
        -24    2    5    5    0    0  0.16027828218E+03  0.12735063454E+03 -0.67534715838E+02  0.22891106757E+03  0.77019654340E+02 0.  0.
          5    1    3    3  501    0 -0.73776567660E+02  0.34716285573E+02  0.70459448802E+02  0.10786485222E+03  0.47000000000E+01 0. -1.
        -13    1    4    4    0    0 -0.88187726631E+02 -0.46960998569E+02  0.13743183613E+03  0.16991150666E+03  0.00000000000E+00 0.  1.
         14    1    4    4    0    0 -0.37843298091E+02 -0.86439945696E+02  0.66099804653E+02  0.11520921663E+03  0.00000000000E+00 0. -1.
         -5    1    5    5    0  502  0.39529310197E+02 -0.28665975843E+02  0.29695917015E+02  0.57343195089E+02  0.47000000000E+01 0.  1.
         13    1    6    6    0    0  0.11888555282E+03  0.48731414814E+02 -0.27193943387E+02  0.13133177839E+03  0.00000000000E+00 0. -1.
        -14    1    6    6    0    0  0.41392729367E+02  0.78619219721E+02 -0.40340772451E+02  0.97579289175E+02  0.00000000000E+00 0.  1.
</event>
<event>
12    1  0.1629553E-001  0.1848231E+03  0.7818608E-02  0.1163800E+00
         21   -1    0    0  501  502  0.00000000000E+00  0.00000000000E+00  0.91179391636E+03  0.91179391636E+03  0.00000000000E+00 0.  1.
         21   -1    0    0  502  503 -0.00000000000E+00 -0.00000000000E+00 -0.11020434669E+03  0.11020434669E+03  0.00000000000E+00 0.  1.
         -6    2    1    2    0  503  0.49577015301E+02  0.33514354448E+02 -0.14875352796E+02  0.18542072354E+03  0.17486702433E+03 0.  0.
        -24    2    3    3    0    0  0.80400252687E+02  0.44044068508E+00 -0.57257968510E+02  0.12327306188E+03  0.73846991871E+02 0.  0.
          6    2    1    2  501    0 -0.49577015301E+02 -0.33514354448E+02  0.81646492247E+03  0.83657753951E+03  0.17223796790E+03 0.  0.
         24    2    5    5    0    0 -0.77113959819E+02 -0.53562912796E+02  0.39751931994E+03  0.41622324146E+03  0.80028923420E+02 0.  0.
          5    1    5    5  501    0  0.27536944518E+02  0.20048558348E+02  0.41894560253E+03  0.42035429804E+03  0.47000000000E+01 0. -1.
        -11    1    6    6    0    0 -0.55889675597E+02 -0.74040222010E+02  0.32370847681E+03  0.33673845678E+03  0.00000000000E+00 0.  1.
         12    1    6    6    0    0 -0.21224284221E+02  0.20477309214E+02  0.73810843126E+02  0.79484784684E+02  0.00000000000E+00 0. -1.
         -5    1    3    3    0  503 -0.30823237386E+02  0.33073913762E+02  0.42382615714E+02  0.62147661656E+02  0.47000000000E+01 0.  1.
         13    1    4    4    0    0  0.93319382084E+02  0.77960509881E+01 -0.53840637429E+02  0.10801897853E+03  0.00000000000E+00 0. -1.
        -14    1    4    4    0    0 -0.12919129397E+02 -0.73556103030E+01 -0.34173310807E+01  0.15254083356E+02  0.00000000000E+00 0.  1.
</event>
<event>
12    1  0.1629553E-001  0.2605201E+03  0.7818608E-02  0.1106871E+00
         21   -1    0    0  501  502  0.00000000000E+00  0.00000000000E+00  0.13081745615E+03  0.13081745615E+03  0.00000000000E+00 0. -1.
         21   -1    0    0  502  503 -0.00000000000E+00 -0.00000000000E+00 -0.52343223580E+03  0.52343223580E+03  0.00000000000E+00 0. -1.
         -6    2    1    2    0  503 -0.18470300280E+03  0.64572877616E+02 -0.22863208278E+03  0.34641687181E+03  0.17160175999E+03 0.  0.
        -24    2    3    3    0    0 -0.19806287932E+03  0.20744974077E+02 -0.18371804636E+03  0.28208389351E+03  0.78484038555E+02 0.  0.
          6    2    1    2  501    0  0.18470300280E+03 -0.64572877616E+02 -0.16398269687E+03  0.30783282015E+03  0.17200542002E+03 0.  0.
         24    2    5    5    0    0  0.38737316181E+02 -0.48925938640E+02 -0.11469761850E+03  0.15290729830E+03  0.79566142584E+02 0.  0.
          5    1    5    5  501    0  0.14596568662E+03 -0.15646938976E+02 -0.49285078371E+02  0.15492552185E+03  0.47000000000E+01 0. -1.
        -11    1    6    6    0    0  0.13019885495E+02 -0.67087127251E+02 -0.66617473469E+02  0.95436302488E+02  0.00000000000E+00 0.  1.
         12    1    6    6    0    0  0.25717430686E+02  0.18161188611E+02 -0.48080145035E+02  0.57470995810E+02  0.00000000000E+00 0. -1.
         -5    1    3    3    0  503  0.13359876518E+02  0.43827903539E+02 -0.44914036421E+02  0.64332978299E+02  0.47000000000E+01 0.  1.
         13    1    4    4    0    0 -0.11616337818E+03  0.50396538264E+02 -0.11645768002E+03  0.17203526597E+03  0.00000000000E+00 0. -1.
        -14    1    4    4    0    0 -0.81899501137E+02 -0.29651564188E+02 -0.67260366331E+02  0.11004862754E+03  0.00000000000E+00 0.  1.
</event>
<event>
12    1  0.1629553E-001  0.3741996E+03  0.7818608E-02  0.1053145E+00
         21   -1    0    0  501  502  0.00000000000E+00  0.00000000000E+00  0.40845207065E+03  0.40845207065E+03  0.00000000000E+00 0. -1.
         21   -1    0    0  502  503 -0.00000000000E+00 -0.00000000000E+00 -0.42402865054E+03  0.42402865054E+03  0.00000000000E+00 0. -1.
         -6    2    1    2    0  503 -0.11595955694E+03 -0.31070740330E+03 -0.19044626841E+03  0.41943740842E+03  0.17225634710E+03 0.  0.
        -24    2    3    3    0    0 -0.71345425046E+02 -0.28559003455E+03 -0.20322828636E+03  0.36645842239E+03  0.79612822167E+02 0.  0.
          6    2    1    2  501    0  0.11595955694E+03  0.31070740330E+03  0.17486968852E+03  0.41304331278E+03  0.17331953425E+03 0.  0.
         24    2    5    5    0    0  0.78440078398E+02  0.14803571077E+03  0.16074943232E+03  0.24543883057E+03  0.79576516605E+02 0.  0.
          5    1    5    5  501    0  0.37519478541E+02  0.16267169253E+03  0.14120256194E+02  0.16760448221E+03  0.47000000000E+01 0. -1.
        -13    1    6    6    0    0  0.29719937158E+02  0.17185320032E+02  0.72619644976E+02  0.80325728915E+02  0.00000000000E+00 0.  1.
         14    1    6    6    0    0  0.48720141240E+02  0.13085039074E+03  0.88129787348E+02  0.16511310165E+03  0.00000000000E+00 0. -1.
         -5    1    3    3    0  503 -0.44614131893E+02 -0.25117368750E+02  0.12782017953E+02  0.52978986027E+02  0.47000000000E+01 0.  1.
         13    1    4    4    0    0 -0.78349740944E+02 -0.16475987584E+03 -0.10438088836E+03  0.21019007694E+03  0.00000000000E+00 0. -1.
        -14    1    4    4    0    0  0.70043158974E+01 -0.12083015872E+03 -0.98847398005E+02  0.15626834545E+03  0.00000000000E+00 0.  1.
</event>
<event>
12    1  0.1629553E-001  0.2343624E+03  0.7818608E-02  0.1123739E+00
         21   -1    0    0  503  502  0.00000000000E+00  0.00000000000E+00  0.70480102051E+03  0.70480102051E+03  0.00000000000E+00 0.  1.
         21   -1    0    0  501  503 -0.00000000000E+00 -0.00000000000E+00 -0.10213879036E+03  0.10213879036E+03  0.00000000000E+00 0. -1.
          6    2    1    2  501    0  0.53282787566E+02  0.14806855027E+03  0.10425094304E+03  0.25650340122E+03  0.17367321234E+03 0.  0.
         24    2    3    3    0    0  0.51514077516E+02  0.25247893416E+02  0.28474950154E+01  0.97152243850E+02  0.78353646712E+02 0.  0.
         -6    2    1    2    0  502 -0.53282787566E+02 -0.14806855027E+03  0.49841128711E+03  0.55043640964E+03  0.17263568261E+03 0.  0.
        -24    2    5    5    0    0 -0.67860434166E+02 -0.17384314543E+03  0.44458586402E+03  0.48882388082E+03  0.80409689963E+02 0.  0.
          5    1    3    3  501    0  0.17687100505E+01  0.12282065685E+03  0.10140344802E+03  0.15935115737E+03  0.47000000000E+01 0. -1.
        -13    1    4    4    0    0 -0.39329577005E+01 -0.19476164415E+02 -0.13554151491E+02  0.24052113404E+02  0.00000000000E+00 0.  1.
         14    1    4    4    0    0  0.55447035216E+02  0.44724057831E+02  0.16401646506E+02  0.73100130446E+02  0.00000000000E+00 0. -1.
         -5    1    5    5    0  502  0.14577646599E+02  0.25774595163E+02  0.53825423098E+02  0.61612528823E+02  0.47000000000E+01 0.  1.
         11    1    6    6    0    0 -0.33319337871E+02 -0.31218190758E+02  0.49389988344E+02  0.67261613562E+02  0.00000000000E+00 0. -1.
        -12    1    6    6    0    0 -0.34541096295E+02 -0.14262495468E+03  0.39519587567E+03  0.42156226726E+03  0.00000000000E+00 0.  1.
</event>
<event>
12    1  0.1629553E-001  0.2184330E+03  0.7818608E-02  0.1135166E+00
         21   -1    0    0  503  502  0.00000000000E+00  0.00000000000E+00  0.10865159727E+04  0.10865159727E+04  0.00000000000E+00 0. -1.
         21   -1    0    0  501  503 -0.00000000000E+00 -0.00000000000E+00 -0.52198311962E+02  0.52198311962E+02  0.00000000000E+00 0.  1.
          6    2    1    2  501    0  0.12717500329E+03 -0.44208274770E+02  0.74499521644E+03  0.77619467423E+03  0.17126717948E+03 0.  0.
         24    2    3    3    0    0  0.78515930942E+02  0.42981139259E+02  0.37962863114E+03  0.39740115410E+03  0.76142300688E+02 0.  0.
         -6    2    1    2    0  502 -0.12717500329E+03  0.44208274770E+02  0.28932244425E+03  0.36251961039E+03  0.17200330853E+03 0.  0.
        -24    2    5    5    0    0 -0.14438501567E+03  0.67062479244E+02  0.19741262830E+03  0.26614532203E+03  0.80729039098E+02 0.  0.
          5    1    3    3  501    0  0.48659072350E+02 -0.87189414029E+02  0.36536658530E+03  0.37879352013E+03  0.47000000000E+01 0. -1.
        -13    1    4    4    0    0  0.40545911168E+02 -0.15905904562E+02  0.19782539171E+03  0.20256321067E+03  0.00000000000E+00 0.  1.
         14    1    4    4    0    0  0.37970019773E+02  0.58887043821E+02  0.18180323943E+03  0.19483794342E+03  0.00000000000E+00 0. -1.
         -5    1    5    5    0  502  0.17210012374E+02 -0.22854204474E+02  0.91909815951E+02  0.96374288356E+02  0.47000000000E+01 0.  1.
         11    1    6    6    0    0 -0.92834360091E+02  0.42761595368E+02  0.17922724104E+03  0.20632299044E+03  0.00000000000E+00 0. -1.
        -12    1    6    6    0    0 -0.51550655574E+02  0.24300883876E+02  0.18185387263E+02  0.59822331593E+02  0.00000000000E+00 0.  1.
</event>
<event>
12    1  0.1629553E-001  0.2207445E+03  0.7818608E-02  0.1133997E+00
         21   -1    0    0  503  502  0.00000000000E+00  0.00000000000E+00  0.42600632770E+02  0.42600632770E+02  0.00000000000E+00 0.  1.
         21   -1    0    0  501  503 -0.00000000000E+00 -0.00000000000E+00 -0.11945869217E+04  0.11945869217E+04  0.00000000000E+00 0.  1.
          6    2    1    2  501    0  0.13449600984E+03 -0.26361582923E+02 -0.72925929392E+03  0.76193651375E+03  0.17304341508E+03 0.  0.
         24    2    3    3    0    0  0.11601547445E+03 -0.21383506772E+02 -0.30382779737E+03  0.33604878244E+03  0.81857247974E+02 0.  0.
         -6    2    1    2    0  502 -0.13449600984E+03  0.26361582923E+02 -0.42272699497E+03  0.47525104068E+03  0.16846759235E+03 0.  0.
        -24    2    5    5    0    0 -0.53251904041E+02  0.67670801624E+02 -0.17086414789E+03  0.20736292968E+03  0.79935754790E+02 0.  0.
          5    1    3    3  501    0  0.18480535385E+02 -0.49780761507E+01 -0.42543149655E+03  0.42588773131E+03  0.47000000000E+01 0. -1.
        -13    1    4    4    0    0  0.94511046522E+02  0.11924934378E+02 -0.26023924566E+03  0.27712633754E+03  0.00000000000E+00 0.  1.
         14    1    4    4    0    0  0.21504427933E+02 -0.33308441150E+02 -0.43588551711E+02  0.58922444899E+02  0.00000000000E+00 0. -1.
         -5    1    5    5    0  502 -0.81244105799E+02 -0.41309218701E+02 -0.25186284707E+03  0.26788811100E+03  0.47000000000E+01 0.  1.
         13    1    6    6    0    0  0.15756870156E+02 -0.16873753670E+01 -0.46493651315E+02  0.49120116097E+02  0.00000000000E+00 0. -1.
        -14    1    6    6    0    0 -0.69008774197E+02  0.69358176991E+02 -0.12437049658E+03  0.15824281358E+03  0.00000000000E+00 0.  1.
</event>
<event>
12    1  0.1629553E-001  0.1894941E+03  0.7818608E-02  0.1159073E+00
         21   -1    0    0  501  502  0.00000000000E+00  0.00000000000E+00  0.24082657845E+03  0.24082657845E+03  0.00000000000E+00 0.  1.
         21   -1    0    0  502  503 -0.00000000000E+00 -0.00000000000E+00 -0.16426281807E+03  0.16426281807E+03  0.00000000000E+00 0.  1.
         -6    2    1    2    0  503  0.29628840848E+02  0.73559881390E+02 -0.24390409576E+02  0.19038087664E+03  0.17135069813E+03 0.  0.
        -24    2    3    3    0    0 -0.39103058402E+02  0.28711863519E+02  0.27954564192E+02  0.92925733313E+02  0.74164101623E+02 0.  0.
          6    2    1    2  501    0 -0.29628840848E+02 -0.73559881390E+02  0.10095416995E+03  0.21470851988E+03  0.17210194572E+03 0.  0.
         24    2    5    5    0    0 -0.63500624251E+02 -0.38486037946E+01  0.91359890618E+02  0.13647105999E+03  0.78934020353E+02 0.  0.
          5    1    5    5  501    0  0.33871783403E+02 -0.69711277595E+02  0.95942793365E+01  0.78237459895E+02  0.47000000000E+01 0. -1.
        -13    1    6    6    0    0 -0.87429047802E+01  0.28266563572E+02  0.57160474164E+02  0.64364251000E+02  0.00000000000E+00 0.  1.
         14    1    6    6    0    0 -0.54757719471E+02 -0.32115167366E+02  0.34199416454E+02  0.72106808988E+02  0.00000000000E+00 0. -1.
         -5    1    3    3    0  503  0.68731899250E+02  0.44848017871E+02 -0.52344973768E+02  0.97455143323E+02  0.47000000000E+01 0.  1.
         13    1    4    4    0    0 -0.11739437215E+02  0.38453410301E+02 -0.13409031158E+02  0.42382558517E+02  0.00000000000E+00 0. -1.
        -14    1    4    4    0    0 -0.27363621187E+02 -0.97415467814E+01  0.41363595350E+02  0.50543174796E+02  0.00000000000E+00 0.  1.
</event>
<event>
12    1  0.1629553E-001  0.1745075E+03  0.7818608E-02  0.1174090E+00
         21   -1    0    0  503  502  0.00000000000E+00  0.00000000000E+00  0.45953837569E+03  0.45953837569E+03  0.00000000000E+00 0.  1.
         21   -1    0    0  501  503 -0.00000000000E+00 -0.00000000000E+00 -0.10889083814E+03  0.10889083814E+03  0.00000000000E+00 0.  1.
          6    2    1    2  501    0  0.17701959716E+02 -0.16768036909E+02 -0.41121766110E+01  0.17455592242E+03  0.17279564119E+03 0.  0.
         24    2    3    3    0    0  0.20672181419E+02  0.28292640249E+02  0.55068765007E+02  0.99965301738E+02  0.75714464241E+02 0.  0.
         -6    2    1    2    0  502 -0.17701959716E+02  0.16768036909E+02  0.35475971415E+03  0.39387329141E+03  0.16937292718E+03 0.  0.
        -24    2    5    5    0    0 -0.40262368261E+02  0.68015573177E+02  0.21056748073E+03  0.23911938294E+03  0.81192603505E+02 0.  0.
          5    1    3    3  501    0 -0.29702217029E+01 -0.45060677158E+02 -0.59180941618E+02  0.74590620682E+02  0.47000000000E+01 0. -1.
        -13    1    4    4    0    0  0.42701884385E+02  0.10716476963E+02  0.74787916981E+01  0.44656759105E+02  0.00000000000E+00 0.  1.
         14    1    4    4    0    0 -0.22029702965E+02  0.17576163286E+02  0.47589973309E+02  0.55308542633E+02  0.00000000000E+00 0. -1.
         -5    1    5    5    0  502  0.22560408544E+02 -0.51247536268E+02  0.14419223343E+03  0.15475390847E+03  0.47000000000E+01 0.  1.
         13    1    6    6    0    0  0.13635894337E+02  0.34301346394E+02  0.13701390149E+03  0.14189901050E+03  0.00000000000E+00 0. -1.
        -14    1    6    6    0    0 -0.53898262598E+02  0.33714226784E+02  0.73553579238E+02  0.97220372440E+02  0.00000000000E+00 0.  1.
</event>
<event>
12    1  0.1629553E-001  0.1722254E+03  0.7818608E-02  0.1175775E+00
         21   -1    0    0  503  502  0.00000000000E+00  0.00000000000E+00  0.14411930183E+04  0.14411930183E+04  0.00000000000E+00 0. -1.
         21   -1    0    0  501  503 -0.00000000000E+00 -0.00000000000E+00 -0.20484402509E+02  0.20484402509E+02  0.00000000000E+00 0. -1.
          6    2    1    2  501    0 -0.18379564970E+01 -0.14700968145E+02  0.72752563055E+03  0.74763302946E+03  0.17158702481E+03 0.  0.
         24    2    3    3    0    0  0.10391510348E+02  0.10148781512E+02  0.71060151927E+03  0.71483690988E+03  0.76330251372E+02 0.  0.
         -6    2    1    2    0  502  0.18379564970E+01  0.14700968145E+02  0.69318298520E+03  0.71404439130E+03  0.17069635392E+03 0.  0.
        -24    2    5    5    0    0  0.63231833505E+02 -0.11186396814E+02  0.36562748221E+03  0.37974802379E+03  0.80010659173E+02 0.  0.
          5    1    3    3  501    0 -0.12229466845E+02 -0.24849749657E+02  0.16924111278E+02  0.32796119586E+02  0.47000000000E+01 0. -1.
        -11    1    4    4    0    0  0.16460224677E+02 -0.31483867064E+02  0.30731968636E+03  0.30936638877E+03  0.00000000000E+00 0.  1.
         12    1    4    4    0    0 -0.60687143295E+01  0.41632648576E+02  0.40328183292E+03  0.40547052110E+03  0.00000000000E+00 0. -1.
         -5    1    5    5    0  502 -0.61393877008E+02  0.25887364959E+02  0.32755550298E+03  0.33429636752E+03  0.47000000000E+01 0.  1.
         13    1    6    6    0    0  0.47345396608E+02  0.31428014268E+01  0.35013027779E+03  0.35333082968E+03  0.00000000000E+00 0. -1.
        -14    1    6    6    0    0  0.15886436897E+02 -0.14329198241E+02  0.15497204425E+02  0.26417194108E+02  0.00000000000E+00 0.  1.
</event>
<event>
12    1  0.1629553E-001  0.2343236E+03  0.7818608E-02  0.1123654E+00
         21   -1    0    0  503  502  0.00000000000E+00  0.00000000000E+00  0.13487580049E+03  0.13487580049E+03  0.00000000000E+00 0. -1.
         21   -1    0    0  501  503 -0.00000000000E+00 -0.00000000000E+00 -0.96414511531E+03  0.96414511531E+03  0.00000000000E+00 0. -1.
          6    2    1    2  501    0  0.15720287454E+03 -0.26882854769E+02 -0.83244740982E+03  0.86479836995E+03  0.17167439795E+03 0.  0.
         24    2    3    3    0    0  0.17967009297E+03 -0.72344483104E+01 -0.65017979334E+03  0.68004337057E+03  0.85974081189E+02 0.  0.
         -6    2    1    2    0  502 -0.15720287454E+03  0.26882854769E+02  0.31780949964E+01  0.23422254585E+03  0.17150705248E+03 0.  0.
        -24    2    5    5    0    0 -0.40709556556E+01  0.18425162229E+02 -0.19223798942E+01  0.80700488834E+02  0.78439875512E+02 0.  0.
          5    1    3    3  501    0 -0.22467218429E+02 -0.19648406458E+02 -0.18226761648E+03  0.18475499938E+03  0.47000000000E+01 0. -1.
        -13    1    4    4    0    0  0.14515874307E+03 -0.40637735959E+02 -0.47067012283E+03  0.49421943588E+03  0.00000000000E+00 0.  1.
         14    1    4    4    0    0  0.34511349898E+02  0.33403287648E+02 -0.17950967051E+03  0.18582393469E+03  0.00000000000E+00 0. -1.
         -5    1    5    5    0  502 -0.15313191889E+03  0.84576925395E+01  0.51004748907E+01  0.15352205701E+03  0.47000000000E+01 0.  1.
         13    1    6    6    0    0 -0.38649346582E+02 -0.48209337499E+01 -0.25202965603E+01  0.39030312428E+02  0.00000000000E+00 0. -1.
        -14    1    6    6    0    0  0.34578390927E+02  0.23246095979E+02  0.59791666605E+00  0.41670176406E+02  0.00000000000E+00 0.  1.
</event>
<event>
12    1  0.1629553E-001  0.2368945E+03  0.7818608E-02  0.1122116E+00
         21   -1    0    0  501  502  0.00000000000E+00  0.00000000000E+00  0.27471648216E+03  0.27471648216E+03  0.00000000000E+00 0.  1.
         21   -1    0    0  502  503 -0.00000000000E+00 -0.00000000000E+00 -0.82560288672E+03  0.82560288672E+03  0.00000000000E+00 0.  1.
         -6    2    1    2    0  503 -0.24065109020E+02 -0.16149380224E+03 -0.75337202999E+03  0.78973945994E+03  0.17163805344E+03 0.  0.
        -24    2    3    3    0    0  0.13535372582E+02 -0.10240749899E+03 -0.26362420225E+03  0.29498698423E+03  0.82759281622E+02 0.  0.
          6    2    1    2  501    0  0.24065109020E+02  0.16149380224E+03  0.20248562543E+03  0.31057990893E+03  0.16970584460E+03 0.  0.
         24    2    5    5    0    0  0.17715893579E+01  0.18043523398E+03  0.13968565863E+03  0.24114141323E+03  0.77955665335E+02 0.  0.
          5    1    5    5  501    0  0.22293519662E+02 -0.18941431740E+02  0.62799966798E+02  0.69438495700E+02  0.47000000000E+01 0. -1.
        -11    1    6    6    0    0  0.26776943505E+02  0.18150035935E+02  0.24076192545E+02  0.40324825547E+02  0.00000000000E+00 0.  1.
         12    1    6    6    0    0 -0.25005354147E+02  0.16228519805E+03  0.11560946609E+03  0.20081658769E+03  0.00000000000E+00 0. -1.
         -5    1    3    3    0  503 -0.37600481602E+02 -0.59086303257E+02 -0.48974782774E+03  0.49475247571E+03  0.47000000000E+01 0.  1.
         11    1    4    4    0    0  0.46898973474E+02 -0.75146827535E+02 -0.16269262426E+03  0.18524429651E+03  0.00000000000E+00 0. -1.
        -12    1    4    4    0    0 -0.33363600892E+02 -0.27260671450E+02 -0.10093157799E+03  0.10974268772E+03  0.00000000000E+00 0.  1.
</event>
<event>
12    1  0.1629553E-001  0.2637149E+03  0.7818608E-02  0.1105057E+00
         21   -1    0    0  503  502  0.00000000000E+00  0.00000000000E+00  0.73794015143E+03  0.73794015143E+03  0.00000000000E+00 0. -1.
         21   -1    0    0  501  503 -0.00000000000E+00 -0.00000000000E+00 -0.16222055773E+03  0.16222055773E+03  0.00000000000E+00 0.  1.
          6    2    1    2  501    0 -0.28999813241E+02 -0.19822098566E+03 -0.38738952252E+01  0.26374336644E+03  0.17150220976E+03 0.  0.
         24    2    3    3    0    0 -0.84113381430E+02 -0.15066839567E+03 -0.12456994699E+02  0.19029601244E+03  0.79255089701E+02 0.  0.
         -6    2    1    2    0  502  0.28999813241E+02  0.19822098566E+03  0.57959348892E+03  0.63641734271E+03  0.17019363496E+03 0.  0.
        -24    2    5    5    0    0  0.47530213005E+02  0.18125916033E+03  0.57537321224E+03  0.61051406166E+03  0.80988158224E+02 0.  0.
          5    1    3    3  501    0  0.55113568189E+02 -0.47552589992E+02  0.85830994737E+01  0.73447354003E+02  0.47000000000E+01 0. -1.
        -13    1    4    4    0    0 -0.13678256411E+02 -0.19891513678E+02 -0.32421510603E+02  0.40421793189E+02  0.00000000000E+00 0.  1.
         14    1    4    4    0    0 -0.70435125019E+02 -0.13077688200E+03  0.19964515904E+02  0.14987421925E+03  0.00000000000E+00 0. -1.
         -5    1    5    5    0  502 -0.18530399765E+02  0.16961825331E+02  0.42202766838E+01  0.25903281053E+02  0.47000000000E+01 0.  1.
         13    1    6    6    0    0 -0.23150506254E+02  0.41785389086E+02  0.13221123497E+03  0.14057658174E+03  0.00000000000E+00 0. -1.
        -14    1    6    6    0    0  0.70680719259E+02  0.13947377125E+03  0.44316197727E+03  0.46993747992E+03  0.00000000000E+00 0.  1.
</event>
<event>
12    1  0.1629553E-001  0.2818424E+03  0.7818608E-02  0.1094789E+00
         21   -1    0    0  503  502  0.00000000000E+00  0.00000000000E+00  0.89722803512E+03  0.89722803512E+03  0.00000000000E+00 0.  1.
         21   -1    0    0  501  503 -0.00000000000E+00 -0.00000000000E+00 -0.28926931569E+03  0.28926931569E+03  0.00000000000E+00 0.  1.
          6    2    1    2  501    0  0.18961643305E+03 -0.11787594858E+03 -0.19062955867E+03  0.33963349055E+03  0.17076928392E+03 0.  0.
         24    2    3    3    0    0  0.13150322101E+03 -0.13926773800E+03 -0.18386806884E+03  0.27716300301E+03  0.79518950673E+02 0.  0.
         -6    2    1    2    0  502 -0.18961643305E+03  0.11787594858E+03  0.79858827810E+03  0.84686386025E+03  0.17200589802E+03 0.  0.
        -24    2    5    5    0    0 -0.14995096420E+03  0.73217393159E+02  0.74029881486E+03  0.76327266744E+03  0.81833680454E+02 0.  0.
          5    1    3    3  501    0  0.58113212040E+02  0.21391789421E+02 -0.67614898248E+01  0.62470487535E+02  0.47000000000E+01 0. -1.
        -11    1    4    4    0    0  0.78436924986E+02 -0.37538476534E+02 -0.47987083924E+02  0.99318923903E+02  0.00000000000E+00 0.  1.
         12    1    4    4    0    0  0.53066296022E+02 -0.10172926147E+03 -0.13588098492E+03  0.17784407911E+03  0.00000000000E+00 0. -1.
         -5    1    5    5    0  502 -0.39665468846E+02  0.44658555421E+02  0.58289463242E+02  0.83591192814E+02  0.47000000000E+01 0.  1.
         11    1    6    6    0    0 -0.56163146278E+02 -0.61240445329E+01  0.33619648195E+03  0.34091036564E+03  0.00000000000E+00 0. -1.
        -12    1    6    6    0    0 -0.93787817925E+02  0.79341437692E+02  0.40410233290E+03  0.42236230180E+03  0.00000000000E+00 0.  1.
</event>
<event>
12    1  0.1629553E-001  0.2106256E+03  0.7818608E-02  0.1141657E+00
         21   -1    0    0  503  502  0.00000000000E+00  0.00000000000E+00  0.13586989740E+03  0.13586989740E+03  0.00000000000E+00 0. -1.
         21   -1    0    0  501  503 -0.00000000000E+00 -0.00000000000E+00 -0.35125984756E+03  0.35125984756E+03  0.00000000000E+00 0. -1.
          6    2    1    2  501    0  0.32784167646E+02  0.11596517331E+03 -0.17734570544E+03  0.27309583533E+03  0.16913637387E+03 0.  0.
         24    2    3    3    0    0 -0.30284190334E+02  0.18332149259E+02 -0.59911650021E+02  0.10780012293E+03  0.82330193825E+02 0.  0.
         -6    2    1    2    0  502 -0.32784167646E+02 -0.11596517331E+03 -0.38044244726E+02  0.21403390963E+03  0.17274381855E+03 0.  0.
        -24    2    5    5    0    0 -0.11479954410E+01 -0.52713747789E+02  0.43271793901E+02  0.10616371745E+03  0.81352502461E+02 0.  0.
          5    1    3    3  501    0  0.63068357980E+02  0.97633024053E+02 -0.11743405542E+03  0.16529571240E+03  0.47000000000E+01 0. -1.
        -13    1    4    4    0    0  0.26743654153E+02  0.18469164537E+02 -0.19454128093E+02  0.37878703463E+02  0.00000000000E+00 0.  1.
         14    1    4    4    0    0 -0.57027844487E+02 -0.13701527775E+00 -0.40457521928E+02  0.69921419469E+02  0.00000000000E+00 0. -1.
         -5    1    5    5    0  502 -0.31636172205E+02 -0.63251425524E+02 -0.81316038628E+02  0.10787019218E+03  0.47000000000E+01 0.  1.
         11    1    6    6    0    0 -0.27465895886E+02 -0.50774861903E+02  0.27326780336E+01  0.57792123748E+02  0.00000000000E+00 0. -1.
        -12    1    6    6    0    0  0.26317900445E+02 -0.19388858859E+01  0.40539115868E+02  0.48371593706E+02  0.00000000000E+00 0.  1.
</event>
<event>
12    1  0.1629553E-001  0.2342715E+03  0.7818608E-02  0.1124275E+00
         21   -1    0    0  501  502  0.00000000000E+00  0.00000000000E+00  0.17074007082E+03  0.17074007082E+03  0.00000000000E+00 0.  1.
         21   -1    0    0  502  503 -0.00000000000E+00 -0.00000000000E+00 -0.31708977708E+03  0.31708977708E+03  0.00000000000E+00 0.  1.
         -6    2    1    2    0  503 -0.15775739405E+03 -0.16416629494E+02 -0.81580242773E+02  0.24476977146E+03  0.16763055780E+03 0.  0.
        -24    2    3    3    0    0 -0.10703792258E+03  0.53078456829E+02 -0.70744438148E+02  0.15792775126E+03  0.75245994186E+02 0.  0.
          6    2    1    2  501    0  0.15775739405E+03  0.16416629494E+02 -0.64769463484E+02  0.24306007645E+03  0.17241292371E+03 0.  0.
         24    2    5    5    0    0  0.19226880137E+02 -0.24698352142E+02 -0.11629300850E+02  0.89024003123E+02  0.82524850654E+02 0.  0.
          5    1    5    5  501    0  0.13853051392E+03  0.41114981636E+02 -0.53140162635E+02  0.15403607333E+03  0.47000000000E+01 0. -1.
        -11    1    6    6    0    0  0.68843780700E+01  0.30703021983E+02 -0.53702457777E+01  0.31920365913E+02  0.00000000000E+00 0.  1.
         12    1    6    6    0    0  0.12342502067E+02 -0.55401374125E+02 -0.62590550721E+01  0.57103637210E+02  0.00000000000E+00 0. -1.
         -5    1    3    3    0  503 -0.50719471475E+02 -0.69495086323E+02 -0.10835804625E+02  0.86842020195E+02  0.47000000000E+01 0.  1.
         11    1    4    4    0    0 -0.64745333775E+00  0.29972212112E+02 -0.40475974604E+01  0.30251210553E+02  0.00000000000E+00 0. -1.
        -12    1    4    4    0    0 -0.10639046924E+03  0.23106244717E+02 -0.66696840688E+02  0.12767654071E+03  0.00000000000E+00 0.  1.
</event>
<event>
12    1  0.1629553E-001  0.2776144E+03  0.7818608E-02  0.1097048E+00
         21   -1    0    0  503  502  0.00000000000E+00  0.00000000000E+00  0.33650827417E+03  0.33650827417E+03  0.00000000000E+00 0.  1.
         21   -1    0    0  501  503 -0.00000000000E+00 -0.00000000000E+00 -0.27126149985E+03  0.27126149985E+03  0.00000000000E+00 0.  1.
          6    2    1    2  501    0 -0.21526958482E+03  0.33044566032E+02  0.15295863874E+03  0.31696390575E+03  0.17215352129E+03 0.  0.
         24    2    3    3    0    0 -0.10244137283E+03 -0.37694560501E+02  0.36731117755E+02  0.14014434779E+03  0.79850788646E+02 0.  0.
         -6    2    1    2    0  502  0.21526958482E+03 -0.33044566032E+02 -0.87711864424E+02  0.29080586826E+03  0.17158596785E+03 0.  0.
        -24    2    5    5    0    0  0.41261861475E+02 -0.46018604717E+02 -0.17901751010E+02  0.10280971033E+03  0.80181735178E+02 0.  0.
          5    1    3    3  501    0 -0.11282821198E+03  0.70739126533E+02  0.11622752099E+03  0.17681955796E+03  0.47000000000E+01 0. -1.
        -11    1    4    4    0    0 -0.61797837294E+02  0.11794976333E+02  0.42379382511E+02  0.75855825241E+02  0.00000000000E+00 0.  1.
         12    1    4    4    0    0 -0.40643535540E+02 -0.49489536834E+02 -0.56482647568E+01  0.64288522552E+02  0.00000000000E+00 0. -1.
         -5    1    5    5    0  502  0.17400772334E+03  0.12974038685E+02 -0.69810113414E+02  0.18799615793E+03  0.47000000000E+01 0.  1.
         13    1    6    6    0    0 -0.16092309777E+02 -0.55011097834E+01  0.17299079530E+02  0.24258664337E+02  0.00000000000E+00 0. -1.
        -14    1    6    6    0    0  0.57354171253E+02 -0.40517494933E+02 -0.35200830539E+02  0.78551045992E+02  0.00000000000E+00 0.  1.
</event>
<event>
12    1  0.1629553E-001  0.1736484E+03  0.7818608E-02  0.1174284E+00
         21   -1    0    0  503  502  0.00000000000E+00  0.00000000000E+00  0.61820945169E+02  0.61820945169E+02  0.00000000000E+00 0. -1.
         21   -1    0    0  501  503 -0.00000000000E+00 -0.00000000000E+00 -0.49728669366E+03  0.49728669366E+03  0.00000000000E+00 0. -1.
          6    2    1    2  501    0  0.17156316792E+02 -0.97459739737E+01 -0.25998437620E+03  0.31223220693E+03  0.17177820572E+03 0.  0.
         24    2    3    3    0    0  0.25710967437E+02  0.34508398123E+01 -0.40667335129E+02  0.92301780549E+02  0.78694500469E+02 0.  0.
         -6    2    1    2    0  502 -0.17156316792E+02  0.97459739737E+01 -0.17548137229E+03  0.24687543191E+03  0.17252374805E+03 0.  0.
        -24    2    5    5    0    0 -0.50861657406E+02 -0.11855903417E+02 -0.35152164510E+02  0.10087177562E+03  0.78816050437E+02 0.  0.
          5    1    3    3  501    0 -0.85546506449E+01 -0.13196813786E+02 -0.21931704107E+03  0.21993042638E+03  0.47000000000E+01 0. -1.
        -11    1    4    4    0    0 -0.11367834566E+02 -0.30484626101E+02 -0.14256888618E+02  0.35521809699E+02  0.00000000000E+00 0.  1.
         12    1    4    4    0    0  0.37078802003E+02  0.33935465914E+02 -0.26410446511E+02  0.56779970850E+02  0.00000000000E+00 0. -1.
         -5    1    5    5    0  502  0.33705340614E+02  0.21601877391E+02 -0.14032920778E+03  0.14600365629E+03  0.47000000000E+01 0.  1.
         11    1    6    6    0    0 -0.37593345117E+02 -0.44379596400E+02 -0.29762552629E+02  0.65334659352E+02  0.00000000000E+00 0. -1.
        -12    1    6    6    0    0 -0.13268312290E+02  0.32523692982E+02 -0.53896118813E+01  0.35537116265E+02  0.00000000000E+00 0.  1.
</event>
<event>
12    1  0.1629553E-001  0.3228681E+03  0.7818608E-02  0.1074407E+00
         21   -1    0    0  503  502  0.00000000000E+00  0.00000000000E+00  0.66635816697E+02  0.66635816697E+02  0.00000000000E+00 0.  1.
         21   -1    0    0  501  503 -0.00000000000E+00 -0.00000000000E+00 -0.15644366093E+04  0.15644366093E+04  0.00000000000E+00 0.  1.
          6    2    1    2  501    0  0.88002714834E+02 -0.25795327209E+03 -0.78416832956E+03  0.84780035998E+03  0.17193345485E+03 0.  0.
         24    2    3    3    0    0  0.61004700776E+02 -0.27079271209E+03 -0.67857399456E+03  0.73795502522E+03  0.84051690803E+02 0.  0.
         -6    2    1    2    0  502 -0.88002714834E+02  0.25795327209E+03 -0.71363246307E+03  0.78327206604E+03  0.17308803742E+03 0.  0.
        -24    2    5    5    0    0 -0.24597708479E+02  0.52607814112E+02 -0.14571999969E+03  0.17603767308E+03  0.79889390185E+02 0.  0.
          5    1    3    3  501    0  0.26998014058E+02  0.12839440004E+02 -0.10559433500E+03  0.10984533476E+03  0.47000000000E+01 0. -1.
        -11    1    4    4    0    0 -0.95821070315E+01 -0.14522306121E+03 -0.32076736398E+03  0.35224033852E+03  0.00000000000E+00 0.  1.
         12    1    4    4    0    0  0.70586807807E+02 -0.12556965088E+03 -0.35780663057E+03  0.38571468671E+03  0.00000000000E+00 0. -1.
         -5    1    5    5    0  502 -0.63405006355E+02  0.20534545797E+03 -0.56791246338E+03  0.60723439297E+03  0.47000000000E+01 0.  1.
         11    1    6    6    0    0 -0.51261677696E+01  0.68955013160E+02 -0.12650782967E+03  0.14417108726E+03  0.00000000000E+00 0. -1.
        -12    1    6    6    0    0 -0.19471540709E+02 -0.16347199048E+02 -0.19212170025E+02  0.31866585813E+02  0.00000000000E+00 0.  1.
</event>
<event>
12    1  0.1629553E-001  0.2478554E+03  0.7818608E-02  0.1114708E+00
         21   -1    0    0  503  502  0.00000000000E+00  0.00000000000E+00  0.64704162485E+03  0.64704162485E+03  0.00000000000E+00 0. -1.
         21   -1    0    0  501  503 -0.00000000000E+00 -0.00000000000E+00 -0.12773474995E+03  0.12773474995E+03  0.00000000000E+00 0. -1.
          6    2    1    2  501    0  0.80268649043E+02  0.16022883666E+03  0.63183954430E+02  0.25578212693E+03  0.17121900666E+03 0.  0.
         24    2    3    3    0    0  0.61550240937E+02  0.34578707008E+02 -0.13748688106E+02  0.10719190056E+03  0.79479292794E+02 0.  0.
         -6    2    1    2    0  502 -0.80268649043E+02 -0.16022883666E+03  0.45612292047E+03  0.51899424788E+03  0.17085249379E+03 0.  0.
        -24    2    5    5    0    0  0.21337637818E+02 -0.80332080055E+02  0.16883535496E+03  0.20393304026E+03  0.78579704459E+02 0.  0.
          5    1    3    3  501    0  0.18718408106E+02  0.12565012966E+03  0.76932642536E+02  0.14859022637E+03  0.47000000000E+01 0. -1.
        -13    1    4    4    0    0 -0.70878085463E+01  0.14905709731E+02  0.21869906483E+02  0.27399087980E+02  0.00000000000E+00 0.  1.
         14    1    4    4    0    0  0.68638049483E+02  0.19672997278E+02 -0.35618594589E+02  0.79792812579E+02  0.00000000000E+00 0. -1.
         -5    1    5    5    0  502 -0.10160628686E+03 -0.79896756609E+02  0.28728756551E+03  0.31506120761E+03  0.47000000000E+01 0.  1.
         11    1    6    6    0    0 -0.13238688983E+02 -0.39252593234E+02  0.13319240515E+03  0.13948564711E+03  0.00000000000E+00 0. -1.
        -12    1    6    6    0    0  0.34576326801E+02 -0.41079486821E+02  0.35642949813E+02  0.64447393151E+02  0.00000000000E+00 0.  1.
</event>
<event>
12    1  0.1629553E-001  0.2840346E+03  0.7818608E-02  0.1093627E+00
         21   -1    0    0  501  502  0.00000000000E+00  0.00000000000E+00  0.45725860402E+03  0.45725860402E+03  0.00000000000E+00 0.  1.
         21   -1    0    0  502  503 -0.00000000000E+00 -0.00000000000E+00 -0.17692935208E+03  0.17692935208E+03  0.00000000000E+00 0. -1.
         -6    2    1    2    0  503  0.20973997175E+03 -0.82447704238E+02  0.11541547098E+03  0.30574894837E+03  0.17138613948E+03 0.  0.
        -24    2    3    3    0    0  0.48560187591E+02 -0.53180683539E+02  0.29493601338E+01  0.10698728856E+03  0.79065189986E+02 0.  0.
          6    2    1    2  501    0 -0.20973997175E+03  0.82447704238E+02  0.16491378096E+03  0.32843900773E+03  0.17287899515E+03 0.  0.
         24    2    5    5    0    0 -0.62623753433E+02  0.89766248285E+02  0.87263098287E+02  0.16186031372E+03  0.81266223047E+02 0.  0.
          5    1    5    5  501    0 -0.14711621832E+03 -0.73185440474E+01  0.77650682672E+02  0.16657869401E+03  0.47000000000E+01 0. -1.
        -13    1    6    6    0    0 -0.75166534438E+02  0.61404275266E+02  0.87748971798E+02  0.13084485077E+03  0.00000000000E+00 0.  1.
         14    1    6    6    0    0  0.12542781006E+02  0.28361973020E+02 -0.48587351102E+00  0.31015462950E+02  0.00000000000E+00 0. -1.
         -5    1    3    3    0  503  0.16117978416E+03 -0.29267020699E+02  0.11246611085E+03  0.19876165981E+03  0.47000000000E+01 0.  1.
         13    1    4    4    0    0  0.32227208890E+02  0.87798692375E+01 -0.19991455490E+02  0.38927334731E+02  0.00000000000E+00 0. -1.
        -14    1    4    4    0    0  0.16332978701E+02 -0.61960552776E+02  0.22940815624E+02  0.68059953828E+02  0.00000000000E+00 0.  1.
</event>
<event>
12    1  0.1629553E-001  0.1802351E+03  0.7818608E-02  0.1167682E+00
         21   -1    0    0  503  502  0.00000000000E+00  0.00000000000E+00  0.13977042888E+04  0.13977042888E+04  0.00000000000E+00 0. -1.
         21   -1    0    0  501  503 -0.00000000000E+00 -0.00000000000E+00 -0.33886312660E+02  0.33886312660E+02  0.00000000000E+00 0. -1.
          6    2    1    2  501    0 -0.52551188813E+02  0.16997432456E+02  0.28022501973E+03  0.33318278592E+03  0.17156388603E+03 0.  0.
         24    2    3    3    0    0 -0.51883833054E+02  0.70614959944E+02  0.23536506168E+03  0.26311288900E+03  0.78442816092E+02 0.  0.
         -6    2    1    2    0  502  0.52551188813E+02 -0.16997432456E+02  0.10835929564E+04  0.10984078155E+04  0.17110082968E+03 0.  0.
        -24    2    5    5    0    0  0.38412696385E+02  0.47260199461E+02  0.84249787970E+03  0.84845208698E+03  0.79744623074E+02 0.  0.
          5    1    3    3  501    0 -0.66735575896E+00 -0.53617527488E+02  0.44859958053E+02  0.70069896919E+02  0.47000000000E+01 0. -1.
        -13    1    4    4    0    0 -0.35136684387E+02  0.35424972479E+02  0.21174017228E+03  0.21753945808E+03  0.00000000000E+00 0.  1.
         14    1    4    4    0    0 -0.16747148667E+02  0.35189987465E+02  0.23624889399E+02  0.45573430915E+02  0.00000000000E+00 0. -1.
         -5    1    5    5    0  502  0.14138492429E+02 -0.64257631916E+02  0.24109507666E+03  0.24995572852E+03  0.47000000000E+01 0.  1.
         11    1    6    6    0    0  0.33411062688E+02  0.40114091691E+02  0.22832628862E+03  0.23421855933E+03  0.00000000000E+00 0. -1.
        -12    1    6    6    0    0  0.50016336965E+01  0.71461077696E+01  0.61417159108E+03  0.61423352765E+03  0.00000000000E+00 0.  1.
</event>
<event>
12    1  0.1629553E-001  0.1915227E+03  0.7818608E-02  0.1157545E+00
         21   -1    0    0  503  502  0.00000000000E+00  0.00000000000E+00  0.67403361998E+03  0.67403361998E+03  0.00000000000E+00 0. -1.
         21   -1    0    0  501  503 -0.00000000000E+00 -0.00000000000E+00 -0.61109108757E+02  0.61109108757E+02  0.00000000000E+00 0.  1.
          6    2    1    2  501    0 -0.26264250483E+02 -0.75220885745E+02  0.17837515041E+03  0.26025948188E+03  0.17195729446E+03 0.  0.
         24    2    3    3    0    0 -0.46204803578E+01 -0.10344250883E+03  0.73722448465E+02  0.14962860545E+03  0.78943135799E+02 0.  0.
         -6    2    1    2    0  502  0.26264250483E+02  0.75220885745E+02  0.43454936082E+03  0.47488324686E+03  0.17416359740E+03 0.  0.
        -24    2    5    5    0    0 -0.26651110242E+02  0.23787421459E+02  0.35799947201E+03  0.36845293104E+03  0.79484698764E+02 0.  0.
          5    1    3    3  501    0 -0.21643770125E+02  0.28221623085E+02  0.10465270194E+03  0.11063087642E+03  0.47000000000E+01 0. -1.
        -13    1    4    4    0    0 -0.16795927003E+02 -0.49490201199E+02 -0.59925039036E+01  0.52605068972E+02  0.00000000000E+00 0.  1.
         14    1    4    4    0    0  0.12175446645E+02 -0.53952307632E+02  0.79714952369E+02  0.97023536479E+02  0.00000000000E+00 0. -1.
         -5    1    5    5    0  502  0.52915360725E+02  0.51433464286E+02  0.76549888808E+02  0.10643031582E+03  0.47000000000E+01 0.  1.
         13    1    6    6    0    0 -0.36558137326E+02 -0.14083700380E+02  0.98293542034E+02  0.10581336601E+03  0.00000000000E+00 0. -1.
        -14    1    6    6    0    0  0.99070270832E+01  0.37871121839E+02  0.25970592998E+03  0.26263956503E+03  0.00000000000E+00 0.  1.
</event>
<event>
12    1  0.1629553E-001  0.3112095E+03  0.7818608E-02  0.1079798E+00
         21   -1    0    0  501  502  0.00000000000E+00  0.00000000000E+00  0.71865642978E+03  0.71865642978E+03  0.00000000000E+00 0.  1.
         21   -1    0    0  502  503 -0.00000000000E+00 -0.00000000000E+00 -0.16674574765E+03  0.16674574765E+03  0.00000000000E+00 0. -1.
         -6    2    1    2    0  503 -0.66280028022E+02  0.25053663249E+03  0.81653600425E+02  0.32149341001E+03  0.17184020451E+03 0.  0.
        -24    2    3    3    0    0 -0.24095899229E+02  0.35752492206E+02  0.41909535461E+02  0.98977324443E+02  0.78620916636E+02 0.  0.
          6    2    1    2  501    0  0.66280028022E+02 -0.25053663249E+03  0.47025708171E+03  0.56390876742E+03  0.17230707687E+03 0.  0.
         24    2    5    5    0    0  0.49748878307E+02 -0.22711852155E+03  0.47373511196E+03  0.53465345123E+03  0.85857922692E+02 0.  0.
          5    1    5    5  501    0  0.16531149716E+02 -0.23418110937E+02 -0.34780302450E+01  0.29255316187E+02  0.47000000000E+01 0. -1.
        -11    1    6    6    0    0  0.52279790382E+01 -0.12650729185E+03  0.33132715775E+03  0.35469580223E+03  0.00000000000E+00 0.  1.
         12    1    6    6    0    0  0.44520899268E+02 -0.10061122969E+03  0.14240795421E+03  0.17995764900E+03  0.00000000000E+00 0. -1.
         -5    1    3    3    0  503 -0.42184128793E+02  0.21478414028E+03  0.39744064964E+02  0.22251608557E+03  0.47000000000E+01 0.  1.
         11    1    4    4    0    0 -0.50155753573E+02  0.28850022893E+02  0.12719153219E+02  0.59242723570E+02  0.00000000000E+00 0. -1.
        -12    1    4    4    0    0  0.26059854344E+02  0.69024693131E+01  0.29190382243E+02  0.39734600873E+02  0.00000000000E+00 0.  1.
</event>
<event>
12    1  0.1629553E-001  0.1803127E+03  0.7818608E-02  0.1167567E+00
         21   -1    0    0  501  502  0.00000000000E+00  0.00000000000E+00  0.54061368127E+03  0.54061368127E+03  0.00000000000E+00 0. -1.
         21   -1    0    0  502  503 -0.00000000000E+00 -0.00000000000E+00 -0.10777492692E+03  0.10777492692E+03  0.00000000000E+00 0. -1.
         -6    2    1    2    0  503 -0.22703933092E+02  0.47487256696E+02  0.59068806668E+00  0.18003932260E+03  0.17217229929E+03 0.  0.
        -24    2    3    3    0    0 -0.26491287298E+02  0.33500229996E+02 -0.67352683843E+02  0.11040906513E+03  0.76352628836E+02 0.  0.
          6    2    1    2  501    0  0.22703933092E+02 -0.47487256696E+02  0.43224806629E+03  0.46834928560E+03  0.17245913830E+03 0.  0.
         24    2    5    5    0    0 -0.10473186172E+02  0.14269935403E+02  0.97618338154E+02  0.12642266047E+03  0.78358346408E+02 0.  0.
          5    1    5    5  501    0  0.33177119264E+02 -0.61757192099E+02  0.33462972813E+03  0.34192662512E+03  0.47000000000E+01 0. -1.
        -13    1    6    6    0    0 -0.14323052361E+02 -0.22596792953E+02  0.57590888605E+01  0.27366621735E+02  0.00000000000E+00 0.  1.
         14    1    6    6    0    0  0.38498661895E+01  0.36866728356E+02  0.91859249293E+02  0.99056038736E+02  0.00000000000E+00 0. -1.
         -5    1    3    3    0  503  0.37873542058E+01  0.13987026700E+02  0.67943371910E+02  0.69630257462E+02  0.47000000000E+01 0.  1.
         13    1    4    4    0    0 -0.33189468675E+02 -0.15279972466E+02 -0.18136744418E+02  0.40791664438E+02  0.00000000000E+00 0. -1.
        -14    1    4    4    0    0  0.66981813776E+01  0.48780202462E+02 -0.49215939425E+02  0.69617400695E+02  0.00000000000E+00 0.  1.
</event>
<event>
12    1  0.1629553E-001  0.3240356E+03  0.7818608E-02  0.1073831E+00
         21   -1    0    0  503  502  0.00000000000E+00  0.00000000000E+00  0.49691544117E+03  0.49691544117E+03  0.00000000000E+00 0.  1.
         21   -1    0    0  501  503 -0.00000000000E+00 -0.00000000000E+00 -0.21116924000E+03  0.21116924000E+03  0.00000000000E+00 0. -1.
          6    2    1    2  501    0  0.11484922247E+03  0.24868587909E+03  0.14486725087E+03  0.35494453221E+03  0.17310138709E+03 0.  0.
         24    2    3    3    0    0  0.13667468610E+03  0.22813431358E+03  0.85344436100E+02  0.28813305726E+03  0.70793721886E+02 0.  0.
         -6    2    1    2    0  502 -0.11484922247E+03 -0.24868587909E+03  0.14087895031E+03  0.35314014896E+03  0.17270227504E+03 0.  0.
        -24    2    5    5    0    0 -0.69197716549E+02 -0.23540332999E+03  0.15784946976E+03  0.30243931431E+03  0.79687087965E+02 0.  0.
          5    1    3    3  501    0 -0.21825463628E+02  0.20551565512E+02  0.59522814772E+02  0.66811474957E+02  0.47000000000E+01 0. -1.
        -13    1    4    4    0    0  0.28079042707E+02  0.69891385525E+02  0.56276599853E+02  0.94022838188E+02  0.00000000000E+00 0.  1.
         14    1    4    4    0    0  0.10859564339E+03  0.15824292805E+03  0.29067836248E+02  0.19411021907E+03  0.00000000000E+00 0. -1.
         -5    1    5    5    0  502 -0.45651505922E+02 -0.13282549097E+02 -0.16970519454E+02  0.50700834648E+02  0.47000000000E+01 0.  1.
         13    1    6    6    0    0 -0.23169007255E+02 -0.10657755521E+03  0.25315538720E+02  0.11196631043E+03  0.00000000000E+00 0. -1.
        -14    1    6    6    0    0 -0.46028709294E+02 -0.12882577478E+03  0.13253393104E+03  0.19047300387E+03  0.00000000000E+00 0.  1.
</event>
<event>
12    1  0.1629553E-001  0.2883552E+03  0.7818608E-02  0.1091529E+00
         21   -1    0    0  503  502  0.00000000000E+00  0.00000000000E+00  0.87749164746E+03  0.87749164746E+03  0.00000000000E+00 0. -1.
         21   -1    0    0  501  503 -0.00000000000E+00 -0.00000000000E+00 -0.12582891604E+03  0.12582891604E+03  0.00000000000E+00 0. -1.
          6    2    1    2  501    0 -0.84710396606E+02  0.21026691457E+03  0.12221912496E+03  0.31097094900E+03  0.17429110694E+03 0.  0.
         24    2    3    3    0    0 -0.94014724649E+02  0.67047825826E+02  0.56645883216E+02  0.15310956064E+03  0.83063843376E+02 0.  0.
         -6    2    1    2    0  502  0.84710396606E+02 -0.21026691457E+03  0.62944360646E+03  0.69234961450E+03  0.17821534259E+03 0.  0.
        -24    2    5    5    0    0  0.66635859091E+02 -0.22130601022E+03  0.62362124438E+03  0.66988763686E+03  0.80182926519E+02 0.  0.
          5    1    3    3  501    0  0.93043280436E+01  0.14321908874E+03  0.65573241748E+02  0.15786138835E+03  0.47000000000E+01 0. -1.
        -11    1    4    4    0    0 -0.17899707155E+02 -0.18806864761E+02  0.20458247930E+01  0.26043868328E+02  0.00000000000E+00 0.  1.
         12    1    4    4    0    0 -0.76115017494E+02  0.85854690588E+02  0.54600058423E+02  0.12706569232E+03  0.00000000000E+00 0. -1.
         -5    1    5    5    0  502  0.18074537514E+02  0.11039095653E+02  0.58223620794E+01  0.22461977637E+02  0.47000000000E+01 0.  1.
         13    1    6    6    0    0 -0.10772722415E+02 -0.79841108567E+02  0.25793583418E+03  0.27022499647E+03  0.00000000000E+00 0. -1.
        -14    1    6    6    0    0  0.77408581506E+02 -0.14146490165E+03  0.36568541020E+03  0.39966264039E+03  0.00000000000E+00 0.  1.
</event>
<event>
12    1  0.1629553E-001  0.2091851E+03  0.7818608E-02  0.1142627E+00
         21   -1    0    0  501  502  0.00000000000E+00  0.00000000000E+00  0.73917986468E+03  0.73917986468E+03  0.00000000000E+00 0.  1.
         21   -1    0    0  502  503 -0.00000000000E+00 -0.00000000000E+00 -0.58663078753E+02  0.58663078753E+02  0.00000000000E+00 0.  1.
         -6    2    1    2    0  503  0.10399691630E+03  0.57068462784E+02  0.32700014409E+03  0.38707242281E+03  0.16977572920E+03 0.  0.
        -24    2    3    3    0    0  0.37892396438E+02 -0.34659488264E+01  0.48558396642E+02  0.94521368710E+02  0.71613719003E+02 0.  0.
          6    2    1    2  501    0 -0.10399691630E+03 -0.57068462784E+02  0.35351664184E+03  0.41077052062E+03  0.17229694283E+03 0.  0.
         24    2    5    5    0    0 -0.10547194044E+03 -0.72061924981E+02  0.17372596736E+03  0.23028850979E+03  0.80838324773E+02 0.  0.
          5    1    5    5  501    0  0.14750241434E+01  0.14993462196E+02  0.17979067447E+03  0.18048201083E+03  0.47000000000E+01 0. -1.
        -11    1    6    6    0    0 -0.94023056194E+02 -0.60998246481E+02  0.18091650415E+03  0.21281894334E+03  0.00000000000E+00 0.  1.
         12    1    6    6    0    0 -0.11448884251E+02 -0.11063678500E+02 -0.71905367914E+01  0.17469566448E+02  0.00000000000E+00 0. -1.
         -5    1    3    3    0  503  0.66104519864E+02  0.60534411611E+02  0.27844174745E+03  0.29255105410E+03  0.47000000000E+01 0.  1.
         11    1    4    4    0    0  0.91823134960E+01 -0.35556402940E+02  0.30857267203E+02  0.47966067281E+02  0.00000000000E+00 0. -1.
        -12    1    4    4    0    0  0.28710082942E+02  0.32090454114E+02  0.17701129439E+02  0.46555301429E+02  0.00000000000E+00 0.  1.
</event>
<event>
12    1  0.1629553E-001  0.2623526E+03  0.7818608E-02  0.1105750E+00
         21   -1    0    0  501  502  0.00000000000E+00  0.00000000000E+00  0.15628097323E+03  0.15628097323E+03  0.00000000000E+00 0. -1.
         21   -1    0    0  502  503 -0.00000000000E+00 -0.00000000000E+00 -0.12453811251E+04  0.12453811251E+04  0.00000000000E+00 0. -1.
         -6    2    1    2    0  503 -0.18660695085E+03 -0.65233206916E+02 -0.11080115138E+04  0.11386288158E+04  0.17236165497E+03 0.  0.
        -24    2    3    3    0    0 -0.16964022041E+03 -0.29012915493E+01 -0.66914480912E+03  0.69500824360E+03  0.80594424314E+02 0.  0.
          6    2    1    2  501    0  0.18660695085E+03  0.65233206916E+02  0.18911361922E+02  0.26303328251E+03  0.17248577538E+03 0.  0.
         24    2    5    5    0    0  0.73473206086E+02 -0.41422632074E+01  0.60632191359E+02  0.12383946918E+03  0.79022029469E+02 0.  0.
          5    1    5    5  501    0  0.11313374477E+03  0.69375470123E+02 -0.41720829437E+02  0.13919381333E+03  0.47000000000E+01 0. -1.
        -11    1    6    6    0    0 -0.10720143117E+02 -0.52883093696E+01 -0.86858684322E+01  0.14776061547E+02  0.00000000000E+00 0.  1.
         12    1    6    6    0    0  0.84193349203E+02  0.11460461622E+01  0.69318059791E+02  0.10906340764E+03  0.00000000000E+00 0. -1.
         -5    1    3    3    0  503 -0.16966730448E+02 -0.62331915367E+02 -0.43886670470E+03  0.44362057223E+03  0.47000000000E+01 0.  1.
         13    1    4    4    0    0  0.64388135348E+01  0.90650252208E+01 -0.32228097484E+02  0.34092275803E+02  0.00000000000E+00 0. -1.
        -14    1    4    4    0    0 -0.17607903394E+03 -0.11966316770E+02 -0.63691671164E+03  0.66091596780E+03  0.00000000000E+00 0.  1.
</event>
<event>
12    1  0.1629553E-001  0.1763276E+03  0.7818608E-02  0.1171709E+00
         21   -1    0    0  501  502  0.00000000000E+00  0.00000000000E+00  0.76024548856E+02  0.76024548856E+02  0.00000000000E+00 0. -1.
         21   -1    0    0  502  503 -0.00000000000E+00 -0.00000000000E+00 -0.30874924523E+04  0.30874924523E+04  0.00000000000E+00 0. -1.
         -6    2    1    2    0  503 -0.33531491272E+01 -0.37927619825E+02 -0.29791013822E+04  0.29842433989E+04  0.17092065714E+03 0.  0.
        -24    2    3    3    0    0 -0.58750007810E+02 -0.12979719008E+02 -0.23566236230E+04  0.23587900750E+04  0.81213799522E+02 0.  0.
          6    2    1    2  501    0  0.33531491272E+01  0.37927619825E+02 -0.32366521288E+02  0.17927360221E+03  0.17216760669E+03 0.  0.
         24    2    5    5    0    0  0.56905945350E+02 -0.80889085208E+01  0.98180620070E+01  0.96890036300E+02  0.77379375388E+02 0.  0.
          5    1    5    5  501    0 -0.53552796223E+02  0.46016528346E+02 -0.42184583295E+02  0.82383565910E+02  0.47000000000E+01 0. -1.
        -11    1    6    6    0    0  0.30923103272E+02  0.29929457819E+02 -0.13726481217E+02  0.45171086415E+02  0.00000000000E+00 0.  1.
         12    1    6    6    0    0  0.25982842079E+02 -0.38018366340E+02  0.23544543224E+02  0.51718949885E+02  0.00000000000E+00 0. -1.
         -5    1    3    3    0  503  0.55396858683E+02 -0.24947900817E+02 -0.62247775919E+03  0.62545332392E+03  0.47000000000E+01 0.  1.
         13    1    4    4    0    0 -0.24021175521E+02  0.36487818383E+01 -0.19903176673E+04  0.19904659623E+04  0.00000000000E+00 0. -1.
        -14    1    4    4    0    0 -0.34728832289E+02 -0.16628500847E+02 -0.36630595568E+03  0.36832411270E+03  0.00000000000E+00 0.  1.
</event>
<event>
12    1  0.1629553E-001  0.2296424E+03  0.7818608E-02  0.1126991E+00
         21   -1    0    0  501  502  0.00000000000E+00  0.00000000000E+00  0.11162349983E+03  0.11162349983E+03  0.00000000000E+00 0.  1.
         21   -1    0    0  502  503 -0.00000000000E+00 -0.00000000000E+00 -0.48550422250E+03  0.48550422250E+03  0.00000000000E+00 0. -1.
         -6    2    1    2    0  503  0.13872943770E+03  0.50299034797E+02 -0.23780531288E+03  0.33019676818E+03  0.17522182825E+03 0.  0.
        -24    2    3    3    0    0  0.58807047668E+02 -0.26943502793E+02 -0.17427727170E+03  0.20208782993E+03  0.79263499658E+02 0.  0.
          6    2    1    2  501    0 -0.13872943770E+03 -0.50299034797E+02 -0.13607540979E+03  0.26693095416E+03  0.17595387848E+03 0.  0.
         24    2    5    5    0    0 -0.60500566108E+02  0.99384796918E+01 -0.21192931915E+01  0.10045379153E+03  0.79544836103E+02 0.  0.
          5    1    5    5  501    0 -0.78228871595E+02 -0.60237514489E+02 -0.13395611660E+03  0.16647716263E+03  0.47000000000E+01 0. -1.
        -11    1    6    6    0    0 -0.34542328599E+02 -0.10106562220E+02  0.35495074233E+02  0.50549138071E+02  0.00000000000E+00 0.  1.
         12    1    6    6    0    0 -0.25958237509E+02  0.20045041911E+02 -0.37614367425E+02  0.49904653456E+02  0.00000000000E+00 0. -1.
         -5    1    3    3    0  503  0.79922390035E+02  0.77242537590E+02 -0.63528041179E+02  0.12810893825E+03  0.47000000000E+01 0.  1.
         11    1    4    4    0    0  0.78165424105E+02 -0.21388522562E+02 -0.12640440700E+03  0.15015117892E+03  0.00000000000E+00 0. -1.
        -12    1    4    4    0    0 -0.19358376437E+02 -0.55549802311E+01 -0.47872864703E+02  0.51936651013E+02  0.00000000000E+00 0.  1.
</event>
<event>
12    1  0.1629553E-001  0.2241110E+03  0.7818608E-02  0.1131571E+00
         21   -1    0    0  503  502  0.00000000000E+00  0.00000000000E+00  0.80093308274E+02  0.80093308274E+02  0.00000000000E+00 0.  1.
         21   -1    0    0  501  503 -0.00000000000E+00 -0.00000000000E+00 -0.15379240585E+04  0.15379240585E+04  0.00000000000E+00 0. -1.
          6    2    1    2  501    0  0.13798080182E+03  0.36997737675E+02 -0.13526388711E+04  0.13704470648E+04  0.16758790959E+03 0.  0.
         24    2    3    3    0    0  0.42314757659E+02  0.99163240447E+01 -0.30790329806E+03  0.32098058005E+03  0.79594092814E+02 0.  0.
         -6    2    1    2    0  502 -0.13798080182E+03 -0.36997737675E+02 -0.10519187912E+03  0.24757030201E+03  0.17267943925E+03 0.  0.
        -24    2    5    5    0    0 -0.62048731953E+01 -0.38149782881E+02 -0.20232265477E+02  0.90705874801E+02  0.79525497621E+02 0.  0.
          5    1    3    3  501    0  0.95666044158E+02  0.27081413631E+02 -0.10447355731E+04  0.10494664848E+04  0.47000000000E+01 0. -1.
        -13    1    4    4    0    0  0.53796513929E+02  0.21700789506E+02 -0.29330022465E+03  0.29898162311E+03  0.00000000000E+00 0.  1.
         14    1    4    4    0    0 -0.11481756270E+02 -0.11784465462E+02 -0.14603073408E+02  0.21998956935E+02  0.00000000000E+00 0. -1.
         -5    1    5    5    0  502 -0.13177592862E+03  0.11520452053E+01 -0.84959613644E+02  0.15686442721E+03  0.47000000000E+01 0.  1.
         11    1    6    6    0    0 -0.24815187853E+02 -0.29655757103E+02 -0.44508315182E+02  0.58959711650E+02  0.00000000000E+00 0. -1.
        -12    1    6    6    0    0  0.18610314657E+02 -0.84940257771E+01  0.24276049705E+02  0.31746163151E+02  0.00000000000E+00 0.  1.
</event>
<event>
12    1  0.1629553E-001  0.2118597E+03  0.7818608E-02  0.1140271E+00
         21   -1    0    0  503  502  0.00000000000E+00  0.00000000000E+00  0.73759687260E+02  0.73759687260E+02  0.00000000000E+00 0.  1.
         21   -1    0    0  501  503 -0.00000000000E+00 -0.00000000000E+00 -0.62338432920E+03  0.62338432920E+03  0.00000000000E+00 0.  1.
          6    2    1    2  501    0  0.94756839064E+02 -0.79396331191E+02 -0.21722511856E+03  0.30343251185E+03  0.17205203037E+03 0.  0.
         24    2    3    3    0    0  0.44163313738E+02 -0.11751826467E+03 -0.15323384807E+03  0.21326622482E+03  0.78999554692E+02 0.  0.
         -6    2    1    2    0  502 -0.94756839064E+02  0.79396331191E+02 -0.33239952338E+03  0.39371150462E+03  0.17098733803E+03 0.  0.
        -24    2    5    5    0    0 -0.93032288341E+02  0.19028713408E+02 -0.30123892124E+03  0.32559178297E+03  0.79044435966E+02 0.  0.
          5    1    3    3  501    0  0.50593525325E+02  0.38121933484E+02 -0.63991270492E+02  0.90166287029E+02  0.47000000000E+01 0. -1.
        -11    1    4    4    0    0  0.29543667677E+02 -0.70124597331E+02 -0.14392538247E+03  0.16280295811E+03  0.00000000000E+00 0.  1.
         12    1    4    4    0    0  0.14619646061E+02 -0.47393667343E+02 -0.93084656043E+01  0.50463266711E+02  0.00000000000E+00 0. -1.
         -5    1    5    5    0  502 -0.17245507227E+01  0.60367617783E+02 -0.31160602142E+02  0.68119721651E+02  0.47000000000E+01 0.  1.
         13    1    6    6    0    0 -0.45150663244E+02 -0.28238132816E+02 -0.98412794449E+02  0.11189750957E+03  0.00000000000E+00 0. -1.
        -14    1    6    6    0    0 -0.47881625097E+02  0.47266846224E+02 -0.20282612679E+03  0.21369427340E+03  0.00000000000E+00 0.  1.
</event>
<event>
12    1  0.1629553E-001  0.1762242E+03  0.7818608E-02  0.1171537E+00
         21   -1    0    0  503  502  0.00000000000E+00  0.00000000000E+00  0.58844799484E+02  0.58844799484E+02  0.00000000000E+00 0.  1.
         21   -1    0    0  501  503 -0.00000000000E+00 -0.00000000000E+00 -0.72455356520E+03  0.72455356520E+03  0.00000000000E+00 0.  1.
          6    2    1    2  501    0 -0.37306520225E+02  0.64241498596E+01 -0.53709904995E+03  0.56523458149E+03  0.17199330367E+03 0.  0.
         24    2    3    3    0    0 -0.32905392031E+02  0.72283982181E+02 -0.29470859400E+03  0.31397354078E+03  0.73610393493E+02 0.  0.
         -6    2    1    2    0  502  0.37306520225E+02 -0.64241498596E+01 -0.12860971577E+03  0.21816378319E+03  0.17211022966E+03 0.  0.
        -24    2    5    5    0    0 -0.21881433660E+01  0.10788586716E+02 -0.14929553427E+03  0.17014191484E+03  0.80857486107E+02 0.  0.
          5    1    3    3  501    0 -0.44011281945E+01 -0.65859832322E+02 -0.24239045595E+03  0.25126104071E+03  0.47000000000E+01 0. -1.
        -11    1    4    4    0    0  0.12973410890E+02  0.53355349622E+02 -0.19518374350E+03  0.20276044103E+03  0.00000000000E+00 0.  1.
         12    1    4    4    0    0 -0.45878802921E+02  0.18928632559E+02 -0.99524850504E+02  0.11121309975E+03  0.00000000000E+00 0. -1.
         -5    1    5    5    0  502  0.39494663591E+02 -0.17212736575E+02  0.20685818500E+02  0.48021868348E+02  0.47000000000E+01 0.  1.
         11    1    6    6    0    0 -0.90851806985E+01 -0.52860710512E+01 -0.15206878300E+03  0.15243161686E+03  0.00000000000E+00 0. -1.
        -12    1    6    6    0    0  0.68970373326E+01  0.16074657767E+02  0.27732487280E+01  0.17710297987E+02  0.00000000000E+00 0.  1.
</event>
<event>
12    1  0.1629553E-001  0.1988595E+03  0.7818608E-02  0.1152545E+00
         21   -1    0    0  503  502  0.00000000000E+00  0.00000000000E+00  0.31841427831E+02  0.31841427831E+02  0.00000000000E+00 0. -1.
         21   -1    0    0  501  503 -0.00000000000E+00 -0.00000000000E+00 -0.27648928309E+04  0.27648928309E+04  0.00000000000E+00 0. -1.
          6    2    1    2  501    0 -0.89884878497E+02 -0.38528916743E+02 -0.24091290215E+04  0.24166410985E+04  0.16336397373E+03 0.  0.
         24    2    3    3    0    0 -0.74777004668E+02 -0.27692554449E+02 -0.23734945466E+04  0.23761740699E+04  0.79802066915E+02 0.  0.
         -6    2    1    2    0  502  0.89884878497E+02  0.38528916743E+02 -0.32392238156E+03  0.38009316022E+03  0.17315118355E+03 0.  0.
        -24    2    5    5    0    0  0.10769843501E+03 -0.21156986090E+02 -0.22949815224E+03  0.26687763622E+03  0.80670315913E+02 0.  0.
          5    1    3    3  501    0 -0.15107873829E+02 -0.10836362293E+02 -0.35634474887E+02  0.40467028553E+02  0.47000000000E+01 0. -1.
        -11    1    4    4    0    0 -0.57663001625E+02 -0.55142688207E+02 -0.18009100705E+04  0.18026765711E+04  0.00000000000E+00 0.  1.
         12    1    4    4    0    0 -0.17114003042E+02  0.27450133758E+02 -0.57258447607E+03  0.57349749885E+03  0.00000000000E+00 0. -1.
         -5    1    5    5    0  502 -0.17813556513E+02  0.59685902833E+02 -0.94424229324E+02  0.11321552401E+03  0.47000000000E+01 0.  1.
         11    1    6    6    0    0  0.86571896163E+02  0.85433488165E+01 -0.10094548392E+03  0.13325791811E+03  0.00000000000E+00 0. -1.
        -12    1    6    6    0    0  0.21126538847E+02 -0.29700334906E+02 -0.12855266831E+03  0.13361971811E+03  0.00000000000E+00 0.  1.
</event>
<event>
12    1  0.1629553E-001  0.1735496E+03  0.7818608E-02  0.1174528E+00
         21   -1    0    0  501  502  0.00000000000E+00  0.00000000000E+00  0.11047129702E+04  0.11047129702E+04  0.00000000000E+00 0.  1.
         21   -1    0    0  502  503 -0.00000000000E+00 -0.00000000000E+00 -0.15305962608E+03  0.15305962608E+03  0.00000000000E+00 0.  1.
         -6    2    1    2    0  503  0.29336917997E+00 -0.13245554078E+02 -0.95082508489E+02  0.19674695723E+03  0.17173570098E+03 0.  0.
        -24    2    3    3    0    0 -0.16386785613E+02 -0.18850233945E+02  0.16132565011E+02  0.84050362009E+02  0.78615174347E+02 0.  0.
          6    2    1    2  501    0 -0.29336917997E+00  0.13245554078E+02  0.10467358526E+04  0.10610256391E+04  0.17304314728E+03 0.  0.
         24    2    5    5    0    0 -0.48681341773E+01 -0.12362564732E+01  0.10411001185E+04  0.10441584280E+04  0.79700306872E+02 0.  0.
          5    1    5    5  501    0  0.45747649973E+01  0.14481810551E+02  0.56357341597E+01  0.16867211125E+02  0.47000000000E+01 0. -1.
        -13    1    6    6    0    0 -0.39546917388E+02 -0.59399923885E+01  0.73032235970E+03  0.73141642808E+03  0.00000000000E+00 0.  1.
         14    1    6    6    0    0  0.34678783210E+02  0.47037359154E+01  0.31077775879E+03  0.31274199989E+03  0.00000000000E+00 0. -1.
         -5    1    3    3    0  503  0.16680154793E+02  0.56046798670E+01 -0.11121507350E+03  0.11269659522E+03  0.47000000000E+01 0.  1.
         13    1    4    4    0    0  0.49542771150E+01 -0.42845754736E+02  0.26115838824E+02  0.50421628277E+02  0.00000000000E+00 0. -1.
        -14    1    4    4    0    0 -0.21341062728E+02  0.23995520791E+02 -0.99832738127E+01  0.33628733732E+02  0.00000000000E+00 0.  1.
</event>
<event>
12    1  0.1629553E-001  0.1823295E+03  0.7818608E-02  0.1165601E+00
         21   -1    0    0  501  502  0.00000000000E+00  0.00000000000E+00  0.55784616492E+02  0.55784616492E+02  0.00000000000E+00 0. -1.
         21   -1    0    0  502  503 -0.00000000000E+00 -0.00000000000E+00 -0.72948804339E+03  0.72948804339E+03  0.00000000000E+00 0. -1.
         -6    2    1    2    0  503  0.60318694187E+02 -0.62227159420E+01 -0.50503378549E+03  0.53689089897E+03  0.17180118117E+03 0.  0.
        -24    2    3    3    0    0  0.72917392663E+02 -0.61917580359E+02 -0.34350670615E+03  0.36550323173E+03  0.80280896352E+02 0.  0.
          6    2    1    2  501    0 -0.60318694187E+02  0.62227159420E+01 -0.16866964141E+03  0.24838176091E+03  0.17195052823E+03 0.  0.
         24    2    5    5    0    0  0.30023870701E+02 -0.69078775390E+01 -0.52713798649E+02  0.10072662559E+03  0.80112152330E+02 0.  0.
          5    1    5    5  501    0 -0.90342564888E+02  0.13130593481E+02 -0.11595584276E+03  0.14765513532E+03  0.47000000000E+01 0. -1.
        -11    1    6    6    0    0  0.56938136983E+01 -0.32765704750E+02 -0.55936396480E+02  0.65076043007E+02  0.00000000000E+00 0.  1.
         12    1    6    6    0    0  0.24330057003E+02  0.25857827211E+02  0.32225978311E+01  0.35650582584E+02  0.00000000000E+00 0. -1.
         -5    1    3    3    0  503 -0.12598698475E+02  0.55694864417E+02 -0.16152707934E+03  0.17138766725E+03  0.47000000000E+01 0.  1.
         11    1    4    4    0    0  0.60514333227E+02 -0.44405667205E+02 -0.33346966636E+03  0.34181261853E+03  0.00000000000E+00 0. -1.
        -12    1    4    4    0    0  0.12403059436E+02 -0.17511913154E+02 -0.10037039796E+02  0.23690613195E+02  0.00000000000E+00 0.  1.
</event>
<event>
12    1  0.1629553E-001  0.2475961E+03  0.7818608E-02  0.1114857E+00
         21   -1    0    0  501  502  0.00000000000E+00  0.00000000000E+00  0.40204362860E+03  0.40204362860E+03  0.00000000000E+00 0.  1.
         21   -1    0    0  502  503 -0.00000000000E+00 -0.00000000000E+00 -0.21392663075E+03  0.21392663075E+03  0.00000000000E+00 0.  1.
         -6    2    1    2    0  503 -0.16886194934E+03  0.60377203531E+02 -0.71101875606E+02  0.25760296189E+03  0.17071626934E+03 0.  0.
        -24    2    3    3    0    0 -0.26823712563E+02  0.48323924202E+02  0.39844872171E+01  0.96419234011E+02  0.78905508952E+02 0.  0.
          6    2    1    2  501    0  0.16886194934E+03 -0.60377203531E+02  0.25921887346E+03  0.35836729747E+03  0.17050786168E+03 0.  0.
         24    2    5    5    0    0  0.13079262499E+03 -0.10070595369E+03  0.15520905821E+03  0.24040199234E+03  0.80342182630E+02 0.  0.
          5    1    5    5  501    0  0.38069324350E+02  0.40328750159E+02  0.10400981524E+03  0.11796530512E+03  0.47000000000E+01 0. -1.
        -13    1    6    6    0    0  0.52884027048E+02 -0.34969518599E+02  0.11853074662E+02  0.64498704846E+02  0.00000000000E+00 0.  1.
         14    1    6    6    0    0  0.77908597945E+02 -0.65736435091E+02  0.14335598355E+03  0.17590328750E+03  0.00000000000E+00 0. -1.
         -5    1    3    3    0  503 -0.14203823678E+03  0.12053279330E+02 -0.75086362823E+02  0.16118372788E+03  0.47000000000E+01 0.  1.
         13    1    4    4    0    0 -0.43598361633E+02  0.38194500622E+02  0.28862152135E+02  0.64750759383E+02  0.00000000000E+00 0. -1.
        -14    1    4    4    0    0  0.16774649070E+02  0.10129423579E+02 -0.24877664918E+02  0.31668474627E+02  0.00000000000E+00 0.  1.
</event>
<event>
12    1  0.1629553E-001  0.2756578E+03  0.7818608E-02  0.1098230E+00
         21   -1    0    0  501  502  0.00000000000E+00  0.00000000000E+00  0.18171562607E+03  0.18171562607E+03  0.00000000000E+00 0.  1.
         21   -1    0    0  502  503 -0.00000000000E+00 -0.00000000000E+00 -0.69924440019E+03  0.69924440019E+03  0.00000000000E+00 0. -1.
         -6    2    1    2    0  503  0.15171028747E+03  0.15103178748E+03 -0.53911056578E+03  0.60549767111E+03  0.17366811861E+03 0.  0.
        -24    2    3    3    0    0  0.11411596687E+03  0.14450825684E+03 -0.52890411175E+03  0.56572140812E+03  0.79975383606E+02 0.  0.
          6    2    1    2  501    0 -0.15171028747E+03 -0.15103178748E+03  0.21581791659E+02  0.27546235516E+03  0.17200907890E+03 0.  0.
         24    2    5    5    0    0 -0.13746162982E+03 -0.88858243019E+02  0.70192952923E+02  0.19512737601E+03  0.79725499079E+02 0.  0.
          5    1    5    5  501    0 -0.14248657659E+02 -0.62173544457E+02 -0.48611161264E+02  0.80334979149E+02  0.47000000000E+01 0. -1.
        -13    1    6    6    0    0 -0.92745932230E+02 -0.98225781272E+02  0.42127475492E+02  0.14150913837E+03  0.00000000000E+00 0.  1.
         14    1    6    6    0    0 -0.44715697586E+02  0.93675382536E+01  0.28065477432E+02  0.53618237634E+02  0.00000000000E+00 0. -1.
         -5    1    3    3    0  503  0.37594320603E+02  0.65235306357E+01 -0.10206454033E+02  0.39776262990E+02  0.47000000000E+01 0.  1.
         11    1    4    4    0    0  0.10850050148E+03  0.77270344249E+02 -0.35837911875E+03  0.38233317627E+03  0.00000000000E+00 0. -1.
        -12    1    4    4    0    0  0.56154653950E+01  0.67237912591E+02 -0.17052499300E+03  0.18338823184E+03  0.00000000000E+00 0.  1.
</event>
<event>
12    1  0.1629553E-001  0.2010710E+03  0.7818608E-02  0.1149070E+00
         21   -1    0    0  501  502  0.00000000000E+00  0.00000000000E+00  0.25219047409E+03  0.25219047409E+03  0.00000000000E+00 0. -1.
         21   -1    0    0  502  503 -0.00000000000E+00 -0.00000000000E+00 -0.17758497541E+03  0.17758497541E+03  0.00000000000E+00 0. -1.
         -6    2    1    2    0  503 -0.97934421563E+02 -0.17062442041E+02 -0.31302726632E+02  0.20349301263E+03  0.17477776644E+03 0.  0.
        -24    2    3    3    0    0 -0.52980319984E+02  0.48804385749E+02 -0.52883386277E+02  0.12074565544E+03  0.81203930875E+02 0.  0.
          6    2    1    2  501    0  0.97934421563E+02  0.17062442041E+02  0.10590822531E+03  0.22628243686E+03  0.17350766896E+03 0.  0.
         24    2    5    5    0    0  0.13376091141E+03  0.58827847216E+01  0.60442761005E+02  0.16714090698E+03  0.79725572116E+02 0.  0.
          5    1    5    5  501    0 -0.35826489847E+02  0.11179657319E+02  0.45465464305E+02  0.59141529884E+02  0.47000000000E+01 0. -1.
        -13    1    6    6    0    0  0.24709786172E+02 -0.31225055250E+02  0.23166070594E+02  0.46067824290E+02  0.00000000000E+00 0.  1.
         14    1    6    6    0    0  0.10905112524E+03  0.37107839971E+02  0.37276690411E+02  0.12107308269E+03  0.00000000000E+00 0. -1.
         -5    1    3    3    0  503 -0.44954101579E+02 -0.65866827790E+02  0.21580659645E+02  0.82747357194E+02  0.47000000000E+01 0.  1.
         13    1    4    4    0    0 -0.23286781094E+02 -0.10036467247E+02 -0.48454192821E+02  0.54688331941E+02  0.00000000000E+00 0. -1.
        -14    1    4    4    0    0 -0.29693538890E+02  0.58840852997E+02 -0.44291934559E+01  0.66057323499E+02  0.00000000000E+00 0.  1.
</event>
<event>
12    1  0.1629553E-001  0.1787509E+03  0.7818608E-02  0.1169314E+00
         21   -1    0    0  501  502  0.00000000000E+00  0.00000000000E+00  0.53230070566E+03  0.53230070566E+03  0.00000000000E+00 0. -1.
         21   -1    0    0  502  503 -0.00000000000E+00 -0.00000000000E+00 -0.22609984187E+03  0.22609984187E+03  0.00000000000E+00 0. -1.
         -6    2    1    2    0  503  0.45645362674E+02 -0.46058808831E+01 -0.17242190957E+03  0.24748797207E+03  0.17151171432E+03 0.  0.
        -24    2    3    3    0    0 -0.26920357658E+02 -0.37673400443E+02 -0.14075971239E+03  0.16155876081E+03  0.64373486818E+02 0.  0.
          6    2    1    2  501    0 -0.45645362674E+02  0.46058808831E+01  0.47862277335E+03  0.51091257546E+03  0.17276338535E+03 0.  0.
         24    2    5    5    0    0 -0.28404501564E+02 -0.35611173913E+02  0.12783625167E+03  0.15737625119E+03  0.79688178414E+02 0.  0.
          5    1    5    5  501    0 -0.17240861110E+02  0.40217054796E+02  0.35078652168E+03  0.35353632427E+03  0.47000000000E+01 0. -1.
        -11    1    6    6    0    0 -0.80579927769E+01  0.11161058451E+02 -0.53408877495E+01  0.14765688446E+02  0.00000000000E+00 0.  1.
         12    1    6    6    0    0 -0.20346508788E+02 -0.46772232364E+02  0.13317713942E+03  0.14261056274E+03  0.00000000000E+00 0. -1.
         -5    1    3    3    0  503  0.72565720332E+02  0.33067519560E+02 -0.31662197175E+02  0.85929211256E+02  0.47000000000E+01 0.  1.
         13    1    4    4    0    0 -0.36517263027E+02 -0.91022120167E+01 -0.11781231929E+03  0.12367741644E+03  0.00000000000E+00 0. -1.
        -14    1    4    4    0    0  0.95969053694E+01 -0.28571188427E+02 -0.22947393104E+02  0.37881344367E+02  0.00000000000E+00 0.  1.
</event>
<event>
12    1  0.1629553E-001  0.1869756E+03  0.7818608E-02  0.1161510E+00
         21   -1    0    0  503  502  0.00000000000E+00  0.00000000000E+00  0.26020555349E+03  0.26020555349E+03  0.00000000000E+00 0.  1.
         21   -1    0    0  501  503 -0.00000000000E+00 -0.00000000000E+00 -0.15278935945E+03  0.15278935945E+03  0.00000000000E+00 0.  1.
          6    2    1    2  501    0  0.57417357346E+02 -0.41538745865E+02 -0.19923870934E+02  0.18677521378E+03  0.17165605004E+03 0.  0.
         24    2    3    3    0    0  0.63270246909E+02 -0.82452280027E+02  0.16084614968E+02  0.13175817414E+03  0.79372532958E+02 0.  0.
         -6    2    1    2    0  502 -0.57417357346E+02  0.41538745865E+02  0.12734006497E+03  0.22621969916E+03  0.17302496874E+03 0.  0.
        -24    2    5    5    0    0 -0.20804884072E+02  0.18783333802E+02 -0.74152405993E+01  0.84659237315E+02  0.79539574048E+02 0.  0.
          5    1    3    3  501    0 -0.58528895636E+01  0.40913534162E+02 -0.36008485902E+02  0.55017039641E+02  0.47000000000E+01 0. -1.
        -11    1    4    4    0    0 -0.13832916394E+02 -0.29114705936E+02  0.19979226559E+02  0.37923411920E+02  0.00000000000E+00 0.  1.
         12    1    4    4    0    0  0.77103163304E+02 -0.53337574091E+02 -0.38946115906E+01  0.93834762220E+02  0.00000000000E+00 0. -1.
         -5    1    5    5    0  502 -0.36612473273E+02  0.22755412063E+02  0.13475530557E+03  0.14156046184E+03  0.47000000000E+01 0.  1.
         11    1    6    6    0    0 -0.46104888186E+02 -0.48386296688E+00 -0.20259553036E+02  0.50362131877E+02  0.00000000000E+00 0. -1.
        -12    1    6    6    0    0  0.25300004113E+02  0.19267196769E+02  0.12844312437E+02  0.34297105438E+02  0.00000000000E+00 0.  1.
</event>
<event>
12    1  0.1629553E-001  0.1936854E+03  0.7818608E-02  0.1155488E+00
         21   -1    0    0  503  502  0.00000000000E+00  0.00000000000E+00  0.62983141331E+03  0.62983141331E+03  0.00000000000E+00 0. -1.
         21   -1    0    0  501  503 -0.00000000000E+00 -0.00000000000E+00 -0.60868709636E+02  0.60868709636E+02  0.00000000000E+00 0. -1.
          6    2    1    2  501    0 -0.28759021504E+02  0.81718806353E+02  0.22714756909E+03  0.29851306486E+03  0.17323102239E+03 0.  0.
         24    2    3    3    0    0 -0.51455274477E+02  0.10298804378E+03  0.11846224826E+03  0.18536674665E+03  0.84103175140E+02 0.  0.
         -6    2    1    2    0  502  0.28759021504E+02 -0.81718806353E+02  0.34181513458E+03  0.39218705808E+03  0.17166262748E+03 0.  0.
        -24    2    5    5    0    0  0.43960817199E+02  0.10317837276E+02  0.12358333716E+03  0.15480751860E+03  0.81569083455E+02 0.  0.
          5    1    3    3  501    0  0.22696252973E+02 -0.21269237423E+02  0.10868532083E+03  0.11314631821E+03  0.47000000000E+01 0. -1.
        -11    1    4    4    0    0  0.53248933466E+01  0.34881434793E+02  0.82411178827E+02  0.89647483947E+02  0.00000000000E+00 0.  1.
         12    1    4    4    0    0 -0.56780167824E+02  0.68106608983E+02  0.36051069433E+02  0.95719262704E+02  0.00000000000E+00 0. -1.
         -5    1    5    5    0  502 -0.15201795695E+02 -0.92036643629E+02  0.21823179742E+03  0.23737953949E+03  0.47000000000E+01 0.  1.
         11    1    6    6    0    0  0.26481190754E+02 -0.22291898147E+02  0.11012458066E+03  0.11543658628E+03  0.00000000000E+00 0. -1.
        -12    1    6    6    0    0  0.17479626445E+02  0.32609735424E+02  0.13458756504E+02  0.39370932320E+02  0.00000000000E+00 0.  1.
</event>
<event>
12    1  0.1629553E-001  0.2382337E+03  0.7818608E-02  0.1121882E+00
         21   -1    0    0  501  502  0.00000000000E+00  0.00000000000E+00  0.49437670338E+02  0.49437670338E+02  0.00000000000E+00 0.  1.
         21   -1    0    0  502  503 -0.00000000000E+00 -0.00000000000E+00 -0.12082804617E+04  0.12082804617E+04  0.00000000000E+00 0. -1.
         -6    2    1    2    0  503  0.14678976882E+03 -0.75051948882E+02 -0.41794088041E+03  0.48107159572E+03  0.17197461855E+03 0.  0.
        -24    2    3    3    0    0  0.26644450040E+02 -0.76710197127E+02 -0.23651784153E+03  0.26341577464E+03  0.82781639910E+02 0.  0.
          6    2    1    2  501    0 -0.14678976882E+03  0.75051948882E+02 -0.74090191098E+03  0.77664653635E+03  0.16451191285E+03 0.  0.
         24    2    5    5    0    0 -0.41370929562E+02  0.27596407579E+02 -0.50631196120E+03  0.51507495034E+03  0.80481593474E+02 0.  0.
          5    1    5    5  501    0 -0.10541883926E+03  0.47455541303E+02 -0.23458994978E+03  0.26157158601E+03  0.47000000000E+01 0. -1.
        -11    1    6    6    0    0  0.17742427149E+02  0.28319178341E+02 -0.13431953585E+03  0.13841425972E+03  0.00000000000E+00 0.  1.
         12    1    6    6    0    0 -0.59113356711E+02 -0.72277076150E+00 -0.37199242535E+03  0.37666069062E+03  0.00000000000E+00 0. -1.
         -5    1    3    3    0  503  0.12014531878E+03  0.16582482457E+01 -0.18142303888E+03  0.21765582108E+03  0.47000000000E+01 0.  1.
         11    1    4    4    0    0  0.25450207534E+02 -0.45402413448E+02 -0.22351319983E+03  0.22949344807E+03  0.00000000000E+00 0. -1.
        -12    1    4    4    0    0  0.11942425056E+01 -0.31307783679E+02 -0.13004641703E+02  0.33922326569E+02  0.00000000000E+00 0.  1.
</event>
<event>
12    1  0.1629553E-001  0.2194661E+03  0.7818608E-02  0.1136010E+00
         21   -1    0    0  503  502  0.00000000000E+00  0.00000000000E+00  0.19619178265E+02  0.19619178265E+02  0.00000000000E+00 0. -1.
         21   -1    0    0  501  503 -0.00000000000E+00 -0.00000000000E+00 -0.28055918262E+04  0.28055918262E+04  0.00000000000E+00 0.  1.
          6    2    1    2  501    0  0.12283910025E+03 -0.62047872555E+02 -0.19836181639E+04  0.19957220167E+04  0.17095603131E+03 0.  0.
         24    2    3    3    0    0  0.45564702617E+02 -0.87577378162E+02 -0.86228884785E+03  0.87143352468E+03  0.78156199540E+02 0.  0.
         -6    2    1    2    0  502 -0.12283910025E+03  0.62047872555E+02 -0.80235448402E+03  0.82948898778E+03  0.15918504886E+03 0.  0.
        -24    2    5    5    0    0 -0.39891728478E+02 -0.31257328407E+01 -0.53266752025E+03  0.53986679638E+03  0.78232668981E+02 0.  0.
          5    1    3    3  501    0  0.77274397628E+02  0.25529505607E+02 -0.11213293161E+04  0.11242884920E+04  0.47000000000E+01 0. -1.
        -11    1    4    4    0    0 -0.30916172349E+01 -0.40309153284E+01 -0.35370918470E+03  0.35374566247E+03  0.00000000000E+00 0.  1.
         12    1    4    4    0    0  0.48656319852E+02 -0.83546462834E+02 -0.50857966315E+03  0.51768786221E+03  0.00000000000E+00 0. -1.
         -5    1    5    5    0  502 -0.82947371767E+02  0.65173605396E+02 -0.26968696377E+03  0.28962219140E+03  0.47000000000E+01 0.  1.
         13    1    6    6    0    0 -0.23424482469E+01  0.24186011868E+02 -0.57331001437E+02  0.62267920792E+02  0.00000000000E+00 0. -1.
        -14    1    6    6    0    0 -0.37549280231E+02 -0.27311744709E+02 -0.47533651882E+03  0.47759887559E+03  0.00000000000E+00 0.  1.
</event>
<event>
12    1  0.1629553E-001  0.2251464E+03  0.7818608E-02  0.1130662E+00
         21   -1    0    0  501  502  0.00000000000E+00  0.00000000000E+00  0.61943771292E+03  0.61943771292E+03  0.00000000000E+00 0.  1.
         21   -1    0    0  502  503 -0.00000000000E+00 -0.00000000000E+00 -0.91203327242E+02  0.91203327242E+02  0.00000000000E+00 0.  1.
         -6    2    1    2    0  503 -0.13952151294E+03  0.37395566679E+02  0.38295632653E+03  0.44269214086E+03  0.16868936709E+03 0.  0.
        -24    2    3    3    0    0 -0.11980495759E+02  0.37130318361E+02  0.20737166229E+03  0.22562338277E+03  0.79879357236E+02 0.  0.
          6    2    1    2  501    0  0.13952151294E+03 -0.37395566679E+02  0.14527805914E+03  0.26794889930E+03  0.17270268436E+03 0.  0.
         24    2    5    5    0    0  0.92223932980E+02 -0.29237366598E+02  0.17209374103E+03  0.21276930076E+03  0.79337520924E+02 0.  0.
          5    1    5    5  501    0  0.47297579965E+02 -0.81582000810E+01 -0.26815681888E+02  0.55179598533E+02  0.47000000000E+01 0. -1.
        -11    1    6    6    0    0  0.42702666051E+02  0.25855174872E+02  0.55645866943E+02  0.74756071749E+02  0.00000000000E+00 0.  1.
         12    1    6    6    0    0  0.49521266929E+02 -0.55092541470E+02  0.11644787409E+03  0.13801322902E+03  0.00000000000E+00 0. -1.
         -5    1    3    3    0  503 -0.12754101719E+03  0.26524831830E+00  0.17558466424E+03  0.21706875809E+03  0.47000000000E+01 0.  1.
         11    1    4    4    0    0  0.62888308962E+01  0.59593861198E+02  0.13762874056E+03  0.15010878693E+03  0.00000000000E+00 0. -1.
        -12    1    4    4    0    0 -0.18269326655E+02 -0.22463542837E+02  0.69742921733E+02  0.75514595841E+02  0.00000000000E+00 0.  1.
</event>
<event>
12    1  0.1629553E-001  0.2416758E+03  0.7818608E-02  0.1119034E+00
         21   -1    0    0  501  502  0.00000000000E+00  0.00000000000E+00  0.78352453768E+03  0.78352453768E+03  0.00000000000E+00 0. -1.
         21   -1    0    0  502  503 -0.00000000000E+00 -0.00000000000E+00 -0.82433579392E+02  0.82433579392E+02  0.00000000000E+00 0. -1.
         -6    2    1    2    0  503 -0.49268551502E+02 -0.15959104512E+03  0.21254483143E+03  0.32184232106E+03  0.17467250043E+03 0.  0.
        -24    2    3    3    0    0 -0.10051616390E+02 -0.11074517943E+03  0.21900242580E+03  0.25869426392E+03  0.81210405269E+02 0.  0.
          6    2    1    2  501    0  0.49268551502E+02  0.15959104512E+03  0.48854612686E+03  0.54411579602E+03  0.17172067304E+03 0.  0.
         24    2    5    5    0    0 -0.10919311705E+02  0.23607918942E+02  0.19118769305E+03  0.21161298754E+03  0.86895093747E+02 0.  0.
          5    1    5    5  501    0  0.60187863207E+02  0.13598312618E+03  0.29735843381E+03  0.33250280847E+03  0.47000000000E+01 0. -1.
        -11    1    6    6    0    0  0.10902652391E+01 -0.17370951691E+02  0.15402154558E+03  0.15500185529E+03  0.00000000000E+00 0.  1.
         12    1    6    6    0    0 -0.12009576944E+02  0.40978870633E+02  0.37166147470E+02  0.56611132249E+02  0.00000000000E+00 0. -1.
         -5    1    3    3    0  503 -0.39216935112E+02 -0.48845865693E+02 -0.64575943675E+01  0.63148057135E+02  0.47000000000E+01 0.  1.
         11    1    4    4    0    0  0.20700521249E+02 -0.10179346112E+03  0.14814850380E+03  0.18093755687E+03  0.00000000000E+00 0. -1.
        -12    1    4    4    0    0 -0.30752137639E+02 -0.89517183066E+01  0.70853921991E+02  0.77756707052E+02  0.00000000000E+00 0.  1.
</event>
<event>
12    1  0.1629553E-001  0.1960198E+03  0.7818608E-02  0.1156971E+00
         21   -1    0    0  503  502  0.00000000000E+00  0.00000000000E+00  0.40915165664E+03  0.40915165664E+03  0.00000000000E+00 0. -1.
         21   -1    0    0  501  503 -0.00000000000E+00 -0.00000000000E+00 -0.15479937469E+03  0.15479937469E+03  0.00000000000E+00 0. -1.
          6    2    1    2  501    0 -0.18509507716E+02  0.45221559639E+02 -0.57516159617E+02  0.20428377379E+03  0.18983192641E+03 0.  0.
         24    2    3    3    0    0 -0.49821870056E+02  0.90986816881E+02 -0.65330517103E+02  0.14808700352E+03  0.83071442536E+02 0.  0.
         -6    2    1    2    0  502  0.18509507716E+02 -0.45221559639E+02  0.31186844157E+03  0.35966725754E+03  0.17236884859E+03 0.  0.
        -24    2    5    5    0    0 -0.59394755955E+01  0.29605587987E+02  0.85274406528E+02  0.11974268288E+03  0.78452644856E+02 0.  0.
          5    1    3    3  501    0  0.31312362341E+02 -0.45765257241E+02  0.78143574857E+01  0.56196770268E+02  0.47000000000E+01 0. -1.
        -11    1    4    4    0    0 -0.21587016724E+02  0.22344700517E+02  0.18468749653E+02  0.36143874252E+02  0.00000000000E+00 0.  1.
         12    1    4    4    0    0 -0.28234853332E+02  0.68642116364E+02 -0.83799266756E+02  0.11194312927E+03  0.00000000000E+00 0. -1.
         -5    1    5    5    0  502  0.24448983311E+02 -0.74827147627E+02  0.22659403504E+03  0.23992457466E+03  0.47000000000E+01 0.  1.
         13    1    6    6    0    0 -0.18382082512E+02  0.57853216810E+01  0.90359488955E+02  0.92391602154E+02  0.00000000000E+00 0. -1.
        -14    1    6    6    0    0  0.12442606916E+02  0.23820266306E+02 -0.50850824268E+01  0.27351080729E+02  0.00000000000E+00 0.  1.
</event>
<event>
12    1  0.1629553E-001  0.2621646E+03  0.7818608E-02  0.1105906E+00
         21   -1    0    0  503  502  0.00000000000E+00  0.00000000000E+00  0.17712603050E+03  0.17712603050E+03  0.00000000000E+00 0. -1.
         21   -1    0    0  501  503 -0.00000000000E+00 -0.00000000000E+00 -0.41942016592E+03  0.41942016592E+03  0.00000000000E+00 0.  1.
          6    2    1    2  501    0 -0.11782740045E+03 -0.15835644494E+03 -0.20338793363E+03  0.33151040685E+03  0.17196638726E+03 0.  0.
         24    2    3    3    0    0 -0.96672918115E+01 -0.12398315251E+03 -0.12791075659E+03  0.19513215862E+03  0.79057694375E+02 0.  0.
         -6    2    1    2    0  502  0.11782740045E+03  0.15835644494E+03 -0.38906201793E+02  0.26503578957E+03  0.17254048007E+03 0.  0.
        -24    2    5    5    0    0  0.12679368051E+03  0.17593535715E+03 -0.59617969012E+02  0.23604476278E+03  0.71644542665E+02 0.  0.
          5    1    3    3  501    0 -0.10816010864E+03 -0.34373292427E+02 -0.75477177044E+02  0.13637824822E+03  0.47000000000E+01 0. -1.
        -11    1    4    4    0    0 -0.73875159745E+01 -0.44092545383E+02 -0.10158066226E+03  0.11098359742E+03  0.00000000000E+00 0.  1.
         12    1    4    4    0    0 -0.22797758369E+01 -0.79890607132E+02 -0.26330094328E+02  0.84148561206E+02  0.00000000000E+00 0. -1.
         -5    1    5    5    0  502 -0.89662800590E+01 -0.17578912213E+02  0.20711767219E+02  0.28991026784E+02  0.47000000000E+01 0.  1.
         11    1    6    6    0    0  0.29400533231E+00  0.70687136274E+01  0.11402888596E+02  0.13419352437E+02  0.00000000000E+00 0. -1.
        -12    1    6    6    0    0  0.12649967518E+03  0.16886664353E+03 -0.71020857608E+02  0.22262541035E+03  0.00000000000E+00 0.  1.
</event>
<event>
12    1  0.1629553E-001  0.2001387E+03  0.7818608E-02  0.1149888E+00
         21   -1    0    0  503  502  0.00000000000E+00  0.00000000000E+00  0.11204669204E+03  0.11204669204E+03  0.00000000000E+00 0.  1.
         21   -1    0    0  501  503 -0.00000000000E+00 -0.00000000000E+00 -0.35755387102E+03  0.35755387102E+03  0.00000000000E+00 0.  1.
          6    2    1    2  501    0  0.75871225141E+02 -0.62470952274E+02 -0.14123547177E+03  0.24392803525E+03  0.17289987049E+03 0.  0.
         24    2    3    3    0    0  0.10607059600E+03 -0.68653371741E+01 -0.75360932341E+02  0.15246475642E+03  0.79171507723E+02 0.  0.
         -6    2    1    2    0  502 -0.75871225141E+02  0.62470952274E+02 -0.10427170722E+03  0.22567252780E+03  0.17434574327E+03 0.  0.
        -24    2    5    5    0    0 -0.39512242693E+02 -0.28070827898E+02 -0.28368035843E+02  0.10196623496E+03  0.85106867601E+02 0.  0.
          5    1    3    3  501    0 -0.30199370862E+02 -0.55605615100E+02 -0.65874539425E+02  0.91463278837E+02  0.47000000000E+01 0. -1.
        -11    1    4    4    0    0  0.83165118668E+02 -0.33611970869E+02 -0.75507670710E+02  0.11725020207E+03  0.00000000000E+00 0.  1.
         12    1    4    4    0    0  0.22905477335E+02  0.26746633695E+02  0.14673836883E+00  0.35214554350E+02  0.00000000000E+00 0. -1.
         -5    1    5    5    0  502 -0.36358982448E+02  0.90541780172E+02 -0.75903671374E+02  0.12370629284E+03  0.47000000000E+01 0.  1.
         13    1    6    6    0    0  0.30098363552E+01 -0.19331442733E+02 -0.49834874039E+02  0.53537635953E+02  0.00000000000E+00 0. -1.
        -14    1    6    6    0    0 -0.42522079048E+02 -0.87393851648E+01  0.21466838196E+02  0.48428599007E+02  0.00000000000E+00 0.  1.
</event>
<event>
12    1  0.1629553E-001  0.1842075E+03  0.7818608E-02  0.1166174E+00
         21   -1    0    0  501  502  0.00000000000E+00  0.00000000000E+00  0.45996738908E+03  0.45996738908E+03  0.00000000000E+00 0. -1.
         21   -1    0    0  502  503 -0.00000000000E+00 -0.00000000000E+00 -0.11754055740E+03  0.11754055740E+03  0.00000000000E+00 0. -1.
         -6    2    1    2    0  503 -0.20821193412E+02  0.37163600559E+01 -0.98230987723E+01  0.18446917895E+03  0.18298921085E+03 0.  0.
        -24    2    3    3    0    0 -0.44829963993E+02  0.54933994573E+02  0.33294723940E+02  0.11318872030E+03  0.81704824394E+02 0.  0.
          6    2    1    2  501    0  0.20821193412E+02 -0.37163600559E+01  0.35224993045E+03  0.39303876753E+03  0.17306682482E+03 0.  0.
         24    2    5    5    0    0  0.75071348825E+02 -0.11994028952E+02  0.28767333505E+03  0.30816341282E+03  0.80182149848E+02 0.  0.
          5    1    5    5  501    0 -0.54250155413E+02  0.82776688962E+01  0.64576595398E+02  0.84875354714E+02  0.47000000000E+01 0. -1.
        -11    1    6    6    0    0  0.44254246075E+02  0.24067687263E+00  0.26334752354E+03  0.26704009882E+03  0.00000000000E+00 0.  1.
         12    1    6    6    0    0  0.30817102750E+02 -0.12234705825E+02  0.24325811506E+02  0.41123313995E+02  0.00000000000E+00 0. -1.
         -5    1    3    3    0  503  0.24008770581E+02 -0.51217634517E+02 -0.43117822712E+02  0.71280458653E+02  0.47000000000E+01 0.  1.
         11    1    4    4    0    0  0.21134957381E+02  0.67961610333E+01 -0.53627233441E+01  0.22839286984E+02  0.00000000000E+00 0. -1.
        -12    1    4    4    0    0 -0.65964921373E+02  0.48137833540E+02  0.38657447284E+02  0.90349433314E+02  0.00000000000E+00 0.  1.
</event>
<event>
12    1  0.1629553E-001  0.2002762E+03  0.7818608E-02  0.1149539E+00
         21   -1    0    0  501  502  0.00000000000E+00  0.00000000000E+00  0.57177039171E+03  0.57177039171E+03  0.00000000000E+00 0. -1.
         21   -1    0    0  502  503 -0.00000000000E+00 -0.00000000000E+00 -0.74301284980E+02  0.74301284980E+02  0.00000000000E+00 0.  1.
         -6    2    1    2    0  503  0.88692931921E+02 -0.50123489045E+02  0.32566341798E+03  0.38231819744E+03  0.17242894758E+03 0.  0.
        -24    2    3    3    0    0  0.15508698043E+02  0.31455648425E+02  0.11252424291E+03  0.14260694258E+03  0.80281114204E+02 0.  0.
          6    2    1    2  501    0 -0.88692931921E+02  0.50123489045E+02  0.17180568876E+03  0.26375347925E+03  0.17224953643E+03 0.  0.
         24    2    5    5    0    0 -0.78238376836E+02  0.10035348501E+03  0.11822946248E+03  0.18942412947E+03  0.75572676688E+02 0.  0.
          5    1    5    5  501    0 -0.10454555084E+02 -0.50229995968E+02  0.53576226281E+02  0.74329349785E+02  0.47000000000E+01 0. -1.
        -11    1    6    6    0    0 -0.79315519867E+02  0.52047921002E+02  0.54364513158E+02  0.10934092584E+03  0.00000000000E+00 0.  1.
         12    1    6    6    0    0  0.10771430304E+01  0.48305564011E+02  0.63864949320E+02  0.80083203627E+02  0.00000000000E+00 0. -1.
         -5    1    3    3    0  503  0.73184233877E+02 -0.81579137470E+02  0.21313917507E+03  0.23971125486E+03  0.47000000000E+01 0.  1.
         11    1    4    4    0    0  0.18571679285E+02  0.51660679805E+02  0.10875661810E+03  0.12182666001E+03  0.00000000000E+00 0. -1.
        -12    1    4    4    0    0 -0.30629812421E+01 -0.20205031379E+02  0.37676248137E+01  0.20780282574E+02  0.00000000000E+00 0.  1.
</event>
<event>
12    1  0.1629553E-001  0.2812452E+03  0.7818608E-02  0.1095096E+00
         21   -1    0    0  503  502  0.00000000000E+00  0.00000000000E+00  0.76506555311E+03  0.76506555311E+03  0.00000000000E+00 0.  1.
         21   -1    0    0  501  503 -0.00000000000E+00 -0.00000000000E+00 -0.10997350079E+03  0.10997350079E+03  0.00000000000E+00 0. -1.
          6    2    1    2  501    0 -0.22221792063E+03 -0.63243784015E-02  0.21827574074E+03  0.35551296431E+03  0.17136033528E+03 0.  0.
         24    2    3    3    0    0 -0.16293847362E+03  0.21100969451E+02  0.22742182565E+03  0.29175316851E+03  0.80031415449E+02 0.  0.
         -6    2    1    2    0  502  0.22221792063E+03  0.63243784015E-02  0.43681631158E+03  0.51952608959E+03  0.17238927870E+03 0.  0.
        -24    2    5    5    0    0  0.26357108083E+02 -0.16780516313E+02  0.13141797255E+03  0.15629958808E+03  0.78629478260E+02 0.  0.
          5    1    3    3  501    0 -0.59279447014E+02 -0.21107293830E+02 -0.91460849097E+01  0.63759795798E+02  0.47000000000E+01 0. -1.
        -13    1    4    4    0    0 -0.26384508038E+02 -0.13217106039E+02  0.91148164630E+02  0.95806169279E+02  0.00000000000E+00 0.  1.
         14    1    4    4    0    0 -0.13655396558E+03  0.34318075491E+02  0.13627366102E+03  0.19594699923E+03  0.00000000000E+00 0. -1.
         -5    1    5    5    0  502  0.19586081255E+03  0.16786840692E+02  0.30539833903E+03  0.36322650150E+03  0.47000000000E+01 0.  1.
         11    1    6    6    0    0  0.10162498083E+02 -0.40071448411E+02  0.30239062010E+02  0.51219119636E+02  0.00000000000E+00 0. -1.
        -12    1    6    6    0    0  0.16194609999E+02  0.23290932097E+02  0.10117891054E+03  0.10508046845E+03  0.00000000000E+00 0.  1.
</event>
<event>
12    1  0.1629553E-001  0.1857577E+03  0.7818608E-02  0.1162572E+00
         21   -1    0    0  503  502  0.00000000000E+00  0.00000000000E+00  0.62058850618E+02  0.62058850618E+02  0.00000000000E+00 0.  1.
         21   -1    0    0  501  503 -0.00000000000E+00 -0.00000000000E+00 -0.56415064929E+03  0.56415064929E+03  0.00000000000E+00 0.  1.
          6    2    1    2  501    0 -0.67291040776E+02  0.21078199765E+01 -0.29422918513E+03  0.34743935440E+03  0.17207778627E+03 0.  0.
         24    2    3    3    0    0 -0.10995721195E+03  0.16750068952E+02 -0.20952082847E+03  0.25135401053E+03  0.83118636777E+02 0.  0.
         -6    2    1    2    0  502  0.67291040776E+02 -0.21078199765E+01 -0.20786261354E+03  0.27877014551E+03  0.17312827858E+03 0.  0.
        -24    2    5    5    0    0  0.97032923089E+02  0.16145543779E+02 -0.84724871138E+02  0.15069689125E+03  0.76519164244E+02 0.  0.
          5    1    3    3  501    0  0.42666171170E+02 -0.14642248975E+02 -0.84708356669E+02  0.96085343871E+02  0.47000000000E+01 0. -1.
        -13    1    4    4    0    0 -0.83540170844E+02  0.26073403060E+02 -0.20510361480E+03  0.22299389071E+03  0.00000000000E+00 0.  1.
         14    1    4    4    0    0 -0.26417041102E+02 -0.93233341081E+01 -0.44172136674E+01  0.28360119818E+02  0.00000000000E+00 0. -1.
         -5    1    5    5    0  502 -0.29741882313E+02 -0.18253363756E+02 -0.12313774240E+03  0.12807325425E+03  0.47000000000E+01 0.  1.
         13    1    6    6    0    0  0.71121598705E+02  0.40153154311E+02 -0.33060141203E+02  0.88110899098E+02  0.00000000000E+00 0. -1.
        -14    1    6    6    0    0  0.25911324384E+02 -0.24007610531E+02 -0.51664729935E+02  0.62585992155E+02  0.00000000000E+00 0.  1.
</event>
<event>
12    1  0.1629553E-001  0.2529089E+03  0.7818608E-02  0.1112029E+00
         21   -1    0    0  503  502  0.00000000000E+00  0.00000000000E+00  0.21208864158E+03  0.21208864158E+03  0.00000000000E+00 0. -1.
         21   -1    0    0  501  503 -0.00000000000E+00 -0.00000000000E+00 -0.33333520684E+03  0.33333520684E+03  0.00000000000E+00 0.  1.
          6    2    1    2  501    0 -0.16421694213E+03  0.70738358192E+02  0.28502671163E+02  0.25450992076E+03  0.17886245581E+03 0.  0.
         24    2    3    3    0    0 -0.69384240126E+02 -0.91045803875E+01 -0.37180796198E+02  0.11413704555E+03  0.82144917061E+02 0.  0.
         -6    2    1    2    0  502  0.16421694213E+03 -0.70738358192E+02 -0.14974923643E+03  0.29091392767E+03  0.17388202926E+03 0.  0.
        -24    2    5    5    0    0  0.20782470788E+02  0.63481367272E+01 -0.79457765382E+02  0.11349139198E+03  0.78067596626E+02 0.  0.
          5    1    3    3  501    0 -0.94832702001E+02  0.79842938579E+02  0.65683467361E+02  0.14037287521E+03  0.47000000000E+01 0. -1.
        -11    1    4    4    0    0 -0.10129640639E+02  0.33117573097E+02 -0.68161002284E+01  0.35296494013E+02  0.00000000000E+00 0.  1.
         12    1    4    4    0    0 -0.59254599487E+02 -0.42222153484E+02 -0.30364695970E+02  0.78840551536E+02  0.00000000000E+00 0. -1.
         -5    1    5    5    0  502  0.14343447134E+03 -0.77086494919E+02 -0.70291471043E+02  0.17742253568E+03  0.47000000000E+01 0.  1.
         11    1    6    6    0    0  0.15519602248E+02  0.29154709352E+02 -0.83449211055E+02  0.89747567972E+02  0.00000000000E+00 0. -1.
        -12    1    6    6    0    0  0.52628685401E+01 -0.22806572625E+02  0.39914456724E+01  0.23743824012E+02  0.00000000000E+00 0.  1.
</event>
<event>
12    1  0.1629553E-001  0.1903604E+03  0.7818608E-02  0.1158542E+00
         21   -1    0    0  501  502  0.00000000000E+00  0.00000000000E+00  0.16132954883E+04  0.16132954883E+04  0.00000000000E+00 0. -1.
         21   -1    0    0  502  503 -0.00000000000E+00 -0.00000000000E+00 -0.25125409209E+02  0.25125409209E+02  0.00000000000E+00 0. -1.
         -6    2    1    2    0  503 -0.42594378558E+02 -0.63456666765E+02  0.52030834909E+03  0.55403776286E+03  0.17434458666E+03 0.  0.
        -24    2    3    3    0    0 -0.61875365577E+02 -0.91002143021E+02  0.27446158242E+03  0.30585792402E+03  0.78166223927E+02 0.  0.
          6    2    1    2  501    0  0.42594378558E+02  0.63456666765E+02  0.10678617300E+04  0.10843831347E+04  0.17238642253E+03 0.  0.
         24    2    5    5    0    0 -0.34925807919E+02  0.51437915673E+02  0.75814921739E+03  0.76485573339E+03  0.79676758490E+02 0.  0.
          5    1    5    5  501    0  0.77520186477E+02  0.12018751092E+02  0.30971251265E+03  0.31952740130E+03  0.47000000000E+01 0. -1.
        -11    1    6    6    0    0  0.10246241229E+02  0.39918134062E+02  0.17252712636E+03  0.17738109318E+03  0.00000000000E+00 0.  1.
         12    1    6    6    0    0 -0.45172049149E+02  0.11519781612E+02  0.58562209103E+03  0.58747464021E+03  0.00000000000E+00 0. -1.
         -5    1    3    3    0  503  0.19280987020E+02  0.27545476256E+02  0.24584676667E+03  0.24817983884E+03  0.47000000000E+01 0.  1.
         11    1    4    4    0    0 -0.12278818695E+02 -0.66288304007E+02  0.85170922112E+02  0.10862317713E+03  0.00000000000E+00 0. -1.
        -12    1    4    4    0    0 -0.49596546883E+02 -0.24713839014E+02  0.18929066030E+03  0.19723474689E+03  0.00000000000E+00 0.  1.
</event>
<event>
12    1  0.1629553E-001  0.2523128E+03  0.7818608E-02  0.1112436E+00
         21   -1    0    0  503  502  0.00000000000E+00  0.00000000000E+00  0.30578402294E+03  0.30578402294E+03  0.00000000000E+00 0. -1.
         21   -1    0    0  501  503 -0.00000000000E+00 -0.00000000000E+00 -0.29836555559E+03  0.29836555559E+03  0.00000000000E+00 0. -1.
          6    2    1    2  501    0 -0.71734140231E+01  0.18356922789E+03 -0.16512244714E+03  0.30154134410E+03  0.17295271132E+03 0.  0.
         24    2    3    3    0    0  0.40114175660E+02  0.85105503320E+02 -0.27992395001E+02  0.12616186299E+03  0.79253692093E+02 0.  0.
         -6    2    1    2    0  502  0.71734140231E+01 -0.18356922789E+03  0.17254091449E+03  0.30260823443E+03  0.16748808039E+03 0.  0.
        -24    2    5    5    0    0  0.23184938636E+02 -0.56959184218E+02  0.20158011269E+02  0.10378894142E+03  0.81141289708E+02 0.  0.
          5    1    3    3  501    0 -0.47287589683E+02  0.98463724571E+02 -0.13713005214E+03  0.17537948111E+03  0.47000000000E+01 0. -1.
        -13    1    4    4    0    0  0.36607833350E+02  0.54209171571E+02 -0.54624639441E+02  0.85221000810E+02  0.00000000000E+00 0.  1.
         14    1    4    4    0    0  0.35063423095E+01  0.30896331748E+02  0.26632244440E+02  0.40940862177E+02  0.00000000000E+00 0. -1.
         -5    1    5    5    0  502 -0.16011524613E+02 -0.12661004367E+03  0.15238290322E+03  0.19881929301E+03  0.47000000000E+01 0.  1.
         13    1    6    6    0    0  0.23951877592E+02 -0.55633187792E+02  0.47146916204E+02  0.76756600573E+02  0.00000000000E+00 0. -1.
        -14    1    6    6    0    0 -0.76693895623E+00 -0.13259964260E+01 -0.26988904934E+02  0.27032340842E+02  0.00000000000E+00 0.  1.
</event>
<event>
12    1  0.1629553E-001  0.1947147E+03  0.7818608E-02  0.1154677E+00
         21   -1    0    0  503  502  0.00000000000E+00  0.00000000000E+00  0.11703892761E+04  0.11703892761E+04  0.00000000000E+00 0.  1.
         21   -1    0    0  501  503 -0.00000000000E+00 -0.00000000000E+00 -0.34491844044E+02  0.34491844044E+02  0.00000000000E+00 0.  1.
          6    2    1    2  501    0 -0.62582739587E+02 -0.64004519896E+02  0.41150968431E+03  0.45525161319E+03  0.17291799552E+03 0.  0.
         24    2    3    3    0    0  0.21706591871E+02 -0.65014220669E+02  0.17038550621E+03  0.19977427534E+03  0.78616253674E+02 0.  0.
         -6    2    1    2    0  502  0.62582739587E+02  0.64004519896E+02  0.72438774773E+03  0.74962950693E+03  0.17086137872E+03 0.  0.
        -24    2    5    5    0    0  0.97545349302E+02  0.82403111985E+02  0.52618281238E+03  0.54747071126E+03  0.80934909717E+02 0.  0.
          5    1    3    3  501    0 -0.84289331458E+02  0.10097007737E+01  0.24112417809E+03  0.25547733785E+03  0.47000000000E+01 0. -1.
        -13    1    4    4    0    0  0.42810347044E+02 -0.14383892726E+02  0.49386904925E+02  0.66923004730E+02  0.00000000000E+00 0.  1.
         14    1    4    4    0    0 -0.21103755173E+02 -0.50630327943E+02  0.12099860129E+03  0.13285127061E+03  0.00000000000E+00 0. -1.
         -5    1    5    5    0  502 -0.34962609715E+02 -0.18398592089E+02  0.19820493535E+03  0.20215879567E+03  0.47000000000E+01 0.  1.
         11    1    6    6    0    0  0.11121956705E+03  0.65061313667E+02  0.43755499039E+03  0.45613280549E+03  0.00000000000E+00 0. -1.
        -12    1    6    6    0    0 -0.13674217747E+02  0.17341798318E+02  0.88627821991E+02  0.91337905772E+02  0.00000000000E+00 0.  1.
</event>
<event>
12    1  0.1629553E-001  0.2214388E+03  0.7818608E-02  0.1132888E+00
         21   -1    0    0  501  502  0.00000000000E+00  0.00000000000E+00  0.55153137091E+02  0.55153137091E+02  0.00000000000E+00 0. -1.
         21   -1    0    0  502  503 -0.00000000000E+00 -0.00000000000E+00 -0.10413919942E+04  0.10413919942E+04  0.00000000000E+00 0. -1.
         -6    2    1    2    0  503 -0.12806084531E+01  0.13897201028E+03 -0.70351980511E+03  0.73742789326E+03  0.17188636354E+03 0.  0.
        -24    2    3    3    0    0 -0.20502640074E+02  0.76443306731E+02 -0.62618091777E+03  0.63602415190E+03  0.78487213089E+02 0.  0.
          6    2    1    2  501    0  0.12806084531E+01 -0.13897201028E+03 -0.28271905195E+03  0.35911723799E+03  0.17239567478E+03 0.  0.
         24    2    5    5    0    0  0.18263430660E+02 -0.92303937927E+02 -0.28314938663E+03  0.30923136408E+03  0.81221250476E+02 0.  0.
          5    1    5    5  501    0 -0.16982822207E+02 -0.46668072353E+02  0.43033467631E+00  0.49885873904E+02  0.47000000000E+01 0. -1.
        -11    1    6    6    0    0 -0.25666433651E+01  0.94967085529E+01 -0.84274141806E+02  0.84846367681E+02  0.00000000000E+00 0.  1.
         12    1    6    6    0    0  0.20830074025E+02 -0.10180064648E+03 -0.19887524482E+03  0.22438499640E+03  0.00000000000E+00 0. -1.
         -5    1    3    3    0  503  0.19222031621E+02  0.62528703549E+02 -0.77338887335E+02  0.10140374136E+03  0.47000000000E+01 0.  1.
         13    1    4    4    0    0 -0.42303185439E+02  0.78466909341E+02 -0.47912072326E+03  0.48734308533E+03  0.00000000000E+00 0. -1.
        -14    1    4    4    0    0  0.21800545364E+02 -0.20236026106E+01 -0.14706019452E+03  0.14868106657E+03  0.00000000000E+00 0.  1.
</event>
<event>
12    1  0.1629553E-001  0.1851158E+03  0.7818608E-02  0.1163014E+00
         21   -1    0    0  501  502  0.00000000000E+00  0.00000000000E+00  0.71592177288E+03  0.71592177288E+03  0.00000000000E+00 0. -1.
         21   -1    0    0  502  503 -0.00000000000E+00 -0.00000000000E+00 -0.82153652840E+02  0.82153652840E+02  0.00000000000E+00 0. -1.
         -6    2    1    2    0  503  0.29296289200E+02 -0.61121347472E+02  0.58944342353E+02  0.19427380397E+03  0.17226080151E+03 0.  0.
        -24    2    3    3    0    0 -0.23088147385E+02 -0.74651965641E+02 -0.69421649177E+01  0.10889038249E+03  0.75517833793E+02 0.  0.
          6    2    1    2  501    0 -0.29296289200E+02  0.61121347472E+02  0.57482377768E+03  0.60380162174E+03  0.17193001876E+03 0.  0.
         24    2    5    5    0    0 -0.12944198758E+02  0.10350653033E+03  0.32920564659E+03  0.35397317879E+03  0.77714216524E+02 0.  0.
          5    1    5    5  501    0 -0.16352090442E+02 -0.42385182861E+02  0.24561813109E+03  0.24982844295E+03  0.47000000000E+01 0. -1.
        -13    1    6    6    0    0  0.30277809951E+02  0.33616105541E+02  0.84663829156E+02  0.95993501314E+02  0.00000000000E+00 0.  1.
         14    1    6    6    0    0 -0.43222008709E+02  0.69890424792E+02  0.24454181744E+03  0.25797967748E+03  0.00000000000E+00 0. -1.
         -5    1    3    3    0  503  0.52384436585E+02  0.13530618170E+02  0.65886507271E+02  0.85383421486E+02  0.47000000000E+01 0.  1.
         11    1    4    4    0    0  0.93441181566E+01 -0.31362409025E+02 -0.35033282559E+02  0.47940005536E+02  0.00000000000E+00 0. -1.
        -12    1    4    4    0    0 -0.32432265542E+02 -0.43289556617E+02  0.28091117641E+02  0.60950376952E+02  0.00000000000E+00 0.  1.
</event>
<event>
12    1  0.1629553E-001  0.2604188E+03  0.7818608E-02  0.1106994E+00
         21   -1    0    0  503  502  0.00000000000E+00  0.00000000000E+00  0.44726721768E+03  0.44726721768E+03  0.00000000000E+00 0. -1.
         21   -1    0    0  501  503 -0.00000000000E+00 -0.00000000000E+00 -0.18837432923E+03  0.18837432923E+03  0.00000000000E+00 0. -1.
          6    2    1    2  501    0  0.89876583169E+02 -0.17344010267E+03 -0.11542065705E+02  0.26067443006E+03  0.17221692656E+03 0.  0.
         24    2    3    3    0    0  0.34247585236E+02 -0.10091190092E+03  0.58980609938E+02  0.14513022536E+03  0.78917432321E+02 0.  0.
         -6    2    1    2    0  502 -0.89876583169E+02  0.17344010267E+03  0.27043495415E+03  0.37496711685E+03  0.17118996721E+03 0.  0.
        -24    2    5    5    0    0 -0.27558827544E+02  0.15020645597E+03  0.12934557953E+03  0.21891710359E+03  0.88729650695E+02 0.  0.
          5    1    3    3  501    0  0.55628997932E+02 -0.72528201751E+02 -0.70522675643E+02  0.11554420470E+03  0.47000000000E+01 0. -1.
        -11    1    4    4    0    0 -0.20988197987E+02 -0.26350305000E+02  0.36467300701E+02  0.49645816025E+02  0.00000000000E+00 0.  1.
         12    1    4    4    0    0  0.55235783223E+02 -0.74561595918E+02  0.22513309237E+02  0.95484409339E+02  0.00000000000E+00 0. -1.
         -5    1    5    5    0  502 -0.62317755624E+02  0.23233646704E+02  0.14108937463E+03  0.15605001326E+03  0.47000000000E+01 0.  1.
         11    1    6    6    0    0 -0.54692232613E+02  0.94996833626E+02  0.10778572533E+03  0.15373158846E+03  0.00000000000E+00 0. -1.
        -12    1    6    6    0    0  0.27133405069E+02  0.55209622339E+02  0.21559854202E+02  0.65185515129E+02  0.00000000000E+00 0.  1.
</event>
<event>
12    1  0.1629553E-001  0.3372156E+03  0.7818608E-02  0.1068619E+00
         21   -1    0    0  503  502  0.00000000000E+00  0.00000000000E+00  0.27791971662E+03  0.27791971662E+03  0.00000000000E+00 0.  1.
         21   -1    0    0  501  503 -0.00000000000E+00 -0.00000000000E+00 -0.54251211073E+03  0.54251211073E+03  0.00000000000E+00 0. -1.
          6    2    1    2  501    0  0.25815878088E+03  0.13165248558E+03 -0.34009825854E+03  0.47486638169E+03  0.16078843829E+03 0.  0.
         24    2    3    3    0    0  0.10388508651E+03  0.45586346355E+02 -0.86103521395E+02  0.16544244985E+03  0.84185281625E+02 0.  0.
         -6    2    1    2    0  502 -0.25815878088E+03 -0.13165248558E+03  0.75505864433E+02  0.34556544566E+03  0.17244131921E+03 0.  0.
        -24    2    5    5    0    0 -0.17216370468E+03 -0.34315563019E+02  0.93859399365E+02  0.21430779116E+03  0.79374702676E+02 0.  0.
          5    1    3    3  501    0  0.15427369436E+03  0.86066139222E+02 -0.25399473715E+03  0.30942393183E+03  0.47000000000E+01 0. -1.
        -11    1    4    4    0    0  0.86891402423E+02  0.60075407042E+02 -0.37747303485E+02  0.11217855975E+03  0.00000000000E+00 0.  1.
         12    1    4    4    0    0  0.16993684091E+02 -0.14489060687E+02 -0.48356217910E+02  0.53263890105E+02  0.00000000000E+00 0. -1.
         -5    1    5    5    0  502 -0.85995076194E+02 -0.97336922558E+02 -0.18353534932E+02  0.13125765451E+03  0.47000000000E+01 0.  1.
         13    1    6    6    0    0 -0.31120557442E+02  0.46637439221E+01  0.54242338517E+02  0.62709416284E+02  0.00000000000E+00 0. -1.
        -14    1    6    6    0    0 -0.14104314724E+03 -0.38979306941E+02  0.39617060848E+02  0.15159837487E+03  0.00000000000E+00 0.  1.
</event>
<event>
12    1  0.1629553E-001  0.2137628E+03  0.7818608E-02  0.1139688E+00
         21   -1    0    0  501  502  0.00000000000E+00  0.00000000000E+00  0.14409856797E+03  0.14409856797E+03  0.00000000000E+00 0. -1.
         21   -1    0    0  502  503 -0.00000000000E+00 -0.00000000000E+00 -0.33138554421E+03  0.33138554421E+03  0.00000000000E+00 0. -1.
         -6    2    1    2    0  503 -0.95739866765E+02  0.69908566587E+02 -0.15418995761E+03  0.25917426529E+03  0.17129923230E+03 0.  0.
        -24    2    3    3    0    0 -0.50352361344E+02  0.67138966393E+02 -0.20871657296E+02  0.11823613867E+03  0.80629754489E+02 0.  0.
          6    2    1    2  501    0  0.95739866765E+02 -0.69908566587E+02 -0.33097018622E+02  0.21630984689E+03  0.17787975559E+03 0.  0.
         24    2    5    5    0    0 -0.13173865728E+02 -0.48423597213E+02  0.26500236447E+02  0.90223654760E+02  0.70140215577E+02 0.  0.
          5    1    5    5  501    0  0.10891373249E+03 -0.21484969374E+02 -0.59597255069E+02  0.12608619213E+03  0.47000000000E+01 0. -1.
        -11    1    6    6    0    0 -0.18072362934E+02 -0.63445369490E+02  0.88920085748E+01  0.66565704595E+02  0.00000000000E+00 0.  1.
         12    1    6    6    0    0  0.48984972051E+01  0.15021772277E+02  0.17608227872E+02  0.23657950165E+02  0.00000000000E+00 0. -1.
         -5    1    3    3    0  503 -0.45387505421E+02  0.27696001942E+01 -0.13331830032E+03  0.14093812661E+03  0.47000000000E+01 0.  1.
         13    1    4    4    0    0 -0.46269500579E+02  0.12403334612E+01 -0.23997535840E+02  0.52137192457E+02  0.00000000000E+00 0. -1.
        -14    1    4    4    0    0 -0.40828607655E+01  0.65898632932E+02  0.31258785439E+01  0.66098946217E+02  0.00000000000E+00 0.  1.
</event>
<event>
12    1  0.1629553E-001  0.2214435E+03  0.7818608E-02  0.1133690E+00
         21   -1    0    0  503  502  0.00000000000E+00  0.00000000000E+00  0.18171375702E+03  0.18171375702E+03  0.00000000000E+00 0.  1.
         21   -1    0    0  501  503 -0.00000000000E+00 -0.00000000000E+00 -0.45196489771E+03  0.45196489771E+03  0.00000000000E+00 0.  1.
          6    2    1    2  501    0  0.10731184005E+03 -0.84986630977E+02 -0.33851037342E+03  0.40195354659E+03  0.16804410804E+03 0.  0.
         24    2    3    3    0    0  0.96419789814E+02 -0.10232860719E+03 -0.17678701573E+03  0.23887100516E+03  0.77703207519E+02 0.  0.
         -6    2    1    2    0  502 -0.10731184005E+03  0.84986630977E+02  0.68259232726E+02  0.23172510814E+03  0.17406505804E+03 0.  0.
        -24    2    5    5    0    0 -0.55770925976E+02  0.13596706228E+02 -0.27327115668E+02  0.10167962695E+03  0.79351803265E+02 0.  0.
          5    1    3    3  501    0  0.10892050231E+02  0.17341976215E+02 -0.16172335768E+03  0.16308254143E+03  0.47000000000E+01 0. -1.
        -13    1    4    4    0    0  0.71357695530E+02 -0.77582542147E+02 -0.17413185549E+03  0.20355066851E+03  0.00000000000E+00 0.  1.
         14    1    4    4    0    0  0.25062094284E+02 -0.24746065044E+02 -0.26551602454E+01  0.35320336649E+02  0.00000000000E+00 0. -1.
         -5    1    5    5    0  502 -0.51540914069E+02  0.71389924749E+02  0.95586348394E+02  0.13004548119E+03  0.47000000000E+01 0.  1.
         11    1    6    6    0    0 -0.73675769691E+02  0.17635216620E+02 -0.99564675362E+01  0.76408449471E+02  0.00000000000E+00 0. -1.
        -12    1    6    6    0    0  0.17904843715E+02 -0.40385103924E+01 -0.17370648131E+02  0.25271177479E+02  0.00000000000E+00 0.  1.
</event>
<event>
12    1  0.1629553E-001  0.2417981E+03  0.7818608E-02  0.1118730E+00
         21   -1    0    0  503  502  0.00000000000E+00  0.00000000000E+00  0.81999775370E+03  0.81999775370E+03  0.00000000000E+00 0.  1.
         21   -1    0    0  501  503 -0.00000000000E+00 -0.00000000000E+00 -0.77928759146E+02  0.77928759146E+02  0.00000000000E+00 0.  1.
          6    2    1    2  501    0 -0.12046306103E+03  0.11882100330E+03  0.50368341520E+03  0.55837677958E+03  0.17163293779E+03 0.  0.
         24    2    3    3    0    0 -0.86426435999E+02  0.38586014133E+02  0.41887665787E+03  0.43667870475E+03  0.79197394817E+02 0.  0.
         -6    2    1    2    0  502  0.12046306103E+03 -0.11882100330E+03  0.23838557935E+03  0.33954973326E+03  0.17273261711E+03 0.  0.
        -24    2    5    5    0    0  0.34743667764E+02 -0.44975122172E+02  0.31880477588E+02  0.10403439279E+03  0.81098125550E+02 0.  0.
          5    1    3    3  501    0 -0.34036625029E+02  0.80234989169E+02  0.84806757328E+02  0.12169807484E+03  0.47000000000E+01 0. -1.
        -13    1    4    4    0    0 -0.19339038145E+02  0.45414368162E+02  0.25018934900E+03  0.25501210478E+03  0.00000000000E+00 0.  1.
         14    1    4    4    0    0 -0.67087397854E+02 -0.68283540291E+01  0.16868730887E+03  0.18166659997E+03  0.00000000000E+00 0. -1.
         -5    1    5    5    0  502  0.85719393265E+02 -0.73845881130E+02  0.20650510177E+03  0.23551534047E+03  0.47000000000E+01 0.  1.
         13    1    6    6    0    0 -0.22979494035E+02 -0.22658544584E+02 -0.39674016634E+01  0.32514720739E+02  0.00000000000E+00 0. -1.
        -14    1    6    6    0    0  0.57723161799E+02 -0.22316577588E+02  0.35847879252E+02  0.71519672050E+02  0.00000000000E+00 0.  1.
</event>
<event>
12    1  0.1629553E-001  0.2218585E+03  0.7818608E-02  0.1133478E+00
         21   -1    0    0  501  502  0.00000000000E+00  0.00000000000E+00  0.73219964305E+03  0.73219964305E+03  0.00000000000E+00 0. -1.
         21   -1    0    0  502  503 -0.00000000000E+00 -0.00000000000E+00 -0.93904555348E+02  0.93904555348E+02  0.00000000000E+00 0.  1.
         -6    2    1    2    0  503  0.11707501566E+03  0.78294130831E+02  0.95253573845E+02  0.24144239484E+03  0.17141953354E+03 0.  0.
        -24    2    3    3    0    0 -0.41683979023E+01  0.41273663031E+02  0.16823837039E+02  0.92298860003E+02  0.80716462162E+02 0.  0.
          6    2    1    2  501    0 -0.11707501566E+03 -0.78294130831E+02  0.54304151385E+03  0.58466180356E+03  0.16461715754E+03 0.  0.
         24    2    5    5    0    0 -0.19314479325E+02 -0.81795035245E+02  0.34496480415E+03  0.36369607834E+03  0.78807641719E+02 0.  0.
          5    1    5    5  501    0 -0.97760536330E+02  0.35009044137E+01  0.19807670971E+03  0.22096572522E+03  0.47000000000E+01 0. -1.
        -13    1    6    6    0    0  0.28482158437E+02 -0.12774863973E+02  0.97993121915E+02  0.10284494368E+03  0.00000000000E+00 0.  1.
         14    1    6    6    0    0 -0.47796637762E+02 -0.69020171273E+02  0.24697168223E+03  0.26085113465E+03  0.00000000000E+00 0. -1.
         -5    1    3    3    0  503  0.12124341356E+03  0.37020467801E+02  0.78429736806E+02  0.14914353483E+03  0.47000000000E+01 0.  1.
         11    1    4    4    0    0  0.20747644127E+02 -0.13438697149E+02 -0.97447186810E+01  0.26571090682E+02  0.00000000000E+00 0. -1.
        -12    1    4    4    0    0 -0.24916042029E+02  0.54712360179E+02  0.26568555720E+02  0.65727769321E+02  0.00000000000E+00 0.  1.
</event>
<event>
12    1  0.1629553E-001  0.1939328E+03  0.7818608E-02  0.1155974E+00
         21   -1    0    0  501  502  0.00000000000E+00  0.00000000000E+00  0.15500893616E+04  0.15500893616E+04  0.00000000000E+00 0.  1.
         21   -1    0    0  502  503 -0.00000000000E+00 -0.00000000000E+00 -0.31260905671E+02  0.31260905671E+02  0.00000000000E+00 0. -1.
         -6    2    1    2    0  503 -0.57020348383E+02 -0.61201425394E+02  0.37733320928E+03  0.42425263784E+03  0.17496575462E+03 0.  0.
        -24    2    3    3    0    0  0.23074545109E+02 -0.22331307434E+02  0.27868572013E+03  0.29128837516E+03  0.78435100429E+02 0.  0.
          6    2    1    2  501    0  0.57020348383E+02  0.61201425394E+02  0.11414952466E+04  0.11570976294E+04  0.16990171071E+03 0.  0.
         24    2    5    5    0    0  0.35354243567E+02  0.65237849250E+02  0.11217589836E+04  0.11271422810E+04  0.81244107451E+02 0.  0.
          5    1    5    5  501    0  0.21666104815E+02 -0.40364238559E+01  0.19736263042E+02  0.29955348342E+02  0.47000000000E+01 0. -1.
        -11    1    6    6    0    0  0.53290823548E+02  0.48543573648E+02  0.53043512538E+03  0.53531094950E+03  0.00000000000E+00 0.  1.
         12    1    6    6    0    0 -0.17936579981E+02  0.16694275602E+02  0.59132385819E+03  0.59183133155E+03  0.00000000000E+00 0. -1.
         -5    1    3    3    0  503 -0.80094893491E+02 -0.38870117960E+02  0.98647489155E+02  0.13296426268E+03  0.47000000000E+01 0.  1.
         13    1    4    4    0    0 -0.24939817889E+02 -0.30287494890E+01  0.41410118033E+02  0.48435170230E+02  0.00000000000E+00 0. -1.
        -14    1    4    4    0    0  0.48014362997E+02 -0.19302557945E+02  0.23727560209E+03  0.24285320493E+03  0.00000000000E+00 0.  1.
</event>
<event>
12    1  0.1629553E-001  0.1859488E+03  0.7818608E-02  0.1162192E+00
         21   -1    0    0  503  502  0.00000000000E+00  0.00000000000E+00  0.10912035045E+03  0.10912035045E+03  0.00000000000E+00 0.  1.
         21   -1    0    0  501  503 -0.00000000000E+00 -0.00000000000E+00 -0.36352431680E+03  0.36352431680E+03  0.00000000000E+00 0.  1.
          6    2    1    2  501    0 -0.61401564586E+01 -0.69876612495E+02 -0.42341299951E+02  0.19060297747E+03  0.17209377340E+03 0.  0.
         24    2    3    3    0    0 -0.37989459780E+02 -0.94948889305E+02  0.26383184940E+01  0.12987198651E+03  0.80008009110E+02 0.  0.
         -6    2    1    2    0  502  0.61401564586E+01  0.69876612495E+02 -0.21206266640E+03  0.28204168979E+03  0.17221062047E+03 0.  0.
        -24    2    5    5    0    0 -0.52239269334E+02  0.13095864905E+02 -0.15471250469E+03  0.18232538369E+03  0.80038387620E+02 0.  0.
          5    1    3    3  501    0  0.31849303322E+02  0.25072276810E+02 -0.44979618445E+02  0.60730990952E+02  0.47000000000E+01 0. -1.
        -13    1    4    4    0    0 -0.57673615574E+02 -0.84798293601E+02 -0.12107795897E+02  0.10326468541E+03  0.00000000000E+00 0.  1.
         14    1    4    4    0    0  0.19684155794E+02 -0.10150595704E+02  0.14746114391E+02  0.26607301105E+02  0.00000000000E+00 0. -1.
         -5    1    5    5    0  502  0.58379425793E+02  0.56780747589E+02 -0.57350161710E+02  0.99716306093E+02  0.47000000000E+01 0.  1.
         13    1    6    6    0    0 -0.26301731703E+02 -0.33775035137E+02 -0.72724544885E+02  0.84388349420E+02  0.00000000000E+00 0. -1.
        -14    1    6    6    0    0 -0.25937537631E+02  0.46870900042E+02 -0.81987959808E+02  0.97937034275E+02  0.00000000000E+00 0.  1.
</event>
<event>
12    1  0.1629553E-001  0.1733295E+03  0.7818608E-02  0.1174719E+00
         21   -1    0    0  503  502  0.00000000000E+00  0.00000000000E+00  0.46203724560E+02  0.46203724560E+02  0.00000000000E+00 0. -1.
         21   -1    0    0  501  503 -0.00000000000E+00 -0.00000000000E+00 -0.65079228208E+03  0.65079228208E+03  0.00000000000E+00 0. -1.
          6    2    1    2  501    0  0.28055096616E+01  0.10939772704E+02 -0.33168043242E+03  0.37369746673E+03  0.17178573246E+03 0.  0.
         24    2    3    3    0    0 -0.38927370789E+02 -0.45101719014E+02 -0.20321253256E+03  0.22738146145E+03  0.82809965394E+02 0.  0.
         -6    2    1    2    0  502 -0.28055096616E+01 -0.10939772704E+02 -0.27290812510E+03  0.32329853991E+03  0.17296112758E+03 0.  0.
        -24    2    5    5    0    0 -0.11661866269E+01 -0.30951124835E+02 -0.54853491450E+02  0.10427101915E+03  0.83091562697E+02 0.  0.
          5    1    3    3  501    0  0.41732880450E+02  0.56041491718E+02 -0.12846789986E+03  0.14631600528E+03  0.47000000000E+01 0. -1.
        -11    1    4    4    0    0  0.48885965799E+01 -0.36789760552E+02 -0.16351958636E+03  0.16767838257E+03  0.00000000000E+00 0.  1.
         12    1    4    4    0    0 -0.43815967369E+02 -0.83119584620E+01 -0.39692946197E+02  0.59703078879E+02  0.00000000000E+00 0. -1.
         -5    1    5    5    0  502 -0.16393230347E+01  0.20011352132E+02 -0.21805463365E+03  0.21902752076E+03  0.47000000000E+01 0.  1.
         11    1    6    6    0    0 -0.39202099351E+01 -0.21449221150E+02 -0.76993386540E+02  0.80021364052E+02  0.00000000000E+00 0. -1.
        -12    1    6    6    0    0  0.27540233082E+01 -0.95019036858E+01  0.22139895089E+02  0.24249655103E+02  0.00000000000E+00 0.  1.
</event>
<event>
12    1  0.1629553E-001  0.1837424E+03  0.7818608E-02  0.1165117E+00
         21   -1    0    0  503  502  0.00000000000E+00  0.00000000000E+00  0.27736067080E+02  0.27736067080E+02  0.00000000000E+00 0. -1.
         21   -1    0    0  501  503 -0.00000000000E+00 -0.00000000000E+00 -0.35587820544E+04  0.35587820544E+04  0.00000000000E+00 0. -1.
          6    2    1    2  501    0  0.31742337191E+02 -0.44019790327E+02 -0.32337678473E+04  0.32389837559E+04  0.17554475931E+03 0.  0.
         24    2    3    3    0    0  0.53695723609E+02 -0.75265852321E+02 -0.29727863219E+04  0.29751813409E+04  0.75480566669E+02 0.  0.
         -6    2    1    2    0  502 -0.31742337191E+02  0.44019790327E+02 -0.29727814000E+03  0.34753436561E+03  0.17164068529E+03 0.  0.
        -24    2    5    5    0    0 -0.28450800067E+02 -0.23820059043E+02 -0.24892734407E+03  0.26403006125E+03  0.79813578938E+02 0.  0.
          5    1    3    3  501    0 -0.21953386418E+02  0.31246061995E+02 -0.26098152541E+03  0.26380241502E+03  0.47000000000E+01 0. -1.
        -13    1    4    4    0    0  0.21199016455E+02  0.34062062056E+01 -0.13447231105E+04  0.13448945105E+04  0.00000000000E+00 0.  1.
         14    1    4    4    0    0  0.32496707154E+02 -0.78672058527E+02 -0.16280632114E+04  0.16302868303E+04  0.00000000000E+00 0. -1.
         -5    1    5    5    0  502 -0.32915371238E+01  0.67839849370E+02 -0.48350795933E+02  0.83504304359E+02  0.47000000000E+01 0.  1.
         13    1    6    6    0    0  0.36078854327E+01  0.16526923554E+02 -0.16270063952E+03  0.16357767005E+03  0.00000000000E+00 0. -1.
        -14    1    6    6    0    0 -0.32058685500E+02 -0.40346982597E+02 -0.86226704551E+02  0.10045239120E+03  0.00000000000E+00 0.  1.
</event>
<event>
12    1  0.1629553E-001  0.5633569E+03  0.7818608E-02  0.9984853E-01
         21   -1    0    0  501  502  0.00000000000E+00  0.00000000000E+00  0.20172535295E+03  0.20172535295E+03  0.00000000000E+00 0. -1.
         21   -1    0    0  502  503 -0.00000000000E+00 -0.00000000000E+00 -0.21604897592E+04  0.21604897592E+04  0.00000000000E+00 0.  1.
         -6    2    1    2    0  503  0.45850561350E+02  0.53414891883E+03 -0.15956783697E+04  0.16919894101E+04  0.17094257242E+03 0.  0.
        -24    2    3    3    0    0 -0.14777241791E+02  0.15236472034E+03 -0.58976639402E+03  0.61434573177E+03  0.78504163913E+02 0.  0.
          6    2    1    2  501    0 -0.45850561350E+02 -0.53414891883E+03 -0.36308603655E+03  0.67022570200E+03  0.17307131544E+03 0.  0.
         24    2    5    5    0    0  0.24639746410E+02 -0.34142684544E+03 -0.17985196714E+03  0.39507575152E+03  0.80985872011E+02 0.  0.
          5    1    5    5  501    0 -0.70490307760E+02 -0.19272207339E+03 -0.18323406940E+03  0.27514995048E+03  0.47000000000E+01 0. -1.
        -13    1    6    6    0    0 -0.19016342201E+02 -0.20815654723E+02 -0.14266758385E+02  0.31598309244E+02  0.00000000000E+00 0.  1.
         14    1    6    6    0    0  0.43656088611E+02 -0.32061119072E+03 -0.16558520876E+03  0.36347744228E+03  0.00000000000E+00 0. -1.
         -5    1    3    3    0  503  0.60627803141E+02  0.38178419849E+03 -0.10059119757E+04  0.10776436784E+04  0.47000000000E+01 0.  1.
         11    1    4    4    0    0 -0.29958985283E+02  0.64042023758E+02 -0.15393284511E+03  0.16939374962E+03  0.00000000000E+00 0. -1.
        -12    1    4    4    0    0  0.15181743492E+02  0.88322696586E+02 -0.43583354891E+03  0.44495198215E+03  0.00000000000E+00 0.  1.
</event>
<event>
12    1  0.1629553E-001  0.1971954E+03  0.7818608E-02  0.1152913E+00
         21   -1    0    0  503  502  0.00000000000E+00  0.00000000000E+00  0.38402156491E+03  0.38402156491E+03  0.00000000000E+00 0. -1.
         21   -1    0    0  501  503 -0.00000000000E+00 -0.00000000000E+00 -0.10780312386E+03  0.10780312386E+03  0.00000000000E+00 0. -1.
          6    2    1    2  501    0  0.13410387397E+02 -0.86979446953E+02  0.70670987949E+02  0.20947653433E+03  0.17646746786E+03 0.  0.
         24    2    3    3    0    0  0.33209597977E+02  0.25074107886E+01 -0.72702493503E+01  0.89073739842E+02  0.82292831384E+02 0.  0.
         -6    2    1    2    0  502 -0.13410387397E+02  0.86979446953E+02  0.20554745310E+03  0.28234815444E+03  0.17241073678E+03 0.  0.
        -24    2    5    5    0    0  0.63528882980E-01  0.11094213858E+03  0.91120911111E+02  0.16457175391E+03  0.80452965111E+02 0.  0.
          5    1    3    3  501    0 -0.19799210580E+02 -0.89486857741E+02  0.77941237300E+02  0.12040279449E+03  0.47000000000E+01 0. -1.
        -11    1    4    4    0    0  0.42404597649E+00  0.50694661224E+01  0.35084366247E+02  0.35451263119E+02  0.00000000000E+00 0.  1.
         12    1    4    4    0    0  0.32785552001E+02 -0.25620553338E+01 -0.42354615597E+02  0.53622476723E+02  0.00000000000E+00 0. -1.
         -5    1    5    5    0  502 -0.13473916280E+02 -0.23962691623E+02  0.11442654199E+03  0.11777640053E+03  0.47000000000E+01 0.  1.
         11    1    6    6    0    0 -0.76617412410E+01  0.87778971651E+02  0.21365291076E+02  0.90666012407E+02  0.00000000000E+00 0. -1.
        -12    1    6    6    0    0  0.77252701240E+01  0.23163166924E+02  0.69755620035E+02  0.73905741502E+02  0.00000000000E+00 0.  1.
</event>
<event>
12    1  0.1629553E-001  0.2124107E+03  0.7818608E-02  0.1141401E+00
         21   -1    0    0  501  502  0.00000000000E+00  0.00000000000E+00  0.93043267581E+03  0.93043267581E+03  0.00000000000E+00 0.  1.
         21   -1    0    0  502  503 -0.00000000000E+00 -0.00000000000E+00 -0.46627461658E+02  0.46627461658E+02  0.00000000000E+00 0.  1.
         -6    2    1    2    0  503  0.10120935985E+03 -0.42080013422E+02  0.47325677157E+03  0.51873914207E+03  0.18194577112E+03 0.  0.
        -24    2    3    3    0    0 -0.52829024870E+01  0.21919211737E+02  0.12484679647E+03  0.14880927911E+03  0.77776076397E+02 0.  0.
          6    2    1    2  501    0 -0.10120935985E+03  0.42080013422E+02  0.41054844258E+03  0.45832099539E+03  0.17173831566E+03 0.  0.
         24    2    5    5    0    0 -0.11800533050E+03 -0.15931017745E+02  0.29455246787E+03  0.32746022773E+03  0.79309451261E+02 0.  0.
          5    1    5    5  501    0  0.16795970651E+02  0.58011031168E+02  0.11599597470E+03  0.13086076767E+03  0.47000000000E+01 0. -1.
        -13    1    6    6    0    0 -0.99705141713E+02  0.12513412691E+02  0.26161223555E+03  0.28024750234E+03  0.00000000000E+00 0.  1.
         14    1    6    6    0    0 -0.18300188784E+02 -0.28444430436E+02  0.32940232327E+02  0.47212725384E+02  0.00000000000E+00 0. -1.
         -5    1    3    3    0  503  0.10649226233E+03 -0.63999225159E+02  0.34840997510E+03  0.36992986296E+03  0.47000000000E+01 0.  1.
         11    1    4    4    0    0  0.75873711160E+01 -0.10755640948E+02 -0.51637618999E+01  0.14139181363E+02  0.00000000000E+00 0. -1.
        -12    1    4    4    0    0 -0.12870273603E+02  0.32674852685E+02  0.13001055837E+03  0.13467009775E+03  0.00000000000E+00 0.  1.
</event>
<event>
12    1  0.1629553E-001  0.2044559E+03  0.7818608E-02  0.1147976E+00
         21   -1    0    0  503  502  0.00000000000E+00  0.00000000000E+00  0.30129690472E+03  0.30129690472E+03  0.00000000000E+00 0. -1.
         21   -1    0    0  501  503 -0.00000000000E+00 -0.00000000000E+00 -0.20202102700E+03  0.20202102700E+03  0.00000000000E+00 0. -1.
          6    2    1    2  501    0 -0.86089002149E+02  0.59169083366E+02 -0.97173575450E+02  0.22637341719E+03  0.17575529444E+03 0.  0.
         24    2    3    3    0    0 -0.10676567802E+03  0.21127347798E+02 -0.11713048479E+03  0.17846656172E+03  0.79281071879E+02 0.  0.
         -6    2    1    2    0  502  0.86089002149E+02 -0.59169083366E+02  0.19644945317E+03  0.27694451453E+03  0.16490475967E+03 0.  0.
        -24    2    5    5    0    0  0.77235454691E+01  0.11877938812E+02  0.12528956339E+03  0.14937240130E+03  0.80086834072E+02 0.  0.
          5    1    3    3  501    0  0.20676675873E+02  0.38041735567E+02  0.19956909336E+02  0.47906855463E+02  0.47000000000E+01 0. -1.
        -13    1    4    4    0    0 -0.12501308397E+02 -0.15820873304E+01  0.11720243309E+02  0.17209003899E+02  0.00000000000E+00 0.  1.
         14    1    4    4    0    0 -0.94264369624E+02  0.22709435129E+02 -0.12885072810E+03  0.16125755782E+03  0.00000000000E+00 0. -1.
         -5    1    5    5    0  502  0.78365456680E+02 -0.71047022178E+02  0.71159889786E+02  0.12757211324E+03  0.47000000000E+01 0.  1.
         11    1    6    6    0    0  0.30401366034E+02 -0.22906390999E+02  0.75396655605E+02  0.84460650493E+02  0.00000000000E+00 0. -1.
        -12    1    6    6    0    0 -0.22677820565E+02  0.34784329811E+02  0.49892907780E+02  0.64911750806E+02  0.00000000000E+00 0.  1.
</event>
<event>
12    1  0.1629553E-001  0.4044770E+03  0.7818608E-02  0.1042292E+00
         21   -1    0    0  503  502  0.00000000000E+00  0.00000000000E+00  0.17140663601E+03  0.17140663601E+03  0.00000000000E+00 0. -1.
         21   -1    0    0  501  503 -0.00000000000E+00 -0.00000000000E+00 -0.10352910263E+04  0.10352910263E+04  0.00000000000E+00 0. -1.
          6    2    1    2  501    0  0.15024079225E+03 -0.33380579511E+03 -0.26218528597E+03  0.48201947494E+03  0.17205535604E+03 0.  0.
         24    2    3    3    0    0  0.47708858312E+02 -0.22739112928E+03 -0.21543303598E+03  0.32695580590E+03  0.80658819598E+02 0.  0.
         -6    2    1    2    0  502 -0.15024079225E+03  0.33380579511E+03 -0.60169910435E+03  0.72467818740E+03  0.17064014361E+03 0.  0.
        -24    2    5    5    0    0 -0.64572271119E+02  0.26603780921E+03 -0.49946312670E+03  0.57499224767E+03  0.78784362810E+02 0.  0.
          5    1    3    3  501    0  0.10253193394E+03 -0.10641466582E+03 -0.46752249986E+02  0.15506366905E+03  0.47000000000E+01 0. -1.
        -13    1    4    4    0    0  0.47725215533E+01 -0.15688198103E+03 -0.17486369979E+03  0.23497243761E+03  0.00000000000E+00 0.  1.
         14    1    4    4    0    0  0.42936336759E+02 -0.70509148250E+02 -0.40569336192E+02  0.91983368281E+02  0.00000000000E+00 0. -1.
         -5    1    5    5    0  502 -0.85668521132E+02  0.67767985892E+02 -0.10223597766E+03  0.14968593973E+03  0.47000000000E+01 0.  1.
         11    1    6    6    0    0 -0.80689345403E+02  0.23316042034E+03 -0.45302973990E+03  0.51585898975E+03  0.00000000000E+00 0. -1.
        -12    1    6    6    0    0  0.16117074284E+02  0.32877388875E+02 -0.46433386797E+02  0.59133257919E+02  0.00000000000E+00 0.  1.
</event>
<event>
12    1  0.1629553E-001  0.1915873E+03  0.7818608E-02  0.1157519E+00
         21   -1    0    0  503  502  0.00000000000E+00  0.00000000000E+00  0.29631022101E+03  0.29631022101E+03  0.00000000000E+00 0. -1.
         21   -1    0    0  501  503 -0.00000000000E+00 -0.00000000000E+00 -0.13112298328E+03  0.13112298328E+03  0.00000000000E+00 0. -1.
          6    2    1    2  501    0  0.70848709777E+02 -0.38217169648E+02  0.13785538558E+03  0.23602920998E+03  0.17385508016E+03 0.  0.
         24    2    3    3    0    0 -0.23932788390E+02 -0.12682832354E+02  0.98664439729E+02  0.13022961162E+03  0.80569519541E+02 0.  0.
         -6    2    1    2    0  502 -0.70848709777E+02  0.38217169648E+02  0.27331852159E+02  0.19140399431E+03  0.17148867940E+03 0.  0.
        -24    2    5    5    0    0 -0.10601600910E+03  0.61403038950E+02  0.17776669392E+02  0.14795615208E+03  0.81026449915E+02 0.  0.
          5    1    3    3  501    0  0.94781498167E+02 -0.25534337294E+02  0.39190945849E+02  0.10579959836E+03  0.47000000000E+01 0. -1.
        -11    1    4    4    0    0  0.24516708223E+01 -0.19499161062E+02  0.10098568238E+03  0.10288020226E+03  0.00000000000E+00 0.  1.
         12    1    4    4    0    0 -0.26384459212E+02  0.68163287081E+01 -0.23212426466E+01  0.27349409361E+02  0.00000000000E+00 0. -1.
         -5    1    5    5    0  502  0.35167299323E+02 -0.23185869302E+02  0.95551827663E+01  0.43447842233E+02  0.47000000000E+01 0.  1.
         13    1    6    6    0    0 -0.85111881257E+02  0.51932109817E+02  0.47469734597E+02  0.11042804021E+03  0.00000000000E+00 0. -1.
        -14    1    6    6    0    0 -0.20904127843E+02  0.94709291329E+01 -0.29693065205E+02  0.37528111873E+02  0.00000000000E+00 0.  1.
</event>
<event>
12    1  0.1629553E-001  0.1887437E+03  0.7818608E-02  0.1160151E+00
         21   -1    0    0  503  502  0.00000000000E+00  0.00000000000E+00  0.25023089976E+03  0.25023089976E+03  0.00000000000E+00 0. -1.
         21   -1    0    0  501  503 -0.00000000000E+00 -0.00000000000E+00 -0.26614657927E+03  0.26614657927E+03  0.00000000000E+00 0. -1.
          6    2    1    2  501    0 -0.45530199710E+02  0.54545707372E+02 -0.18534422424E+03  0.26453104399E+03  0.17485982528E+03 0.  0.
         24    2    3    3    0    0  0.29968569710E+02 -0.14413950220E+02 -0.98650764527E+02  0.13039177116E+03  0.78512187030E+02 0.  0.
         -6    2    1    2    0  502  0.45530199710E+02 -0.54545707372E+02  0.16942854473E+03  0.25184643505E+03  0.17225667418E+03 0.  0.
        -24    2    5    5    0    0  0.71438712567E+02 -0.11894524001E+02  0.16900956682E+03  0.20172019417E+03  0.82956818324E+02 0.  0.
          5    1    3    3  501    0 -0.75498769420E+02  0.68959657592E+02 -0.86693459711E+02  0.13413927283E+03  0.47000000000E+01 0. -1.
        -11    1    4    4    0    0 -0.17536343101E+02 -0.25787764678E+02 -0.17737112459E+02  0.35876695706E+02  0.00000000000E+00 0.  1.
         12    1    4    4    0    0  0.47504912810E+02  0.11373814458E+02 -0.80913652068E+02  0.94515075450E+02  0.00000000000E+00 0. -1.
         -5    1    5    5    0  502 -0.25908512857E+02 -0.42651183371E+02  0.41897790779E+00  0.50126240872E+02  0.47000000000E+01 0.  1.
         13    1    6    6    0    0  0.38715252100E+02 -0.46280729751E+02  0.73744165153E+02  0.95283674287E+02  0.00000000000E+00 0. -1.
        -14    1    6    6    0    0  0.32723460467E+02  0.34386205751E+02  0.95265401667E+02  0.10643651989E+03  0.00000000000E+00 0.  1.
</event>
<event>
12    1  0.1629553E-001  0.2632602E+03  0.7818608E-02  0.1106409E+00
         21   -1    0    0  501  502  0.00000000000E+00  0.00000000000E+00  0.38483799075E+03  0.38483799075E+03  0.00000000000E+00 0.  1.
         21   -1    0    0  502  503 -0.00000000000E+00 -0.00000000000E+00 -0.21759643593E+03  0.21759643593E+03  0.00000000000E+00 0. -1.
         -6    2    1    2    0  503  0.87702147600E+02 -0.17235664465E+03  0.21850123839E+03  0.34212383001E+03  0.17862654964E+03 0.  0.
        -24    2    3    3    0    0 -0.21267161571E+02 -0.51990891020E+02  0.91593457594E+02  0.13599304674E+03  0.83363075614E+02 0.  0.
          6    2    1    2  501    0 -0.87702147600E+02  0.17235664465E+03 -0.51259683566E+02  0.26031059667E+03  0.16654000099E+03 0.  0.
         24    2    5    5    0    0 -0.46352320378E+02  0.64186973414E+02  0.33897101787E+02  0.11649038224E+03  0.78437812851E+02 0.  0.
          5    1    5    5  501    0 -0.41349827222E+02  0.10816967124E+03 -0.85156785354E+02  0.14382021443E+03  0.47000000000E+01 0. -1.
        -13    1    6    6    0    0 -0.13641658828E+02  0.69757244146E+02  0.29855172301E+01  0.71141276905E+02  0.00000000000E+00 0.  1.
         14    1    6    6    0    0 -0.32710661550E+02 -0.55702707328E+01  0.30911584557E+02  0.45349105338E+02  0.00000000000E+00 0. -1.
         -5    1    3    3    0  503  0.10896930917E+03 -0.12036575363E+03  0.12690778079E+03  0.20613078328E+03  0.47000000000E+01 0.  1.
         13    1    4    4    0    0 -0.40858636815E+02 -0.48984954211E+02  0.28511195397E+02  0.69870181082E+02  0.00000000000E+00 0. -1.
        -14    1    4    4    0    0  0.19591475244E+02 -0.30059368094E+01  0.63082262197E+02  0.66122865654E+02  0.00000000000E+00 0.  1.
</event>
<event>
12    1  0.1629553E-001  0.1873142E+03  0.7818608E-02  0.1161438E+00
         21   -1    0    0  501  502  0.00000000000E+00  0.00000000000E+00  0.60061308186E+02  0.60061308186E+02  0.00000000000E+00 0.  1.
         21   -1    0    0  502  503 -0.00000000000E+00 -0.00000000000E+00 -0.83141731232E+03  0.83141731232E+03  0.00000000000E+00 0.  1.
         -6    2    1    2    0  503 -0.40559913684E+02  0.61132429461E+02 -0.63058062738E+03  0.65716194492E+03  0.16984585275E+03 0.  0.
        -24    2    3    3    0    0 -0.25489455051E+02  0.87872866651E+02 -0.60403044363E+03  0.61630644392E+03  0.81298849819E+02 0.  0.
          6    2    1    2  501    0  0.40559913684E+02 -0.61132429461E+02 -0.14077537675E+03  0.23431667558E+03  0.17234940449E+03 0.  0.
         24    2    5    5    0    0  0.45797355126E+01 -0.36258169210E+02 -0.15548887912E+01  0.88310729428E+02  0.80378718833E+02 0.  0.
          5    1    5    5  501    0  0.35980178171E+02 -0.24874260251E+02 -0.13922048796E+03  0.14600594615E+03  0.47000000000E+01 0. -1.
        -11    1    6    6    0    0  0.63374153327E+01 -0.57496955123E+02  0.16745447002E+02  0.60220201567E+02  0.00000000000E+00 0.  1.
         12    1    6    6    0    0 -0.17576798201E+01  0.21238785912E+02 -0.18300335793E+02  0.28090527861E+02  0.00000000000E+00 0. -1.
         -5    1    3    3    0  503 -0.15070458633E+02 -0.26740437190E+02 -0.26550183753E+02  0.40855500998E+02  0.47000000000E+01 0.  1.
         11    1    4    4    0    0 -0.21568523819E+02 -0.17634097047E+01 -0.42909846292E+02  0.48057941512E+02  0.00000000000E+00 0. -1.
        -12    1    4    4    0    0 -0.39209312318E+01  0.89636276356E+02 -0.56112059733E+03  0.56824850241E+03  0.00000000000E+00 0.  1.
</event>
<event>
12    1  0.1629553E-001  0.2022620E+03  0.7818608E-02  0.1148164E+00
         21   -1    0    0  503  502  0.00000000000E+00  0.00000000000E+00  0.23533579313E+04  0.23533579313E+04  0.00000000000E+00 0.  1.
         21   -1    0    0  501  503 -0.00000000000E+00 -0.00000000000E+00 -0.22586269058E+02  0.22586269058E+02  0.00000000000E+00 0.  1.
          6    2    1    2  501    0  0.26635078156E+01  0.10468770476E+03  0.58469130061E+03  0.61818809207E+03  0.17124832951E+03 0.  0.
         24    2    3    3    0    0  0.64304373606E+02  0.54825284375E+02  0.42416518309E+03  0.43908872940E+03  0.75775625805E+02 0.  0.
         -6    2    1    2    0  502 -0.26635078156E+01 -0.10468770476E+03  0.17460803616E+04  0.17577561083E+04  0.17304131635E+03 0.  0.
        -24    2    5    5    0    0  0.47514501033E+01 -0.10061349649E+03  0.70307016786E+03  0.71470101144E+03  0.79650629969E+02 0.  0.
          5    1    3    3  501    0 -0.61640865790E+02  0.49862420384E+02  0.16052611752E+03  0.17909936267E+03  0.47000000000E+01 0. -1.
        -13    1    4    4    0    0  0.36273744034E+01  0.22802950406E+02  0.24845616463E+02  0.33918093250E+02  0.00000000000E+00 0.  1.
         14    1    4    4    0    0  0.60676999203E+02  0.32022333969E+02  0.39931956663E+03  0.40517063615E+03  0.00000000000E+00 0. -1.
         -5    1    5    5    0  502 -0.74149579188E+01 -0.40742082655E+01  0.10430101938E+04  0.10430550969E+04  0.47000000000E+01 0.  1.
         11    1    6    6    0    0 -0.12442358693E+02  0.10310311180E+02  0.90670592311E+02  0.92099246015E+02  0.00000000000E+00 0. -1.
        -12    1    6    6    0    0  0.17193808796E+02 -0.11092380767E+03  0.61239957555E+03  0.62260176542E+03  0.00000000000E+00 0.  1.
</event>
<event>
12    1  0.1629553E-001  0.2426130E+03  0.7818608E-02  0.1118170E+00
         21   -1    0    0  503  502  0.00000000000E+00  0.00000000000E+00  0.15326341618E+03  0.15326341618E+03  0.00000000000E+00 0. -1.
         21   -1    0    0  501  503 -0.00000000000E+00 -0.00000000000E+00 -0.54776307143E+03  0.54776307143E+03  0.00000000000E+00 0.  1.
          6    2    1    2  501    0  0.62422716186E+02  0.15883550899E+03 -0.38964852540E+03  0.45900658536E+03  0.17244059166E+03 0.  0.
         24    2    3    3    0    0  0.96526408570E+02  0.64713373441E+02 -0.25100391634E+03  0.28793216924E+03  0.79979996298E+02 0.  0.
         -6    2    1    2    0  502 -0.62422716186E+02 -0.15883550899E+03 -0.48511298534E+01  0.24201990224E+03  0.17153654190E+03 0.  0.
        -24    2    5    5    0    0 -0.10084950893E+02 -0.38281896321E+02 -0.39142839556E+02  0.10611395477E+03  0.90337144564E+02 0.  0.
          5    1    3    3  501    0 -0.34103692384E+02  0.94122135547E+02 -0.13864460905E+03  0.17107441613E+03  0.47000000000E+01 0. -1.
        -13    1    4    4    0    0 -0.47553315494E+01  0.69810124080E+01 -0.83075279115E+02  0.83503591016E+02  0.00000000000E+00 0.  1.
         14    1    4    4    0    0  0.10128174012E+03  0.57732361033E+02 -0.16792863723E+03  0.20442857822E+03  0.00000000000E+00 0. -1.
         -5    1    5    5    0  502 -0.52337765293E+02 -0.12055361267E+03  0.34291709702E+02  0.13590594747E+03  0.47000000000E+01 0.  1.
         13    1    6    6    0    0  0.12295444151E+02 -0.63355785347E+02 -0.20695743695E+02  0.67774975403E+02  0.00000000000E+00 0. -1.
        -14    1    6    6    0    0 -0.22380395044E+02  0.25073889026E+02 -0.18447095861E+02  0.38338979367E+02  0.00000000000E+00 0.  1.
</event>
<event>
12    1  0.1629553E-001  0.2207790E+03  0.7818608E-02  0.1133780E+00
         21   -1    0    0  501  502  0.00000000000E+00  0.00000000000E+00  0.31449844645E+02  0.31449844645E+02  0.00000000000E+00 0.  1.
         21   -1    0    0  502  503 -0.00000000000E+00 -0.00000000000E+00 -0.15320329890E+04  0.15320329890E+04  0.00000000000E+00 0. -1.
         -6    2    1    2    0  503  0.10824141261E+03 -0.79287506483E+02 -0.74624915753E+03  0.77750373776E+03  0.17210910792E+03 0.  0.
        -24    2    3    3    0    0  0.13245778041E+03 -0.10126256858E+03 -0.64855616875E+03  0.67437592444E+03  0.79740905796E+02 0.  0.
          6    2    1    2  501    0 -0.10824141261E+03  0.79287506483E+02 -0.75433398687E+03  0.78597909592E+03  0.17533015542E+03 0.  0.
         24    2    5    5    0    0 -0.14494066482E+03  0.79733494849E+02 -0.63959073949E+03  0.66541734064E+03  0.79615932243E+02 0.  0.
          5    1    5    5  501    0  0.36699252207E+02 -0.44598836618E+00 -0.11474324737E+03  0.12056175528E+03  0.47000000000E+01 0. -1.
        -11    1    6    6    0    0 -0.30445230832E+02 -0.76614714390E+01 -0.54866672665E+02  0.63213621905E+02  0.00000000000E+00 0.  1.
         12    1    6    6    0    0 -0.11449543399E+03  0.87394966288E+02 -0.58472406683E+03  0.60220371874E+03  0.00000000000E+00 0. -1.
         -5    1    3    3    0  503 -0.24216367799E+02  0.21975062093E+02 -0.97692988785E+02  0.10312781332E+03  0.47000000000E+01 0.  1.
         13    1    4    4    0    0  0.28391088038E+01 -0.36384146128E+02 -0.18939645499E+03  0.19288049096E+03  0.00000000000E+00 0. -1.
        -14    1    4    4    0    0  0.12961867161E+03 -0.64878422448E+02 -0.45915971375E+03  0.48149543348E+03  0.00000000000E+00 0.  1.
</event>
<event>
12    1  0.1629553E-001  0.1829313E+03  0.7818608E-02  0.1166514E+00
         21   -1    0    0  503  502  0.00000000000E+00  0.00000000000E+00  0.35325663127E+03  0.35325663127E+03  0.00000000000E+00 0. -1.
         21   -1    0    0  501  503 -0.00000000000E+00 -0.00000000000E+00 -0.16631628838E+03  0.16631628838E+03  0.00000000000E+00 0. -1.
          6    2    1    2  501    0 -0.93624853897E+01 -0.57731580521E+02 -0.79855275717E+02  0.19960139559E+03  0.17332991819E+03 0.  0.
         24    2    3    3    0    0 -0.43474573462E+01  0.10549719023E+02 -0.96335551912E+02  0.12902394964E+03  0.85067291367E+02 0.  0.
         -6    2    1    2    0  502  0.93624853897E+01  0.57731580521E+02  0.26679561861E+03  0.31997152406E+03  0.16667718074E+03 0.  0.
        -24    2    5    5    0    0 -0.62742378939E+01 -0.29485305270E+02  0.10402811368E+03  0.13458910056E+03  0.79897611144E+02 0.  0.
          5    1    3    3  501    0 -0.50150280435E+01 -0.68281299544E+02  0.16480276195E+02  0.70577445952E+02  0.47000000000E+01 0. -1.
        -11    1    4    4    0    0  0.75647479968E+01  0.46077327462E+02 -0.40676859509E+02  0.61926992643E+02  0.00000000000E+00 0.  1.
         12    1    4    4    0    0 -0.11912205343E+02 -0.35527608440E+02 -0.55658692403E+02  0.67096956992E+02  0.00000000000E+00 0. -1.
         -5    1    5    5    0  502  0.15636723284E+02  0.87216885791E+02  0.16276750493E+03  0.18538242350E+03  0.47000000000E+01 0.  1.
         11    1    6    6    0    0 -0.25465319069E+02  0.16943259437E+02  0.61821328210E+02  0.68974148325E+02  0.00000000000E+00 0. -1.
        -12    1    6    6    0    0  0.19191081175E+02 -0.46428564707E+02  0.42206785469E+02  0.65614952237E+02  0.00000000000E+00 0.  1.
</event>
<event>
12    1  0.1629553E-001  0.1847982E+03  0.7818608E-02  0.1164035E+00
         21   -1    0    0  503  502  0.00000000000E+00  0.00000000000E+00  0.63736756801E+03  0.63736756801E+03  0.00000000000E+00 0.  1.
         21   -1    0    0  501  503 -0.00000000000E+00 -0.00000000000E+00 -0.93208895287E+02  0.93208895287E+02  0.00000000000E+00 0.  1.
          6    2    1    2  501    0 -0.50639776256E+02 -0.24429316235E+02  0.29578047416E+02  0.18381910341E+03  0.17249180693E+03 0.  0.
         24    2    3    3    0    0  0.36694510236E+02 -0.27218501908E+01 -0.69404659595E+01  0.86586477720E+02  0.78071457693E+02 0.  0.
         -6    2    1    2    0  502  0.50639776256E+02  0.24429316235E+02  0.51458062531E+03  0.54675735989E+03  0.17603753071E+03 0.  0.
        -24    2    5    5    0    0  0.54131587597E+02 -0.94800603784E+01  0.14434336540E+03  0.17492439040E+03  0.82118420003E+02 0.  0.
          5    1    3    3  501    0 -0.87334286492E+02 -0.21707466045E+02  0.36518513376E+02  0.97232625689E+02  0.47000000000E+01 0. -1.
        -11    1    4    4    0    0  0.21737100793E+02 -0.22853732170E+02 -0.36223880626E+02  0.48030866665E+02  0.00000000000E+00 0.  1.
         12    1    4    4    0    0  0.14957409443E+02  0.20131881979E+02  0.29283414666E+02  0.38555611055E+02  0.00000000000E+00 0. -1.
         -5    1    5    5    0  502 -0.34918113407E+01  0.33909376614E+02  0.37023725991E+03  0.37183296949E+03  0.47000000000E+01 0.  1.
         13    1    6    6    0    0  0.85666402006E+01  0.34364963944E+02  0.56658738957E+02  0.66817293954E+02  0.00000000000E+00 0. -1.
        -14    1    6    6    0    0  0.45564947396E+02 -0.43845024322E+02  0.87684626438E+02  0.10810709645E+03  0.00000000000E+00 0.  1.
</event>
<event>
12    1  0.1629553E-001  0.2300280E+03  0.7818608E-02  0.1126777E+00
         21   -1    0    0  503  502  0.00000000000E+00  0.00000000000E+00  0.52465118019E+02  0.52465118019E+02  0.00000000000E+00 0.  1.
         21   -1    0    0  501  503 -0.00000000000E+00 -0.00000000000E+00 -0.10424043422E+04  0.10424043422E+04  0.00000000000E+00 0.  1.
          6    2    1    2  501    0  0.15123664751E+03 -0.21224585741E+02 -0.60010797526E+03  0.64268380027E+03  0.17201708804E+03 0.  0.
         24    2    3    3    0    0  0.82822380924E+02 -0.80296712372E+02 -0.34491404801E+03  0.37191441773E+03  0.77765833141E+02 0.  0.
         -6    2    1    2    0  502 -0.15123664751E+03  0.21224585741E+02 -0.38983124897E+03  0.45218565999E+03  0.17082289612E+03 0.  0.
        -24    2    5    5    0    0 -0.15677988369E+03  0.61989416935E+02 -0.31650078859E+03  0.36797197138E+03  0.82510622377E+02 0.  0.
          5    1    3    3  501    0  0.68414266584E+02  0.59072126631E+02 -0.25519392725E+03  0.27076938254E+03  0.47000000000E+01 0. -1.
        -13    1    4    4    0    0  0.29637502092E+02 -0.43449258809E+02 -0.60191277678E+02  0.79932531111E+02  0.00000000000E+00 0.  1.
         14    1    4    4    0    0  0.53184878832E+02 -0.36847453563E+02 -0.28472277033E+03  0.29198188662E+03  0.00000000000E+00 0. -1.
         -5    1    5    5    0  502  0.55432361776E+01 -0.40764831194E+02 -0.73330460378E+02  0.84213688607E+02  0.47000000000E+01 0.  1.
         13    1    6    6    0    0 -0.43756808424E+02 -0.64803278391E+01 -0.33004417162E+02  0.55190075961E+02  0.00000000000E+00 0. -1.
        -14    1    6    6    0    0 -0.11302307526E+03  0.68469744774E+02 -0.28349637143E+03  0.31278189542E+03  0.00000000000E+00 0.  1.
</event>
<event>
12    1  0.1629553E-001  0.3098812E+03  0.7818608E-02  0.1080454E+00
         21   -1    0    0  501  502  0.00000000000E+00  0.00000000000E+00  0.62665938227E+03  0.62665938227E+03  0.00000000000E+00 0.  1.
         21   -1    0    0  502  503 -0.00000000000E+00 -0.00000000000E+00 -0.40214311330E+03  0.40214311330E+03  0.00000000000E+00 0.  1.
         -6    2    1    2    0  503  0.25774809623E+03 -0.89495338885E+00 -0.29264171271E+03  0.42591050178E+03  0.17124748599E+03 0.  0.
        -24    2    3    3    0    0  0.12419663336E+03  0.52394767480E+02 -0.10386508461E+03  0.18856161743E+03  0.81225072302E+02 0.  0.
          6    2    1    2  501    0 -0.25774809623E+03  0.89495338885E+00  0.51715798169E+03  0.60289199379E+03  0.17202178960E+03 0.  0.
         24    2    5    5    0    0 -0.23742684733E+03  0.25981187843E+02  0.34075386292E+03  0.42349641013E+03  0.78673275927E+02 0.  0.
          5    1    5    5  501    0 -0.20321248898E+02 -0.25086234454E+02  0.17640411877E+03  0.17939558365E+03  0.47000000000E+01 0. -1.
        -11    1    6    6    0    0 -0.16720602932E+03 -0.32710655651E+01  0.18027882507E+03  0.24590447511E+03  0.00000000000E+00 0.  1.
         12    1    6    6    0    0 -0.70220818010E+02  0.29252253408E+02  0.16047503785E+03  0.17759193502E+03  0.00000000000E+00 0. -1.
         -5    1    3    3    0  503  0.13355146287E+03 -0.53289720868E+02 -0.18877662811E+03  0.23734888436E+03  0.47000000000E+01 0.  1.
         13    1    4    4    0    0 -0.11118501487E+02  0.29841978606E+01 -0.10091636223E+01  0.11556163870E+02  0.00000000000E+00 0. -1.
        -14    1    4    4    0    0  0.13531513484E+03  0.49410569619E+02 -0.10285592098E+03  0.17700545356E+03  0.00000000000E+00 0.  1.
</event>
<event>
12    1  0.1629553E-001  0.1760273E+03  0.7818608E-02  0.1172019E+00
         21   -1    0    0  503  502  0.00000000000E+00  0.00000000000E+00  0.49349824923E+03  0.49349824923E+03  0.00000000000E+00 0.  1.
         21   -1    0    0  501  503 -0.00000000000E+00 -0.00000000000E+00 -0.74650358036E+02  0.74650358036E+02  0.00000000000E+00 0. -1.
          6    2    1    2  501    0  0.33842060985E+02 -0.63081596658E+01  0.94688279096E+02  0.19987870629E+03  0.17262835532E+03 0.  0.
         24    2    3    3    0    0 -0.47194614718E+02 -0.18025286250E+02  0.52003477301E+02  0.10742160181E+03  0.79264092003E+02 0.  0.
         -6    2    1    2    0  502 -0.33842060985E+02  0.63081596658E+01  0.32415961210E+03  0.36826990098E+03  0.17134231200E+03 0.  0.
        -24    2    5    5    0    0 -0.83842996242E+02 -0.15835003284E+02  0.19206966078E+03  0.22523054125E+03  0.80979298418E+02 0.  0.
          5    1    3    3  501    0  0.81036675703E+02  0.11717126584E+02  0.42684801795E+02  0.92457104479E+02  0.47000000000E+01 0. -1.
        -13    1    4    4    0    0 -0.22820664738E+02 -0.18879487589E+02 -0.17058924588E+02  0.34179302199E+02  0.00000000000E+00 0.  1.
         14    1    4    4    0    0 -0.24373949980E+02  0.85420133896E+00  0.69062401889E+02  0.73242299610E+02  0.00000000000E+00 0. -1.
         -5    1    5    5    0  502  0.50000935257E+02  0.22143162949E+02  0.13208995133E+03  0.14303935973E+03  0.47000000000E+01 0.  1.
         13    1    6    6    0    0 -0.21037115983E+02  0.23391505345E+02  0.18430015526E+02  0.36460776781E+02  0.00000000000E+00 0. -1.
        -14    1    6    6    0    0 -0.62805880259E+02 -0.39226508629E+02  0.17363964525E+03  0.18876976447E+03  0.00000000000E+00 0.  1.
</event>
<event>
12    1  0.1629553E-001  0.1778022E+03  0.7818608E-02  0.1170025E+00
         21   -1    0    0  503  502  0.00000000000E+00  0.00000000000E+00  0.41706264941E+03  0.41706264941E+03  0.00000000000E+00 0.  1.
         21   -1    0    0  501  503 -0.00000000000E+00 -0.00000000000E+00 -0.11581086373E+03  0.11581086373E+03  0.00000000000E+00 0.  1.
          6    2    1    2  501    0  0.37134692316E+02  0.19051922276E+02 -0.61545667078E+01  0.17790867539E+03  0.17283418924E+03 0.  0.
         24    2    3    3    0    0 -0.37167357054E+02  0.19065210655E+02  0.23932047975E+02  0.97608680991E+02  0.84910641246E+02 0.  0.
         -6    2    1    2    0  502 -0.37134692316E+02 -0.19051922276E+02  0.30740635239E+03  0.35496483775E+03  0.17250915752E+03 0.  0.
        -24    2    5    5    0    0 -0.91196431724E+02 -0.90439270371E+01  0.23974447610E+03  0.26765475162E+03  0.75914889630E+02 0.  0.
          5    1    3    3  501    0  0.74302049370E+02 -0.13288378930E-01 -0.30086614683E+02  0.80299994397E+02  0.47000000000E+01 0. -1.
        -13    1    4    4    0    0  0.26831447735E+02 -0.19573367550E+01  0.10732342391E+02  0.28964477000E+02  0.00000000000E+00 0.  1.
         14    1    4    4    0    0 -0.63998804788E+02  0.21022547410E+02  0.13199705584E+02  0.68644203990E+02  0.00000000000E+00 0. -1.
         -5    1    5    5    0  502  0.54061739408E+02 -0.10007995239E+02  0.67661876291E+02  0.87310086128E+02  0.47000000000E+01 0.  1.
         11    1    6    6    0    0 -0.20814546839E+02  0.31036490756E+02  0.89048002066E+02  0.96571506100E+02  0.00000000000E+00 0. -1.
        -12    1    6    6    0    0 -0.70381884885E+02 -0.40080417793E+02  0.15069647403E+03  0.17108324552E+03  0.00000000000E+00 0.  1.
</event>
<event>
12    1  0.1629553E-001  0.1883664E+03  0.7818608E-02  0.1160017E+00
         21   -1    0    0  503  502  0.00000000000E+00  0.00000000000E+00  0.45910006376E+03  0.45910006376E+03  0.00000000000E+00 0. -1.
         21   -1    0    0  501  503 -0.00000000000E+00 -0.00000000000E+00 -0.77602223896E+02  0.77602223896E+02  0.00000000000E+00 0. -1.
          6    2    1    2  501    0  0.23095013916E+02 -0.72692221019E+02  0.17014860600E+03  0.25359384168E+03  0.17187713562E+03 0.  0.
         24    2    3    3    0    0  0.59887670954E+02 -0.43812508815E+02  0.17540152377E+03  0.20629246185E+03  0.79276832757E+02 0.  0.
         -6    2    1    2    0  502 -0.23095013916E+02  0.72692221019E+02  0.21134923386E+03  0.28310844598E+03  0.17223343133E+03 0.  0.
        -24    2    5    5    0    0  0.36528116310E+02  0.84794239635E+02  0.11047587808E+03  0.16521484811E+03  0.81034930995E+02 0.  0.
          5    1    3    3  501    0 -0.36792657038E+02 -0.28879712204E+02 -0.52529177688E+01  0.47301379832E+02  0.47000000000E+01 0. -1.
        -11    1    4    4    0    0  0.14872231284E+02 -0.58784658107E+02  0.10821125266E+03  0.12404230929E+03  0.00000000000E+00 0.  1.
         12    1    4    4    0    0  0.45015439670E+02  0.14972149292E+02  0.67190271108E+02  0.82250152551E+02  0.00000000000E+00 0. -1.
         -5    1    5    5    0  502 -0.59623130226E+02 -0.12102018615E+02  0.10087335578E+03  0.11789359787E+03  0.47000000000E+01 0.  1.
         13    1    6    6    0    0  0.25409261944E+02 -0.59712519599E+01  0.67985401512E+01  0.26972330094E+02  0.00000000000E+00 0. -1.
        -14    1    6    6    0    0  0.11118854365E+02  0.90765491595E+02  0.10367733793E+03  0.13824251801E+03  0.00000000000E+00 0.  1.
</event>
<event>
12    1  0.1629553E-001  0.1804819E+03  0.7818608E-02  0.1167535E+00
         21   -1    0    0  501  502  0.00000000000E+00  0.00000000000E+00  0.11008965941E+04  0.11008965941E+04  0.00000000000E+00 0. -1.
         21   -1    0    0  502  503 -0.00000000000E+00 -0.00000000000E+00 -0.50115748519E+02  0.50115748519E+02  0.00000000000E+00 0. -1.
         -6    2    1    2    0  503 -0.52801383385E+02  0.24293257741E+01  0.15517046930E+03  0.23739772818E+03  0.17171464438E+03 0.  0.
        -24    2    3    3    0    0 -0.10215113999E+02 -0.92636139536E+01  0.26426265163E+01  0.78535687394E+02  0.77270354095E+02 0.  0.
          6    2    1    2  501    0  0.52801383385E+02 -0.24293257741E+01  0.89561037626E+03  0.91361461441E+03  0.17256833399E+03 0.  0.
         24    2    5    5    0    0  0.32974510312E+02  0.54678316745E+02  0.35610125523E+03  0.37070894176E+03  0.80870135829E+02 0.  0.
          5    1    5    5  501    0  0.19826873072E+02 -0.57107642519E+02  0.53950912103E+03  0.54290567266E+03  0.47000000000E+01 0. -1.
        -13    1    6    6    0    0 -0.16294684057E+02  0.49969887910E+02  0.15773232451E+03  0.16625881217E+03  0.00000000000E+00 0.  1.
         14    1    6    6    0    0  0.49269194369E+02  0.47084288349E+01  0.19836893072E+03  0.20445012959E+03  0.00000000000E+00 0. -1.
         -5    1    3    3    0  503 -0.42586269386E+02  0.11692939728E+02  0.15252784279E+03  0.15886204079E+03  0.47000000000E+01 0.  1.
         13    1    4    4    0    0 -0.41880604613E+02  0.62701222486E+01 -0.43789485939E+01  0.42573168388E+02  0.00000000000E+00 0. -1.
        -14    1    4    4    0    0  0.31665490614E+02 -0.15533736202E+02  0.70215751102E+01  0.35962519006E+02  0.00000000000E+00 0.  1.
</event>
<event>
12    1  0.1629553E-001  0.1763142E+03  0.7818608E-02  0.1171498E+00
         21   -1    0    0  501  502  0.00000000000E+00  0.00000000000E+00  0.43784870589E+03  0.43784870589E+03  0.00000000000E+00 0.  1.
         21   -1    0    0  502  503 -0.00000000000E+00 -0.00000000000E+00 -0.11676977288E+03  0.11676977288E+03  0.00000000000E+00 0.  1.
         -6    2    1    2    0  503 -0.20286039887E+02 -0.30712100554E+02 -0.13233546229E+02  0.17681008986E+03  0.17242947717E+03 0.  0.
        -24    2    3    3    0    0 -0.29403460636E+02  0.25939533100E+02  0.40813377963E+02  0.97843673129E+02  0.79813718595E+02 0.  0.
          6    2    1    2  501    0  0.20286039887E+02  0.30712100554E+02  0.33431247924E+03  0.37780838891E+03  0.17210342362E+03 0.  0.
         24    2    5    5    0    0  0.58645626550E+02 -0.31927432379E+02  0.18440262010E+03  0.21080472176E+03  0.77302224833E+02 0.  0.
          5    1    5    5  501    0 -0.38359586662E+02  0.62639532933E+02  0.14990985914E+03  0.16700366715E+03  0.47000000000E+01 0. -1.
        -13    1    6    6    0    0  0.27972706854E+01 -0.18070437604E+02  0.13109844527E+03  0.13236754810E+03  0.00000000000E+00 0.  1.
         14    1    6    6    0    0  0.55848355864E+02 -0.13856994775E+02  0.53304174833E+02  0.78437173658E+02  0.00000000000E+00 0. -1.
         -5    1    3    3    0  503  0.91174207490E+01 -0.56651633654E+02 -0.54046924191E+02  0.78966416731E+02  0.47000000000E+01 0.  1.
         11    1    4    4    0    0 -0.27188789003E+02 -0.11457805791E+02 -0.13026808411E+02  0.32252275864E+02  0.00000000000E+00 0. -1.
        -12    1    4    4    0    0 -0.22146716331E+01  0.37397338891E+02  0.53840186373E+02  0.65591397266E+02  0.00000000000E+00 0.  1.
</event>
<event>
12    1  0.1629553E-001  0.2504577E+03  0.7818608E-02  0.1113097E+00
         21   -1    0    0  501  502  0.00000000000E+00  0.00000000000E+00  0.12790381658E+03  0.12790381658E+03  0.00000000000E+00 0.  1.
         21   -1    0    0  502  503 -0.00000000000E+00 -0.00000000000E+00 -0.88413519426E+03  0.88413519426E+03  0.00000000000E+00 0. -1.
         -6    2    1    2    0  503 -0.83862887177E+02 -0.15987669560E+03 -0.40233747315E+02  0.25366874710E+03  0.17359590199E+03 0.  0.
        -24    2    3    3    0    0 -0.33813153586E+02 -0.55095143366E+02 -0.84198879959E+02  0.12941428074E+03  0.74025674566E+02 0.  0.
          6    2    1    2  501    0  0.83862887177E+02  0.15987669560E+03 -0.71599763037E+03  0.75837026374E+03  0.17285632357E+03 0.  0.
         24    2    5    5    0    0  0.89407239165E+02  0.39543842180E+02 -0.42595347367E+03  0.44427085546E+03  0.79892811988E+02 0.  0.
          5    1    5    5  501    0 -0.55443519884E+01  0.12033285342E+03 -0.29004415670E+03  0.31409940829E+03  0.47000000000E+01 0. -1.
        -11    1    6    6    0    0 -0.93470309951E+01  0.18896476397E+02 -0.12737101673E+03  0.12910391052E+03  0.00000000000E+00 0.  1.
         12    1    6    6    0    0  0.98754270160E+02  0.20647365783E+02 -0.29858245694E+03  0.31516694494E+03  0.00000000000E+00 0. -1.
         -5    1    3    3    0  503 -0.50049733591E+02 -0.10478155224E+03  0.43965132644E+02  0.12425446636E+03  0.47000000000E+01 0.  1.
         11    1    4    4    0    0  0.79312166990E+01  0.11048088759E+02  0.11485234674E+01  0.13648573908E+02  0.00000000000E+00 0. -1.
        -12    1    4    4    0    0 -0.41744370285E+02 -0.66143232126E+02 -0.85347403426E+02  0.11576570683E+03  0.00000000000E+00 0.  1.
</event>
<event>
12    1  0.1629553E-001  0.1943163E+03  0.7818608E-02  0.1154881E+00
         21   -1    0    0  503  502  0.00000000000E+00  0.00000000000E+00  0.62476679468E+02  0.62476679468E+02  0.00000000000E+00 0.  1.
         21   -1    0    0  501  503 -0.00000000000E+00 -0.00000000000E+00 -0.68448808363E+03  0.68448808363E+03  0.00000000000E+00 0. -1.
          6    2    1    2  501    0  0.43434255868E+02 -0.79337052825E+02 -0.44081952086E+03  0.48127825501E+03  0.17066342971E+03 0.  0.
         24    2    3    3    0    0 -0.22123181276E+02  0.43647825341E+01 -0.15922175381E+03  0.18024143465E+03  0.81405905197E+02 0.  0.
         -6    2    1    2    0  502 -0.43434255868E+02  0.79337052825E+02 -0.18119188330E+03  0.26568650809E+03  0.17198232313E+03 0.  0.
        -24    2    5    5    0    0 -0.43212084117E+02  0.50945819647E+02 -0.20411707220E+03  0.22889295202E+03  0.79154554947E+02 0.  0.
          5    1    3    3  501    0  0.65557437145E+02 -0.83701835360E+02 -0.28159776704E+03  0.30103682036E+03  0.47000000000E+01 0. -1.
        -13    1    4    4    0    0 -0.96519330043E+01 -0.38179004751E+02 -0.87002592212E+02  0.95499985687E+02  0.00000000000E+00 0.  1.
         14    1    4    4    0    0 -0.12471248272E+02  0.42543787285E+02 -0.72219161601E+02  0.84741448963E+02  0.00000000000E+00 0. -1.
         -5    1    5    5    0  502 -0.22217175130E+00  0.28391233179E+02  0.22925188899E+02  0.36793556063E+02  0.47000000000E+01 0.  1.
         11    1    6    6    0    0  0.22623876832E+02  0.52592568347E+01 -0.39945825935E+02  0.46207884555E+02  0.00000000000E+00 0. -1.
        -12    1    6    6    0    0 -0.65835960949E+02  0.45686562812E+02 -0.16417124627E+03  0.18268506747E+03  0.00000000000E+00 0.  1.
</event>
<event>
12    1  0.1629553E-001  0.2181758E+03  0.7818608E-02  0.1135360E+00
         21   -1    0    0  503  502  0.00000000000E+00  0.00000000000E+00  0.31407189762E+03  0.31407189762E+03  0.00000000000E+00 0.  1.
         21   -1    0    0  501  503 -0.00000000000E+00 -0.00000000000E+00 -0.15956347292E+03  0.15956347292E+03  0.00000000000E+00 0. -1.
          6    2    1    2  501    0  0.78358141049E+02 -0.10832179384E+03  0.22994235416E+02  0.21938414264E+03  0.17241536442E+03 0.  0.
         24    2    3    3    0    0  0.91169546971E+02 -0.13780652973E+03  0.31216818893E+02  0.18587022537E+03  0.79187909212E+02 0.  0.
         -6    2    1    2    0  502 -0.78358141049E+02  0.10832179384E+03  0.13151418929E+03  0.25425122790E+03  0.17168021323E+03 0.  0.
        -24    2    5    5    0    0 -0.33750625383E+02  0.83304529812E+02  0.93324195990E+01  0.12171380376E+03  0.81537761621E+02 0.  0.
          5    1    3    3  501    0 -0.12811405922E+02  0.29484735886E+02 -0.82225834763E+01  0.33513917273E+02  0.47000000000E+01 0. -1.
        -13    1    4    4    0    0  0.18955565112E+02  0.36352127319E+01  0.18198342048E+02  0.26527492788E+02  0.00000000000E+00 0.  1.
         14    1    4    4    0    0  0.72213981859E+02 -0.14144174246E+03  0.13018476844E+02  0.15934273258E+03  0.00000000000E+00 0. -1.
         -5    1    5    5    0  502 -0.44607515666E+02  0.25017264031E+02  0.12218176969E+03  0.13253742414E+03  0.47000000000E+01 0.  1.
         11    1    6    6    0    0  0.12765911802E+02 -0.20442303996E+01 -0.16668298916E+02  0.21094538886E+02  0.00000000000E+00 0. -1.
        -12    1    6    6    0    0 -0.46516537184E+02  0.85348760211E+02  0.26000718515E+02  0.10061926488E+03  0.00000000000E+00 0.  1.
</event>
<event>
12    1  0.1629553E-001  0.1721462E+03  0.7818608E-02  0.1175824E+00
         21   -1    0    0  503  502  0.00000000000E+00  0.00000000000E+00  0.17036311454E+03  0.17036311454E+03  0.00000000000E+00 0. -1.
         21   -1    0    0  501  503 -0.00000000000E+00 -0.00000000000E+00 -0.23543533635E+03  0.23543533635E+03  0.00000000000E+00 0. -1.
          6    2    1    2  501    0  0.11188045056E+02 -0.16951345588E+02 -0.13681948478E+03  0.21929915916E+03  0.17017646525E+03 0.  0.
         24    2    3    3    0    0 -0.28885895398E+02  0.32618126654E+02 -0.11425273251E+02  0.78555237207E+02  0.64358770066E+02 0.  0.
         -6    2    1    2    0  502 -0.11188045056E+02  0.16951345588E+02  0.71747262969E+02  0.18649929173E+03  0.17094383757E+03 0.  0.
        -24    2    5    5    0    0 -0.78234600579E+01  0.75437226862E+02  0.64088501089E+02  0.12723154861E+03  0.79552179522E+02 0.  0.
          5    1    3    3  501    0  0.40073940454E+02 -0.49569472243E+02 -0.12539421153E+03  0.14074392195E+03  0.47000000000E+01 0. -1.
        -13    1    4    4    0    0  0.14872042623E+02 -0.70960708871E+01 -0.10337297983E+02  0.19452290441E+02  0.00000000000E+00 0.  1.
         14    1    4    4    0    0 -0.43757938021E+02  0.39714197542E+02 -0.10879752682E+01  0.59102946766E+02  0.00000000000E+00 0. -1.
         -5    1    5    5    0  502 -0.33645849982E+01 -0.58485881273E+02  0.76587618794E+01  0.59267743116E+02  0.47000000000E+01 0.  1.
         11    1    6    6    0    0 -0.35308489370E+02  0.70522958009E+02  0.33135164556E+02  0.85545988557E+02  0.00000000000E+00 0. -1.
        -12    1    6    6    0    0  0.27485029312E+02  0.49142688525E+01  0.30953336533E+02  0.41685560056E+02  0.00000000000E+00 0.  1.
</event>
<event>
12    1  0.1629553E-001  0.2035170E+03  0.7818608E-02  0.1146834E+00
         21   -1    0    0  501  502  0.00000000000E+00  0.00000000000E+00  0.37122029251E+03  0.37122029251E+03  0.00000000000E+00 0. -1.
         21   -1    0    0  502  503 -0.00000000000E+00 -0.00000000000E+00 -0.15206172255E+03  0.15206172255E+03  0.00000000000E+00 0. -1.
         -6    2    1    2    0  503  0.29613460405E+02  0.10443208836E+03 -0.25524008423E+02  0.20511125850E+03  0.17215148923E+03 0.  0.
        -24    2    3    3    0    0 -0.32099548009E+02  0.55708681097E+01 -0.25200241315E+02  0.88474081319E+02  0.78301949842E+02 0.  0.
          6    2    1    2  501    0 -0.29613460405E+02 -0.10443208836E+03  0.24468257839E+03  0.31817075656E+03  0.17198851139E+03 0.  0.
         24    2    5    5    0    0 -0.12952874921E+02  0.10244610028E+02  0.63536675068E+02  0.10307950023E+03  0.79471663411E+02 0.  0.
          5    1    5    5  501    0 -0.16660585483E+02 -0.11467669839E+03  0.18114590332E+03  0.21509125633E+03  0.47000000000E+01 0. -1.
        -13    1    6    6    0    0  0.25027897791E+02  0.13388140265E+02  0.57994757297E+02  0.64568024916E+02  0.00000000000E+00 0.  1.
         14    1    6    6    0    0 -0.37980772713E+02 -0.31435302365E+01  0.55419177710E+01  0.38511475313E+02  0.00000000000E+00 0. -1.
         -5    1    3    3    0  503  0.61713008413E+02  0.98861220248E+02 -0.32376710765E+00  0.11663717718E+03  0.47000000000E+01 0.  1.
         13    1    4    4    0    0  0.10983388298E+01  0.20195319109E+02 -0.43405180552E+02  0.47885978750E+02  0.00000000000E+00 0. -1.
        -14    1    4    4    0    0 -0.33197886839E+02 -0.14624451000E+02  0.18204939236E+02  0.40588102569E+02  0.00000000000E+00 0.  1.
</event>
<event>
12    1  0.1629553E-001  0.2136512E+03  0.7818608E-02  0.1138790E+00
         21   -1    0    0  501  502  0.00000000000E+00  0.00000000000E+00  0.59204395002E+03  0.59204395002E+03  0.00000000000E+00 0. -1.
         21   -1    0    0  502  503 -0.00000000000E+00 -0.00000000000E+00 -0.77678062828E+02  0.77678062828E+02  0.00000000000E+00 0. -1.
         -6    2    1    2    0  503  0.10586350771E+03  0.69489809707E+02  0.28995532960E+03  0.36016789558E+03  0.17207819130E+03 0.  0.
        -24    2    3    3    0    0  0.10275142497E+03  0.47222810468E+02  0.91672793536E+02  0.16055938267E+03  0.67731566704E+02 0.  0.
          6    2    1    2  501    0 -0.10586350771E+03 -0.69489809707E+02  0.22441055759E+03  0.30955411727E+03  0.17154514637E+03 0.  0.
         24    2    5    5    0    0 -0.58867733641E+01  0.75991607584E+01  0.44968375298E+02  0.90101061782E+02  0.77483193096E+02 0.  0.
          5    1    5    5  501    0 -0.99976734346E+02 -0.77088970465E+02  0.17944218229E+03  0.21945305549E+03  0.47000000000E+01 0. -1.
        -11    1    6    6    0    0  0.21336617251E+02  0.27927306486E+01  0.56263502948E+02  0.60238130318E+02  0.00000000000E+00 0.  1.
         12    1    6    6    0    0 -0.27223390615E+02  0.48064301098E+01 -0.11295127650E+02  0.29862931464E+02  0.00000000000E+00 0. -1.
         -5    1    3    3    0  503  0.31120827414E+01  0.22266999239E+02  0.19828253607E+03  0.19960851290E+03  0.47000000000E+01 0.  1.
         11    1    4    4    0    0  0.38682197042E+02  0.53517323387E+02  0.58093850311E+02  0.87950620887E+02  0.00000000000E+00 0. -1.
        -12    1    4    4    0    0  0.64069227926E+02 -0.62945129191E+01  0.33578943225E+02  0.72608761786E+02  0.00000000000E+00 0.  1.
</event>
<event>
12    1  0.1629553E-001  0.1722586E+03  0.7818608E-02  0.1175521E+00
         21   -1    0    0  503  502  0.00000000000E+00  0.00000000000E+00  0.53892580427E+02  0.53892580427E+02  0.00000000000E+00 0. -1.
         21   -1    0    0  501  503 -0.00000000000E+00 -0.00000000000E+00 -0.56082144752E+03  0.56082144752E+03  0.00000000000E+00 0. -1.
          6    2    1    2  501    0 -0.10081161686E+02  0.30110297018E+01 -0.29515627368E+03  0.34172931415E+03  0.17190404923E+03 0.  0.
         24    2    3    3    0    0  0.60176108060E+01  0.93320378203E+01 -0.30887054519E+03  0.31916170767E+03  0.79623384650E+02 0.  0.
         -6    2    1    2    0  502  0.10081161686E+02 -0.30110297018E+01 -0.21177259341E+03  0.27298471379E+03  0.17193698416E+03 0.  0.
        -24    2    5    5    0    0 -0.21364194091E+02 -0.57251583842E+02 -0.17136262957E+03  0.19824581300E+03  0.78753278776E+02 0.  0.
          5    1    3    3  501    0 -0.16098772492E+02 -0.63210081185E+01  0.13714271516E+02  0.22567606488E+02  0.47000000000E+01 0. -1.
        -11    1    4    4    0    0  0.54111357077E+01 -0.35188924444E+02 -0.12445444882E+03  0.12944670959E+03  0.00000000000E+00 0.  1.
         12    1    4    4    0    0  0.60647509832E+00  0.44520962264E+02 -0.18441609637E+03  0.18971499808E+03  0.00000000000E+00 0. -1.
         -5    1    5    5    0  502  0.31445355777E+02  0.54240554140E+02 -0.40409963847E+02  0.74738900792E+02  0.47000000000E+01 0.  1.
         11    1    6    6    0    0  0.24161812607E+02  0.14657336868E+00 -0.26178757047E+02  0.35625019197E+02  0.00000000000E+00 0. -1.
        -12    1    6    6    0    0 -0.45526006699E+02 -0.57398157211E+02 -0.14518387252E+03  0.16262079380E+03  0.00000000000E+00 0.  1.
</event>
<event>
12    1  0.1629553E-001  0.2102530E+03  0.7818608E-02  0.1141384E+00
         21   -1    0    0  501  502  0.00000000000E+00  0.00000000000E+00  0.35896644195E+02  0.35896644195E+02  0.00000000000E+00 0.  1.
         21   -1    0    0  502  503 -0.00000000000E+00 -0.00000000000E+00 -0.25477019689E+04  0.25477019689E+04  0.00000000000E+00 0.  1.
         -6    2    1    2    0  503  0.12090189834E+03  0.16559032733E+01 -0.21844642234E+04  0.21945504032E+04  0.17189391459E+03 0.  0.
        -24    2    3    3    0    0  0.17550437883E+02 -0.31412670346E+02 -0.13817672342E+04  0.13845383037E+04  0.79817611304E+02 0.  0.
          6    2    1    2  501    0 -0.12090189834E+03 -0.16559032733E+01 -0.32734110136E+03  0.38904820995E+03  0.17200669168E+03 0.  0.
         24    2    5    5    0    0 -0.11124771274E+03  0.27720689659E+02 -0.12929860429E+03  0.18855105745E+03  0.75424677445E+02 0.  0.
          5    1    5    5  501    0 -0.96541855975E+01 -0.29376592932E+02 -0.19804249708E+03  0.20049715250E+03  0.47000000000E+01 0. -1.
        -11    1    6    6    0    0 -0.34344261649E+02  0.22490027385E+02 -0.96334545705E+02  0.10471711577E+03  0.00000000000E+00 0.  1.
         12    1    6    6    0    0 -0.76903451094E+02  0.52306622740E+01 -0.32964058583E+02  0.83833941672E+02  0.00000000000E+00 0. -1.
         -5    1    3    3    0  503  0.10335146046E+03  0.33068573620E+02 -0.80269698919E+03  0.81001209953E+03  0.47000000000E+01 0.  1.
         13    1    4    4    0    0  0.89246768132E+01 -0.20380781242E+02 -0.90489349984E+02  0.93184486696E+02  0.00000000000E+00 0. -1.
        -14    1    4    4    0    0  0.86257610697E+01 -0.11031889104E+02 -0.12912778842E+04  0.12913538170E+04  0.00000000000E+00 0.  1.
</event>
<event>
12    1  0.1629553E-001  0.1788049E+03  0.7818608E-02  0.1169269E+00
         21   -1    0    0  501  502  0.00000000000E+00  0.00000000000E+00  0.49310833305E+02  0.49310833305E+02  0.00000000000E+00 0. -1.
         21   -1    0    0  502  503 -0.00000000000E+00 -0.00000000000E+00 -0.87391771227E+03  0.87391771227E+03  0.00000000000E+00 0. -1.
         -6    2    1    2    0  503 -0.89064850165E+01 -0.44445747438E+02 -0.65020534085E+03  0.67434278219E+03  0.17296373224E+03 0.  0.
        -24    2    3    3    0    0  0.47556539522E+02  0.12683210798E+02 -0.32562137777E+03  0.33993490234E+03  0.84285039495E+02 0.  0.
          6    2    1    2  501    0  0.89064850165E+01  0.44445747438E+02 -0.17440153811E+03  0.24888576339E+03  0.17167841094E+03 0.  0.
         24    2    5    5    0    0  0.19803539812E+02 -0.26843847337E+02 -0.15826557031E+03  0.17483570206E+03  0.66383428954E+02 0.  0.
          5    1    5    5  501    0 -0.10897054795E+02  0.71289594776E+02 -0.16135967801E+02  0.74050061333E+02  0.47000000000E+01 0. -1.
        -13    1    6    6    0    0  0.27446314298E+02  0.16125449122E+01 -0.21416775832E+02  0.34850807117E+02  0.00000000000E+00 0.  1.
         14    1    6    6    0    0 -0.76427744863E+01 -0.28456392250E+02 -0.13684879448E+03  0.13998489494E+03  0.00000000000E+00 0. -1.
         -5    1    3    3    0  503 -0.56463024538E+02 -0.57128958236E+02 -0.32458396309E+03  0.33440787985E+03  0.47000000000E+01 0.  1.
         13    1    4    4    0    0  0.48911147529E+02  0.37354709057E+02 -0.29077901348E+03  0.29722064081E+03  0.00000000000E+00 0. -1.
        -14    1    4    4    0    0 -0.13546080065E+01 -0.24671498259E+02 -0.34842364288E+02  0.42714261534E+02  0.00000000000E+00 0.  1.
</event>
<event>
12    1  0.1629553E-001  0.2033285E+03  0.7818608E-02  0.1147013E+00
         21   -1    0    0  501  502  0.00000000000E+00  0.00000000000E+00  0.73292249471E+02  0.73292249471E+02  0.00000000000E+00 0.  1.
         21   -1    0    0  502  503 -0.00000000000E+00 -0.00000000000E+00 -0.63052213943E+03  0.63052213943E+03  0.00000000000E+00 0.  1.
         -6    2    1    2    0  503 -0.85566704479E+02 -0.66841323912E+02 -0.39360985210E+03  0.44302502894E+03  0.17190996801E+03 0.  0.
        -24    2    3    3    0    0 -0.82857807979E+02 -0.10964876570E+03 -0.32310021257E+03  0.36035995495E+03  0.81100441449E+02 0.  0.
          6    2    1    2  501    0  0.85566704479E+02  0.66841323912E+02 -0.16362003786E+03  0.26078935996E+03  0.17161046000E+03 0.  0.
         24    2    5    5    0    0  0.10618205902E+03  0.51075960081E+02 -0.62964080998E+02  0.15673528175E+03  0.81963953619E+02 0.  0.
          5    1    5    5  501    0 -0.20615354546E+02  0.15765363831E+02 -0.10065595686E+03  0.10405407821E+03  0.47000000000E+01 0. -1.
        -13    1    6    6    0    0 -0.10970140249E+02  0.18669666961E+02 -0.13413124123E+02  0.25471794994E+02  0.00000000000E+00 0.  1.
         14    1    6    6    0    0  0.11715219927E+03  0.32406293120E+02 -0.49550956876E+02  0.13126348676E+03  0.00000000000E+00 0. -1.
         -5    1    3    3    0  503 -0.27088964996E+01  0.42807441785E+02 -0.70509639524E+02  0.82665073993E+02  0.47000000000E+01 0.  1.
         13    1    4    4    0    0  0.62624270969E+01 -0.14861996505E+02 -0.53271715032E+01  0.16984572102E+02  0.00000000000E+00 0. -1.
        -14    1    4    4    0    0 -0.89120235076E+02 -0.94786769193E+02 -0.31777304107E+03  0.34337538285E+03  0.00000000000E+00 0.  1.
</event>
<event>
12    1  0.1629553E-001  0.2148779E+03  0.7818608E-02  0.1138142E+00
         21   -1    0    0  503  502  0.00000000000E+00  0.00000000000E+00  0.15911743059E+03  0.15911743059E+03  0.00000000000E+00 0.  1.
         21   -1    0    0  501  503 -0.00000000000E+00 -0.00000000000E+00 -0.42506219872E+03  0.42506219872E+03  0.00000000000E+00 0.  1.
          6    2    1    2  501    0  0.11220025093E+03  0.57770225793E+02 -0.29871182291E+03  0.36681773487E+03  0.17146487155E+03 0.  0.
         24    2    3    3    0    0  0.14180940918E+03  0.47597749914E+02 -0.23952267810E+03  0.29969377208E+03  0.10034834014E+03 0.  0.
         -6    2    1    2    0  502 -0.11220025093E+03 -0.57770225793E+02  0.32767054778E+02  0.21736189443E+03  0.17391439842E+03 0.  0.
        -24    2    5    5    0    0 -0.86407840250E+02 -0.89203191982E+02 -0.19158524593E+02  0.15124354898E+03  0.84166725775E+02 0.  0.
          5    1    3    3  501    0 -0.29609158259E+02  0.10172475879E+02 -0.59189144811E+02  0.67123962798E+02  0.47000000000E+01 0. -1.
        -13    1    4    4    0    0  0.20452007098E+02  0.52332849128E+02 -0.10010537215E+03  0.11479589377E+03  0.00000000000E+00 0.  1.
         14    1    4    4    0    0  0.12135740209E+03 -0.47350992143E+01 -0.13941730594E+03  0.18489787831E+03  0.00000000000E+00 0. -1.
         -5    1    5    5    0  502 -0.25792410675E+02  0.31432966189E+02  0.51925579371E+02  0.66118345449E+02  0.47000000000E+01 0.  1.
         11    1    6    6    0    0 -0.73912415991E+01 -0.10354261911E+02  0.27466571170E+02  0.30269683248E+02  0.00000000000E+00 0. -1.
        -12    1    6    6    0    0 -0.79016598651E+02 -0.78848930071E+02 -0.46625095764E+02  0.12097386573E+03  0.00000000000E+00 0.  1.
</event>
<event>
12    1  0.1629553E-001  0.1885950E+03  0.7818608E-02  0.1159778E+00
         21   -1    0    0  501  502  0.00000000000E+00  0.00000000000E+00  0.10681112123E+03  0.10681112123E+03  0.00000000000E+00 0. -1.
         21   -1    0    0  502  503 -0.00000000000E+00 -0.00000000000E+00 -0.33278060722E+03  0.33278060722E+03  0.00000000000E+00 0. -1.
         -6    2    1    2    0  503  0.29463217110E+02  0.75646456020E+02 -0.10882552216E+03  0.21757643097E+03  0.17001776840E+03 0.  0.
        -24    2    3    3    0    0  0.73074242762E+02  0.66050597719E+02 -0.41914229083E+02  0.13699595445E+03  0.85490131139E+02 0.  0.
          6    2    1    2  501    0 -0.29463217110E+02 -0.75646456020E+02 -0.11714396383E+03  0.22201529748E+03  0.17022813099E+03 0.  0.
         24    2    5    5    0    0  0.15183156910E+02 -0.54534250167E+02 -0.13659638978E+03  0.16872823691E+03  0.81278112270E+02 0.  0.
          5    1    5    5  501    0 -0.44646374020E+02 -0.21112205853E+02  0.19452425947E+02  0.53287060572E+02  0.47000000000E+01 0. -1.
        -11    1    6    6    0    0  0.15137209782E+02 -0.16928111084E+01  0.62178006082E+01  0.16451801538E+02  0.00000000000E+00 0.  1.
         12    1    6    6    0    0  0.45947128344E-01 -0.52841439058E+02 -0.14281419039E+03  0.15227643537E+03  0.00000000000E+00 0. -1.
         -5    1    3    3    0  503 -0.43611025653E+02  0.95958583008E+01 -0.66911293078E+02  0.80580476522E+02  0.47000000000E+01 0.  1.
         13    1    4    4    0    0  0.28919639248E+02 -0.60564073830E+01 -0.43314224122E+02  0.52432314615E+02  0.00000000000E+00 0. -1.
        -14    1    4    4    0    0  0.44154603514E+02  0.72107005102E+02  0.13999950384E+01  0.84563639837E+02  0.00000000000E+00 0.  1.
</event>
<event>
12    1  0.1629553E-001  0.1771216E+03  0.7818608E-02  0.1170879E+00
         21   -1    0    0  503  502  0.00000000000E+00  0.00000000000E+00  0.10379400499E+03  0.10379400499E+03  0.00000000000E+00 0.  1.
         21   -1    0    0  501  503 -0.00000000000E+00 -0.00000000000E+00 -0.32838128423E+03  0.32838128423E+03  0.00000000000E+00 0.  1.
          6    2    1    2  501    0 -0.14827130562E+02  0.35614973304E+02 -0.17499516323E+03  0.24824206959E+03  0.17179216464E+03 0.  0.
         24    2    3    3    0    0 -0.14417555937E+01  0.28945171360E+01 -0.19287075055E+03  0.20834942444E+03  0.78739439644E+02 0.  0.
         -6    2    1    2    0  502  0.14827130562E+02 -0.35614973304E+02 -0.49592116007E+02  0.18393321963E+03  0.17286926039E+03 0.  0.
        -24    2    5    5    0    0  0.69603583215E+02 -0.18493739292E+02 -0.62603867258E+02  0.12489939805E+03  0.80584975329E+02 0.  0.
          5    1    3    3  501    0 -0.13385374968E+02  0.32720456168E+02  0.17875587320E+02  0.39892645148E+02  0.47000000000E+01 0. -1.
        -13    1    4    4    0    0  0.36791704607E+02  0.12648859991E+02 -0.84740495648E+02  0.93244703816E+02  0.00000000000E+00 0.  1.
         14    1    4    4    0    0 -0.38233460200E+02 -0.97543428550E+01 -0.10813025491E+03  0.11510472062E+03  0.00000000000E+00 0. -1.
         -5    1    5    5    0  502 -0.54776452654E+02 -0.17121234012E+02  0.13011751251E+02  0.59033821577E+02  0.47000000000E+01 0.  1.
         13    1    6    6    0    0  0.14122268499E+02 -0.29421792880E+02 -0.59988913311E+02  0.68291654571E+02  0.00000000000E+00 0. -1.
        -14    1    6    6    0    0  0.55481314717E+02  0.10928053588E+02 -0.26149539465E+01  0.56607743481E+02  0.00000000000E+00 0.  1.
</event>
<event>
12    1  0.1629553E-001  0.1874174E+03  0.7818608E-02  0.1161045E+00
         21   -1    0    0  501  502  0.00000000000E+00  0.00000000000E+00  0.90899957469E+03  0.90899957469E+03  0.00000000000E+00 0.  1.
         21   -1    0    0  502  503 -0.00000000000E+00 -0.00000000000E+00 -0.48698067692E+02  0.48698067692E+02  0.00000000000E+00 0.  1.
         -6    2    1    2    0  503  0.21821853765E+02 -0.69579476301E+02  0.20937524200E+03  0.28032751478E+03  0.17154599020E+03 0.  0.
        -24    2    3    3    0    0  0.44046898852E+02 -0.10761760659E+03  0.16729505791E+03  0.21922363701E+03  0.80930143200E+02 0.  0.
          6    2    1    2  501    0 -0.21821853765E+02  0.69579476301E+02  0.65092626499E+03  0.67737012760E+03  0.17264932808E+03 0.  0.
         24    2    5    5    0    0 -0.58738784865E+02 -0.84123198108E+01  0.31425622714E+03  0.32978649098E+03  0.80505536217E+02 0.  0.
          5    1    5    5  501    0  0.36916931099E+02  0.77991796112E+02  0.33667003785E+03  0.34758363662E+03  0.47000000000E+01 0. -1.
        -13    1    6    6    0    0 -0.60534916781E+02  0.15635268453E+02  0.13333918637E+03  0.14726940073E+03  0.00000000000E+00 0.  1.
         14    1    6    6    0    0  0.17961319160E+01 -0.24047588264E+02  0.18091704077E+03  0.18251709024E+03  0.00000000000E+00 0. -1.
         -5    1    3    3    0  503 -0.22225045086E+02  0.38038130284E+02  0.42080184093E+02  0.61103877765E+02  0.47000000000E+01 0.  1.
         13    1    4    4    0    0  0.21229438288E+02 -0.19546724237E+02  0.10516982426E+03  0.10905711996E+03  0.00000000000E+00 0. -1.
        -14    1    4    4    0    0  0.22817460564E+02 -0.88070882348E+02  0.62125233651E+02  0.11016651706E+03  0.00000000000E+00 0.  1.
</event>
<event>
12    1  0.1629553E-001  0.1798623E+03  0.7818608E-02  0.1168048E+00
         21   -1    0    0  503  502  0.00000000000E+00  0.00000000000E+00  0.75100718055E+03  0.75100718055E+03  0.00000000000E+00 0. -1.
         21   -1    0    0  501  503 -0.00000000000E+00 -0.00000000000E+00 -0.10162246905E+03  0.10162246905E+03  0.00000000000E+00 0. -1.
          6    2    1    2  501    0  0.27695888311E+02 -0.44039355430E+02  0.62740663581E+00  0.17940124987E+03  0.17169125709E+03 0.  0.
         24    2    3    3    0    0  0.11888105054E+02  0.11408923816E+02  0.56110377903E+02  0.99246101671E+02  0.80186804426E+02 0.  0.
         -6    2    1    2    0  502 -0.27695888311E+02  0.44039355430E+02  0.64875730486E+03  0.67322839972E+03  0.17217407042E+03 0.  0.
        -24    2    5    5    0    0 -0.87147353295E+01  0.17838995987E+02  0.63042855067E+03  0.63574805509E+03  0.79632001497E+02 0.  0.
          5    1    3    3  501    0  0.15807783257E+02 -0.55448279246E+02 -0.55482971267E+02  0.80155148203E+02  0.47000000000E+01 0. -1.
        -11    1    4    4    0    0 -0.19445158549E+02 -0.21425015221E+02  0.43318132509E+02  0.52092284191E+02  0.00000000000E+00 0.  1.
         12    1    4    4    0    0  0.31333263603E+02  0.32833939037E+02  0.12792245395E+02  0.47153817480E+02  0.00000000000E+00 0. -1.
         -5    1    5    5    0  502 -0.18981152982E+02  0.26200359443E+02  0.18328754192E+02  0.37480344632E+02  0.47000000000E+01 0.  1.
         11    1    6    6    0    0 -0.28872084344E+02  0.31533165744E+02  0.19471770764E+03  0.19935627270E+03  0.00000000000E+00 0. -1.
        -12    1    6    6    0    0  0.20157349014E+02 -0.13694169757E+02  0.43571084303E+03  0.43639178239E+03  0.00000000000E+00 0.  1.
</event>
<event>
12    1  0.1629553E-001  0.1913871E+03  0.7818608E-02  0.1160066E+00
         21   -1    0    0  503  502  0.00000000000E+00  0.00000000000E+00  0.37202298443E+02  0.37202298443E+02  0.00000000000E+00 0. -1.
         21   -1    0    0  501  503 -0.00000000000E+00 -0.00000000000E+00 -0.93365198040E+03  0.93365198040E+03  0.00000000000E+00 0. -1.
          6    2    1    2  501    0  0.84077875741E+02 -0.47074799384E+01 -0.40934278855E+03  0.45187448967E+03  0.17186560539E+03 0.  0.
         24    2    3    3    0    0  0.94312335730E+02  0.17201809448E+02 -0.40885898069E+03  0.42723539060E+03  0.78572857721E+02 0.  0.
         -6    2    1    2    0  502 -0.84077875741E+02  0.47074799384E+01 -0.48710689341E+03  0.51897978918E+03  0.15803685144E+03 0.  0.
        -24    2    5    5    0    0 -0.11088655623E+03  0.28585519193E+02 -0.34645568192E+03  0.37374301904E+03  0.80866213481E+02 0.  0.
          5    1    3    3  501    0 -0.10234459988E+02 -0.21909289386E+02 -0.48380785624E+00  0.24639099064E+02  0.47000000000E+01 0. -1.
        -13    1    4    4    0    0  0.11109525682E+02 -0.27326950027E+02 -0.10426968278E+03  0.10836212671E+03  0.00000000000E+00 0.  1.
         14    1    4    4    0    0  0.83202810048E+02  0.44528759475E+02 -0.30458929792E+03  0.31887326389E+03  0.00000000000E+00 0. -1.
         -5    1    5    5    0  502  0.26808680489E+02 -0.23878039255E+02 -0.14065121148E+03  0.14523677014E+03  0.47000000000E+01 0.  1.
         13    1    6    6    0    0 -0.63462208227E+02  0.55922842826E+02 -0.23009001240E+03  0.24514532431E+03  0.00000000000E+00 0. -1.
        -14    1    6    6    0    0 -0.47424348003E+02 -0.27337323632E+02 -0.11636566952E+03  0.12859769473E+03  0.00000000000E+00 0.  1.
</event>
<event>
12    1  0.1629553E-001  0.1946174E+03  0.7818608E-02  0.1154453E+00
         21   -1    0    0  503  502  0.00000000000E+00  0.00000000000E+00  0.38560466866E+03  0.38560466866E+03  0.00000000000E+00 0.  1.
         21   -1    0    0  501  503 -0.00000000000E+00 -0.00000000000E+00 -0.24247016586E+03  0.24247016586E+03  0.00000000000E+00 0. -1.
          6    2    1    2  501    0  0.68704816900E+02 -0.57949453227E+02 -0.17085634670E+03  0.25866154786E+03  0.17214939483E+03 0.  0.
         24    2    3    3    0    0  0.15399706999E+01 -0.81995846935E+02 -0.13914308286E+03  0.18044922966E+03  0.80470097257E+02 0.  0.
         -6    2    1    2    0  502 -0.68704816900E+02  0.57949453227E+02  0.31399084950E+03  0.36941328666E+03  0.17261932625E+03 0.  0.
        -24    2    5    5    0    0  0.20494444623E+02  0.52757228727E+02  0.21151353873E+03  0.23337227566E+03  0.80754532598E+02 0.  0.
          5    1    3    3  501    0  0.67164846200E+02  0.24046393708E+02 -0.31713263835E+02  0.78212318202E+02  0.47000000000E+01 0. -1.
        -13    1    4    4    0    0 -0.20764566507E+02 -0.59627531396E+01 -0.15346790655E+01  0.21658182912E+02  0.00000000000E+00 0.  1.
         14    1    4    4    0    0  0.22304537207E+02 -0.76033093796E+02 -0.13760840380E+03  0.15879104675E+03  0.00000000000E+00 0. -1.
         -5    1    5    5    0  502 -0.89199261523E+02  0.51922245002E+01  0.10247731077E+03  0.13604101100E+03  0.47000000000E+01 0.  1.
         11    1    6    6    0    0 -0.28897597369E+02  0.36608874837E+02  0.98484171937E+02  0.10896978009E+03  0.00000000000E+00 0. -1.
        -12    1    6    6    0    0  0.49392041992E+02  0.16148353890E+02  0.11302936679E+03  0.12440249557E+03  0.00000000000E+00 0.  1.
</event>
<event>
12    1  0.1629553E-001  0.1930174E+03  0.7818608E-02  0.1155768E+00
         21   -1    0    0  501  502  0.00000000000E+00  0.00000000000E+00  0.17036009401E+03  0.17036009401E+03  0.00000000000E+00 0.  1.
         21   -1    0    0  502  503 -0.00000000000E+00 -0.00000000000E+00 -0.34797751411E+03  0.34797751411E+03  0.00000000000E+00 0.  1.
         -6    2    1    2    0  503  0.69006395105E+02 -0.55314844704E+02 -0.24678518061E+03  0.31330124504E+03  0.17156086432E+03 0.  0.
        -24    2    3    3    0    0 -0.26501317836E+01 -0.38694911669E+02 -0.47786623009E+02  0.10109051028E+03  0.80196075611E+02 0.  0.
          6    2    1    2  501    0 -0.69006395105E+02  0.55314844704E+02  0.69167760510E+02  0.20503636308E+03  0.17156373883E+03 0.  0.
         24    2    5    5    0    0 -0.11240548664E+03  0.54075576809E+02  0.43082759128E+02  0.15416855176E+03  0.79703555665E+02 0.  0.
          5    1    5    5  501    0  0.43399091532E+02  0.12392678952E+01  0.26085001382E+02  0.50867811313E+02  0.47000000000E+01 0. -1.
        -13    1    6    6    0    0 -0.11919519956E+03  0.33168851787E+02  0.45990541000E+02  0.13199544760E+03  0.00000000000E+00 0.  1.
         14    1    6    6    0    0  0.67897129213E+01  0.20906725022E+02 -0.29077818720E+01  0.22173104160E+02  0.00000000000E+00 0. -1.
         -5    1    3    3    0  503  0.71656526889E+02 -0.16619933035E+02 -0.19899855760E+03  0.21221073476E+03  0.47000000000E+01 0.  1.
         13    1    4    4    0    0 -0.22170153018E+02 -0.51355045880E+02 -0.53208493486E+02  0.77201037566E+02  0.00000000000E+00 0. -1.
        -14    1    4    4    0    0  0.19520021235E+02  0.12660134212E+02  0.54218704772E+01  0.23889472718E+02  0.00000000000E+00 0.  1.
</event>
<event>
12    1  0.1629553E-001  0.1841629E+03  0.7818608E-02  0.1164952E+00
         21   -1    0    0  503  502  0.00000000000E+00  0.00000000000E+00  0.13927813568E+03  0.13927813568E+03  0.00000000000E+00 0.  1.
         21   -1    0    0  501  503 -0.00000000000E+00 -0.00000000000E+00 -0.24607239573E+03  0.24607239573E+03  0.00000000000E+00 0.  1.
          6    2    1    2  501    0  0.62665896544E+02  0.16993196923E+02 -0.16445932021E+02  0.18021940353E+03  0.16731043421E+03 0.  0.
         24    2    3    3    0    0  0.36508346180E+02  0.47395607644E+02  0.42342735418E+02  0.10889814836E+03  0.80540030478E+02 0.  0.
         -6    2    1    2    0  502 -0.62665896544E+02 -0.16993196923E+02 -0.90348328029E+02  0.20513112789E+03  0.17233738979E+03 0.  0.
        -24    2    5    5    0    0 -0.68241892022E+02 -0.62988871719E+02 -0.99501723580E+02  0.15766989660E+03  0.79590511436E+02 0.  0.
          5    1    3    3  501    0  0.26157550364E+02 -0.30402410721E+02 -0.58788667440E+02  0.71321255163E+02  0.47000000000E+01 0. -1.
        -11    1    4    4    0    0  0.61028676662E+02  0.40721989713E+02  0.22762215634E+02  0.76817304573E+02  0.00000000000E+00 0.  1.
         12    1    4    4    0    0 -0.24520330482E+02  0.66736179303E+01  0.19580519784E+02  0.32080843790E+02  0.00000000000E+00 0. -1.
         -5    1    5    5    0  502  0.55759954784E+01  0.45995674796E+02  0.91533955507E+01  0.47461231290E+02  0.47000000000E+01 0.  1.
         11    1    6    6    0    0 -0.15212533705E+02 -0.20620211087E+02 -0.84304692995E+02  0.88112970373E+02  0.00000000000E+00 0. -1.
        -12    1    6    6    0    0 -0.53029358317E+02 -0.42368660632E+02 -0.15197030585E+02  0.69556926225E+02  0.00000000000E+00 0.  1.
</event>
<event>
12    1  0.1629553E-001  0.2189971E+03  0.7818608E-02  0.1136145E+00
         21   -1    0    0  503  502  0.00000000000E+00  0.00000000000E+00  0.27362058830E+03  0.27362058830E+03  0.00000000000E+00 0.  1.
         21   -1    0    0  501  503 -0.00000000000E+00 -0.00000000000E+00 -0.27967576699E+03  0.27967576699E+03  0.00000000000E+00 0.  1.
          6    2    1    2  501    0  0.85164653803E+02  0.86894168589E+02 -0.17707083615E+03  0.28162705284E+03  0.18208816843E+03 0.  0.
         24    2    3    3    0    0  0.17463214400E+02  0.19784703635E+02 -0.16584501115E+03  0.18552671813E+03  0.78861885990E+02 0.  0.
         -6    2    1    2    0  502 -0.85164653803E+02 -0.86894168589E+02  0.17101565746E+03  0.27166930245E+03  0.17249417384E+03 0.  0.
        -24    2    5    5    0    0 -0.10832763479E+03 -0.76617748136E+02  0.75421279469E+02  0.17266170876E+03  0.80737478817E+02 0.  0.
          5    1    3    3  501    0  0.67701439403E+02  0.67109464955E+02 -0.11225825002E+02  0.96100334707E+02  0.47000000000E+01 0. -1.
        -11    1    4    4    0    0 -0.62551021135E+01 -0.18123579353E+02 -0.68443450608E+01  0.20357688727E+02  0.00000000000E+00 0.  1.
         12    1    4    4    0    0  0.23718316513E+02  0.37908282988E+02 -0.15900066609E+03  0.16516902940E+03  0.00000000000E+00 0. -1.
         -5    1    5    5    0  502  0.23162980991E+02 -0.10276420453E+02  0.95594377990E+02  0.99007593694E+02  0.47000000000E+01 0.  1.
         13    1    6    6    0    0 -0.27284014045E+02 -0.66347004001E+02  0.21930322193E+02  0.75015207750E+02  0.00000000000E+00 0. -1.
        -14    1    6    6    0    0 -0.81043620749E+02 -0.10270744135E+02  0.53490957276E+02  0.97646501010E+02  0.00000000000E+00 0.  1.
</event>
<event>
12    1  0.1629553E-001  0.1767358E+03  0.7818608E-02  0.1171326E+00
         21   -1    0    0  501  502  0.00000000000E+00  0.00000000000E+00  0.19773946626E+03  0.19773946626E+03  0.00000000000E+00 0.  1.
         21   -1    0    0  502  503 -0.00000000000E+00 -0.00000000000E+00 -0.22051652782E+03  0.22051652782E+03  0.00000000000E+00 0.  1.
         -6    2    1    2    0  503  0.33360824096E+02 -0.50410893956E+00 -0.12377491812E+03  0.21469739163E+03  0.17222526211E+03 0.  0.
        -24    2    3    3    0    0 -0.35884202664E+02 -0.38026647351E+02 -0.53109370457E+02  0.10877985651E+03  0.79238564112E+02 0.  0.
          6    2    1    2  501    0 -0.33360824096E+02  0.50410893956E+00  0.10099785655E+03  0.20355860245E+03  0.17355788341E+03 0.  0.
         24    2    5    5    0    0  0.83081621867E+01 -0.26899884201E+02  0.12363540509E+03  0.14858741125E+03  0.77458866896E+02 0.  0.
          5    1    5    5  501    0 -0.41668986282E+02  0.27403993141E+02 -0.22637548544E+02  0.54971191200E+02  0.47000000000E+01 0. -1.
        -13    1    6    6    0    0 -0.26145823150E+02 -0.22964597056E+02  0.10185803286E+03  0.10763844872E+03  0.00000000000E+00 0.  1.
         14    1    6    6    0    0  0.34453985336E+02 -0.39352871446E+01  0.21777372233E+02  0.40948962525E+02  0.00000000000E+00 0. -1.
         -5    1    3    3    0  503  0.69245026760E+02  0.37522538411E+02 -0.70665547659E+02  0.10591753512E+03  0.47000000000E+01 0.  1.
         13    1    4    4    0    0 -0.19016842964E+02 -0.62432639562E+02 -0.36202243991E+02  0.74632950290E+02  0.00000000000E+00 0. -1.
        -14    1    4    4    0    0 -0.16867359700E+02  0.24405992212E+02 -0.16907126466E+02  0.34146906221E+02  0.00000000000E+00 0.  1.
</event>
<event>
12    1  0.1629553E-001  0.1754137E+03  0.7818608E-02  0.1172347E+00
         21   -1    0    0  503  502  0.00000000000E+00  0.00000000000E+00  0.16937655578E+03  0.16937655578E+03  0.00000000000E+00 0.  1.
         21   -1    0    0  501  503 -0.00000000000E+00 -0.00000000000E+00 -0.22953973914E+03  0.22953973914E+03  0.00000000000E+00 0.  1.
          6    2    1    2  501    0  0.34433016505E+01 -0.32275735631E+02 -0.12128304368E+03  0.21315944778E+03  0.17226083147E+03 0.  0.
         24    2    3    3    0    0 -0.40369241265E+02 -0.22830130019E+02 -0.88153899427E+01  0.91999134482E+02  0.78963530624E+02 0.  0.
         -6    2    1    2    0  502 -0.34433016505E+01  0.32275735631E+02  0.61119860322E+02  0.18575684714E+03  0.17238442359E+03 0.  0.
        -24    2    5    5    0    0  0.19077027330E+02  0.48104906777E+02 -0.22959971385E+02  0.97160933146E+02  0.78962469668E+02 0.  0.
          5    1    3    3  501    0  0.43812542916E+02 -0.94456056115E+01 -0.11246765374E+03  0.12116031330E+03  0.47000000000E+01 0. -1.
        -13    1    4    4    0    0  0.43164234960E+00  0.53420228119E+01 -0.35356398757E+02  0.35760291609E+02  0.00000000000E+00 0.  1.
         14    1    4    4    0    0 -0.40800883615E+02 -0.28172152831E+02  0.26541008815E+02  0.56238842874E+02  0.00000000000E+00 0. -1.
         -5    1    5    5    0  502 -0.22520328981E+02 -0.15829171146E+02  0.84079831707E+02  0.88595913994E+02  0.47000000000E+01 0.  1.
         13    1    6    6    0    0  0.10165164257E+02 -0.10534059951E+02 -0.33829406630E+02  0.36860897118E+02  0.00000000000E+00 0. -1.
        -14    1    6    6    0    0  0.89118630733E+01  0.58638966728E+02  0.10869435246E+02  0.60300036027E+02  0.00000000000E+00 0.  1.
</event>
<event>
12    1  0.1629553E-001  0.2140714E+03  0.7818608E-02  0.1138410E+00
         21   -1    0    0  503  502  0.00000000000E+00  0.00000000000E+00  0.57361939829E+02  0.57361939829E+02  0.00000000000E+00 0.  1.
         21   -1    0    0  501  503 -0.00000000000E+00 -0.00000000000E+00 -0.81330190264E+03  0.81330190264E+03  0.00000000000E+00 0.  1.
          6    2    1    2  501    0 -0.11386162376E+03 -0.57010203566E+02 -0.43685271117E+03  0.48642012705E+03  0.17190001766E+03 0.  0.
         24    2    3    3    0    0 -0.75671184394E+02  0.11959210219E+02 -0.36074042320E+03  0.37673667307E+03  0.76991668716E+02 0.  0.
         -6    2    1    2    0  502  0.11386162376E+03  0.57010203566E+02 -0.31908725164E+03  0.38424371542E+03  0.17208116108E+03 0.  0.
        -24    2    5    5    0    0  0.13817995333E+03  0.54665226006E+01 -0.24677414093E+03  0.29205148049E+03  0.72615482178E+02 0.  0.
          5    1    3    3  501    0 -0.38190439371E+02 -0.68969413785E+02 -0.76112287973E+02  0.10968345398E+03  0.47000000000E+01 0. -1.
        -11    1    4    4    0    0 -0.17644006415E+02 -0.11198471702E+02 -0.23889212862E+03  0.23980443250E+03  0.00000000000E+00 0.  1.
         12    1    4    4    0    0 -0.58027177979E+02  0.23157681921E+02 -0.12184829458E+03  0.13693224057E+03  0.00000000000E+00 0. -1.
         -5    1    5    5    0  502 -0.24318329565E+02  0.51543680965E+02 -0.72313110714E+02  0.92192234930E+02  0.47000000000E+01 0.  1.
         13    1    6    6    0    0  0.23186028017E+02 -0.18144495653E+02 -0.16927035356E+02  0.33960847217E+02  0.00000000000E+00 0. -1.
        -14    1    6    6    0    0  0.11499392531E+03  0.23611018254E+02 -0.22984710557E+03  0.25809063327E+03  0.00000000000E+00 0.  1.
</event>
<event>
12    1  0.1629553E-001  0.1869209E+03  0.7818608E-02  0.1164177E+00
         21   -1    0    0  501  502  0.00000000000E+00  0.00000000000E+00  0.18027414162E+02  0.18027414162E+02  0.00000000000E+00 0.  1.
         21   -1    0    0  502  503 -0.00000000000E+00 -0.00000000000E+00 -0.29006493106E+04  0.29006493106E+04  0.00000000000E+00 0. -1.
         -6    2    1    2    0  503  0.74064869167E+02  0.20723720829E+02 -0.23646070347E+04  0.23719835250E+04  0.17036530474E+03 0.  0.
        -24    2    3    3    0    0  0.29615504685E+02  0.76426056241E+02 -0.15522434585E+04  0.15564866420E+04  0.80454287289E+02 0.  0.
          6    2    1    2  501    0 -0.74064869167E+02 -0.20723720829E+02 -0.51801486179E+03  0.54669319978E+03  0.15690436639E+03 0.  0.
         24    2    5    5    0    0 -0.92262555680E+02 -0.45613175938E+02 -0.30484608164E+03  0.33125490326E+03  0.78776496801E+02 0.  0.
          5    1    5    5  501    0  0.18197686513E+02  0.24889455108E+02 -0.21316878016E+03  0.21543829651E+03  0.47000000000E+01 0. -1.
        -13    1    6    6    0    0 -0.96137328656E+02 -0.15862696825E+02 -0.20462146453E+03  0.22663617288E+03  0.00000000000E+00 0.  1.
         14    1    6    6    0    0  0.38747729758E+01 -0.29750479113E+02 -0.10022461711E+03  0.10461873039E+03  0.00000000000E+00 0. -1.
         -5    1    3    3    0  503  0.44449364482E+02 -0.55702335412E+02 -0.81236357621E+03  0.81549688297E+03  0.47000000000E+01 0.  1.
         13    1    4    4    0    0 -0.27908322452E+02  0.22280096544E+02 -0.44811717028E+03  0.44953784653E+03  0.00000000000E+00 0. -1.
        -14    1    4    4    0    0  0.57523827137E+02  0.54145959697E+02 -0.11041262882E+04  0.11069487955E+04  0.00000000000E+00 0.  1.
</event>
<event>
12    1  0.1629553E-001  0.2689367E+03  0.7818608E-02  0.1102311E+00
         21   -1    0    0  501  502  0.00000000000E+00  0.00000000000E+00  0.28806591978E+03  0.28806591978E+03  0.00000000000E+00 0.  1.
         21   -1    0    0  502  503 -0.00000000000E+00 -0.00000000000E+00 -0.57314185305E+03  0.57314185305E+03  0.00000000000E+00 0.  1.
         -6    2    1    2    0  503  0.12176704661E+03  0.16284598325E+03 -0.46634386390E+03  0.53688539174E+03  0.17153220271E+03 0.  0.
        -24    2    3    3    0    0  0.11988699748E+03  0.18758487514E+03 -0.44416499164E+03  0.50327676589E+03  0.80274440136E+02 0.  0.
          6    2    1    2  501    0 -0.12176704661E+03 -0.16284598325E+03  0.18126793063E+03  0.32432238110E+03  0.17601396622E+03 0.  0.
         24    2    5    5    0    0 -0.13033552070E+03 -0.18324917093E+03  0.13823698057E+03  0.27570693624E+03  0.79606816851E+02 0.  0.
          5    1    5    5  501    0  0.85684740833E+01  0.20403187687E+02  0.43030950057E+02  0.48615444858E+02  0.47000000000E+01 0. -1.
        -13    1    6    6    0    0 -0.85130043990E+02 -0.80555725668E+02  0.10830158077E+03  0.15957939004E+03  0.00000000000E+00 0.  1.
         14    1    6    6    0    0 -0.45205476707E+02 -0.10269344527E+03  0.29935399798E+02  0.11612754620E+03  0.00000000000E+00 0. -1.
         -5    1    3    3    0  503  0.18800491322E+01 -0.24738891894E+02 -0.22178872256E+02  0.33608625848E+02  0.47000000000E+01 0.  1.
         11    1    4    4    0    0  0.32033591991E+02  0.45504504797E+02 -0.48591756461E+02  0.73878073666E+02  0.00000000000E+00 0. -1.
        -12    1    4    4    0    0  0.87853405490E+02  0.14208037034E+03 -0.39557323518E+03  0.42939869222E+03  0.00000000000E+00 0.  1.
</event>
<event>
12    1  0.1629553E-001  0.1933074E+03  0.7818608E-02  0.1155571E+00
         21   -1    0    0  503  502  0.00000000000E+00  0.00000000000E+00  0.15200452488E+04  0.15200452488E+04  0.00000000000E+00 0. -1.
         21   -1    0    0  501  503 -0.00000000000E+00 -0.00000000000E+00 -0.45817992562E+02  0.45817992562E+02  0.00000000000E+00 0. -1.
          6    2    1    2  501    0 -0.73524875895E+02  0.46856901171E+02  0.20340958083E+03  0.28042739775E+03  0.17222831147E+03 0.  0.
         24    2    3    3    0    0  0.60509215614E+01 -0.14795780504E+02  0.45222172200E+02  0.92867522114E+02  0.79522342978E+02 0.  0.
         -6    2    1    2    0  502  0.73524875895E+02 -0.46856901171E+02  0.12708176754E+04  0.12854358436E+04  0.17252903337E+03 0.  0.
        -24    2    5    5    0    0  0.62047091213E+02 -0.20940634642E+02  0.36980192622E+03  0.38396212647E+03  0.79906809613E+02 0.  0.
          5    1    3    3  501    0 -0.79575797456E+02  0.61652681676E+02  0.15818740863E+03  0.18755987564E+03  0.47000000000E+01 0. -1.
        -13    1    4    4    0    0  0.28663439807E+02  0.20479062064E+02  0.35169130033E+02  0.49778032021E+02  0.00000000000E+00 0.  1.
         14    1    4    4    0    0 -0.22612518246E+02 -0.35274842569E+02  0.10053042166E+02  0.43089490093E+02  0.00000000000E+00 0. -1.
         -5    1    5    5    0  502  0.11477784682E+02 -0.25916266529E+02  0.90101574918E+03  0.90147371713E+03  0.47000000000E+01 0.  1.
         13    1    6    6    0    0  0.27655909670E+02 -0.50712698939E+02  0.21341667440E+03  0.22109568988E+03  0.00000000000E+00 0. -1.
        -14    1    6    6    0    0  0.34391181543E+02  0.29772064297E+02  0.15638525182E+03  0.16286643659E+03  0.00000000000E+00 0.  1.
</event>
<event>
12    1  0.1629553E-001  0.2286347E+03  0.7818608E-02  0.1127888E+00
         21   -1    0    0  503  502  0.00000000000E+00  0.00000000000E+00  0.17226630549E+03  0.17226630549E+03  0.00000000000E+00 0.  1.
         21   -1    0    0  501  503 -0.00000000000E+00 -0.00000000000E+00 -0.35100683687E+03  0.35100683687E+03  0.00000000000E+00 0. -1.
          6    2    1    2  501    0 -0.13549888083E+03  0.66404352460E+02 -0.18805812020E+03  0.29603997984E+03  0.17176824025E+03 0.  0.
         24    2    3    3    0    0 -0.33405804226E+02 -0.27632822277E+02 -0.78600468996E+02  0.11920940010E+03  0.78443143255E+02 0.  0.
         -6    2    1    2    0  502  0.13549888083E+03 -0.66404352460E+02  0.93175888184E+01  0.22723316252E+03  0.16964258886E+03 0.  0.
        -24    2    5    5    0    0  0.11099242171E+03 -0.70492309941E+02  0.63884465975E+02  0.16709239417E+03  0.80933057269E+02 0.  0.
          5    1    3    3  501    0 -0.10209307660E+03  0.94037174737E+02 -0.10945765121E+03  0.17683057974E+03  0.47000000000E+01 0. -1.
        -11    1    4    4    0    0 -0.45961808155E+00 -0.13164312832E+02  0.14384741231E+02  0.19504644611E+02  0.00000000000E+00 0.  1.
         12    1    4    4    0    0 -0.32946186144E+02 -0.14468509445E+02 -0.92985210227E+02  0.99704755493E+02  0.00000000000E+00 0. -1.
         -5    1    5    5    0  502  0.24506459119E+02  0.40879574807E+01 -0.54566877156E+02  0.60140768348E+02  0.47000000000E+01 0.  1.
         11    1    6    6    0    0  0.72469271065E+01  0.84285437933E+01 -0.11922201425E+02  0.16300220544E+02  0.00000000000E+00 0. -1.
        -12    1    6    6    0    0  0.10374549460E+03 -0.78920853734E+02  0.75806667400E+02  0.15079217363E+03  0.00000000000E+00 0.  1.
</event>
<event>
12    1  0.1629553E-001  0.1873050E+03  0.7818608E-02  0.1161538E+00
         21   -1    0    0  503  502  0.00000000000E+00  0.00000000000E+00  0.10487728676E+03  0.10487728676E+03  0.00000000000E+00 0. -1.
         21   -1    0    0  501  503 -0.00000000000E+00 -0.00000000000E+00 -0.37293381829E+03  0.37293381829E+03  0.00000000000E+00 0. -1.
          6    2    1    2  501    0  0.55659425509E+02 -0.36745587954E+02 -0.53570781490E+02  0.19481525290E+03  0.17502840984E+03 0.  0.
         24    2    3    3    0    0  0.63707882752E+02  0.21649467558E+02 -0.72254283658E+02  0.13279974335E+03  0.88812704922E+02 0.  0.
         -6    2    1    2    0  502 -0.55659425509E+02  0.36745587954E+02 -0.21448575004E+03  0.28299585214E+03  0.17214617474E+03 0.  0.
        -24    2    5    5    0    0  0.75686311964E-01  0.61780459235E+02 -0.19342825165E+03  0.21819881743E+03  0.79871174513E+02 0.  0.
          5    1    3    3  501    0 -0.80484572433E+01 -0.58395055512E+02  0.18683502168E+02  0.62015509556E+02  0.47000000000E+01 0. -1.
        -11    1    4    4    0    0 -0.13878869419E+02  0.30141324995E+02 -0.25150317289E+02  0.41637254334E+02  0.00000000000E+00 0.  1.
         12    1    4    4    0    0  0.77586752171E+02 -0.84918574364E+01 -0.47103966369E+02  0.91162489012E+02  0.00000000000E+00 0. -1.
         -5    1    5    5    0  502 -0.55735111821E+02 -0.25034871281E+02 -0.21057498394E+02  0.64797034719E+02  0.47000000000E+01 0.  1.
         13    1    6    6    0    0  0.12223340370E+02 -0.17179045977E+02 -0.41189234424E+02  0.46271834877E+02  0.00000000000E+00 0. -1.
        -14    1    6    6    0    0 -0.12147654058E+02  0.78959505212E+02 -0.15223901722E+03  0.17192698255E+03  0.00000000000E+00 0.  1.
</event>
<event>
12    1  0.1629553E-001  0.2150797E+03  0.7818608E-02  0.1138018E+00
         21   -1    0    0  503  502  0.00000000000E+00  0.00000000000E+00  0.44506014632E+03  0.44506014632E+03  0.00000000000E+00 0.  1.
         21   -1    0    0  501  503 -0.00000000000E+00 -0.00000000000E+00 -0.11778212931E+03  0.11778212931E+03  0.00000000000E+00 0.  1.
          6    2    1    2  501    0 -0.93333199540E+02 -0.89241259462E+02  0.26292611230E+03  0.33834184919E+03  0.16932211271E+03 0.  0.
         24    2    3    3    0    0 -0.51626047651E+02  0.18009726452E+02  0.12953579788E+03  0.16211095950E+03  0.80689783828E+02 0.  0.
         -6    2    1    2    0  502  0.93333199540E+02  0.89241259462E+02  0.64351904715E+02  0.22450042644E+03  0.17200053868E+03 0.  0.
        -24    2    5    5    0    0  0.10817497804E+03  0.10962531596E+02  0.51371395184E+02  0.14363992154E+03  0.78558283103E+02 0.  0.
          5    1    3    3  501    0 -0.41707151888E+02 -0.10725098591E+03  0.13339031443E+03  0.17623088969E+03  0.47000000000E+01 0. -1.
        -11    1    4    4    0    0  0.57028965575E+01 -0.16469589788E+02  0.71352169929E+02  0.73450000480E+02  0.00000000000E+00 0.  1.
         12    1    4    4    0    0 -0.57328944209E+02  0.34479316240E+02  0.58183627947E+02  0.88660959016E+02  0.00000000000E+00 0. -1.
         -5    1    5    5    0  502 -0.14841778500E+02  0.78278727866E+02  0.12980509530E+02  0.80860504902E+02  0.47000000000E+01 0.  1.
         11    1    6    6    0    0  0.36032512351E+02 -0.23642582803E+02  0.46617138988E+02  0.63485993065E+02  0.00000000000E+00 0. -1.
        -12    1    6    6    0    0  0.72142465688E+02  0.34605114399E+02  0.47542561963E+01  0.80153928476E+02  0.00000000000E+00 0.  1.
</event>
<event>
12    1  0.1629553E-001  0.2125389E+03  0.7818608E-02  0.1139908E+00
         21   -1    0    0  501  502  0.00000000000E+00  0.00000000000E+00  0.18858516826E+03  0.18858516826E+03  0.00000000000E+00 0. -1.
         21   -1    0    0  502  503 -0.00000000000E+00 -0.00000000000E+00 -0.67347939479E+03  0.67347939479E+03  0.00000000000E+00 0. -1.
         -6    2    1    2    0  503 -0.22937273387E+02  0.12124974099E+03 -0.58955525513E+03  0.62669624977E+03  0.17304673480E+03 0.  0.
        -24    2    3    3    0    0 -0.80683395770E+02  0.83281605017E+02 -0.34187232813E+03  0.36950932100E+03  0.78834088331E+02 0.  0.
          6    2    1    2  501    0  0.22937273387E+02 -0.12124974099E+03  0.10466102860E+03  0.23536831329E+03  0.17092891444E+03 0.  0.
         24    2    5    5    0    0 -0.52395815379E+02 -0.82091027180E+02  0.66817425373E+02  0.14229464657E+03  0.79365861031E+02 0.  0.
          5    1    5    5  501    0  0.75333088766E+02 -0.39158713813E+02  0.37843603226E+02  0.93073666714E+02  0.47000000000E+01 0. -1.
        -13    1    6    6    0    0 -0.62782021058E+02 -0.24980407398E+02  0.34859310264E+02  0.76031404261E+02  0.00000000000E+00 0.  1.
         14    1    6    6    0    0  0.10386205679E+02 -0.57110619782E+02  0.31958115110E+02  0.66263242312E+02  0.00000000000E+00 0. -1.
         -5    1    3    3    0  503  0.57746122383E+02  0.37968135976E+02 -0.24768292700E+03  0.25718692876E+03  0.47000000000E+01 0.  1.
         11    1    4    4    0    0 -0.89325919359E+02  0.49340873481E+02 -0.28498769834E+03  0.30270716852E+03  0.00000000000E+00 0. -1.
        -12    1    4    4    0    0  0.86425235893E+01  0.33940731536E+02 -0.56884629784E+02  0.66802152487E+02  0.00000000000E+00 0.  1.
</event>
<event>
12    1  0.1629553E-001  0.2196229E+03  0.7818608E-02  0.1134521E+00
         21   -1    0    0  503  502  0.00000000000E+00  0.00000000000E+00  0.34513045343E+03  0.34513045343E+03  0.00000000000E+00 0.  1.
         21   -1    0    0  501  503 -0.00000000000E+00 -0.00000000000E+00 -0.14026188209E+03  0.14026188209E+03  0.00000000000E+00 0.  1.
          6    2    1    2  501    0 -0.91219146235E+02 -0.98028536222E+02  0.76057827346E+02  0.23241990767E+03  0.17407956178E+03 0.  0.
         24    2    3    3    0    0 -0.65322120464E+02 -0.13292385043E+03  0.29630451654E+02  0.16865526143E+03  0.75039350396E+02 0.  0.
         -6    2    1    2    0  502  0.91219146235E+02  0.98028536222E+02  0.12881074399E+03  0.25297242785E+03  0.17167502710E+03 0.  0.
        -24    2    5    5    0    0  0.46849326473E+02 -0.14688682809E+02  0.36453548419E+02  0.10057231648E+03  0.79845556266E+02 0.  0.
          5    1    3    3  501    0 -0.25897025771E+02  0.34895314204E+02  0.46427375692E+02  0.63764646245E+02  0.47000000000E+01 0. -1.
        -13    1    4    4    0    0 -0.15449844371E+02 -0.10056461351E+03 -0.10607305706E+01  0.10175000900E+03  0.00000000000E+00 0.  1.
         14    1    4    4    0    0 -0.49872276093E+02 -0.32359236917E+02  0.30691182225E+02  0.66905252431E+02  0.00000000000E+00 0. -1.
         -5    1    5    5    0  502  0.44369819762E+02  0.11271721903E+03  0.92357195571E+02  0.15240011137E+03  0.47000000000E+01 0.  1.
         13    1    6    6    0    0 -0.40079184880E+01 -0.11565160230E+02  0.46975704669E+02  0.48544136319E+02  0.00000000000E+00 0. -1.
        -14    1    6    6    0    0  0.50857244961E+02 -0.31235225784E+01 -0.10522156250E+02  0.52028180158E+02  0.00000000000E+00 0.  1.
</event>
<event>
12    1  0.1629553E-001  0.2047966E+03  0.7818608E-02  0.1146116E+00
         21   -1    0    0  503  502  0.00000000000E+00  0.00000000000E+00  0.63597500370E+02  0.63597500370E+02  0.00000000000E+00 0. -1.
         21   -1    0    0  501  503 -0.00000000000E+00 -0.00000000000E+00 -0.70923930042E+03  0.70923930042E+03  0.00000000000E+00 0. -1.
          6    2    1    2  501    0 -0.78530343569E+02  0.72223619838E+02 -0.42954741109E+03  0.47511473733E+03  0.17274191482E+03 0.  0.
         24    2    3    3    0    0 -0.17144874842E+02  0.17092119486E+02 -0.35144834288E+03  0.36140804203E+03  0.80707792983E+02 0.  0.
         -6    2    1    2    0  502  0.78530343569E+02 -0.72223619838E+02 -0.21609438896E+03  0.29772206346E+03  0.17480954209E+03 0.  0.
        -24    2    5    5    0    0  0.16319862669E+02 -0.97050872818E+02 -0.18639216280E+03  0.22429966454E+03  0.76701312407E+02 0.  0.
          5    1    3    3  501    0 -0.61385468727E+02  0.55131500351E+02 -0.78099068207E+02  0.11370669530E+03  0.47000000000E+01 0. -1.
        -11    1    4    4    0    0 -0.62235699825E+01 -0.31224439014E+02 -0.94235892090E+02  0.99469099589E+02  0.00000000000E+00 0.  1.
         12    1    4    4    0    0 -0.10921304860E+02  0.48316558500E+02 -0.25721245079E+03  0.26193894244E+03  0.00000000000E+00 0. -1.
         -5    1    5    5    0  502  0.62210480900E+02  0.24827252980E+02 -0.29702226157E+02  0.73422398919E+02  0.47000000000E+01 0.  1.
         11    1    6    6    0    0 -0.49677425346E+01 -0.34173114855E+02 -0.10185394014E+02  0.36003090090E+02  0.00000000000E+00 0. -1.
        -12    1    6    6    0    0  0.21287605204E+02 -0.62877757963E+02 -0.17620676879E+03  0.18829657445E+03  0.00000000000E+00 0.  1.
</event>
<event>
12    1  0.1629553E-001  0.1838491E+03  0.7818608E-02  0.1164312E+00
         21   -1    0    0  501  502  0.00000000000E+00  0.00000000000E+00  0.56436806501E+02  0.56436806501E+02  0.00000000000E+00 0.  1.
         21   -1    0    0  502  503 -0.00000000000E+00 -0.00000000000E+00 -0.11651532545E+04  0.11651532545E+04  0.00000000000E+00 0.  1.
         -6    2    1    2    0  503  0.48875572587E+02 -0.41695249428E+02 -0.98050677958E+03  0.99745120830E+03  0.17142943951E+03 0.  0.
        -24    2    3    3    0    0 -0.39163407494E+02 -0.17970013058E+02 -0.54225514040E+03  0.54979024496E+03  0.79824697398E+02 0.  0.
          6    2    1    2  501    0 -0.48875572587E+02  0.41695249428E+02 -0.12820966846E+03  0.22413885273E+03  0.17225908045E+03 0.  0.
         24    2    5    5    0    0 -0.18031199755E+02  0.51217183065E+02 -0.15438007249E+03  0.18231753517E+03  0.80362633370E+02 0.  0.
          5    1    5    5  501    0 -0.30844372833E+02 -0.95219336372E+01  0.26170404032E+02  0.41821317564E+02  0.47000000000E+01 0. -1.
        -11    1    6    6    0    0 -0.27758173222E+02  0.58383987181E+02 -0.63428578334E+02  0.90567050793E+02  0.00000000000E+00 0.  1.
         12    1    6    6    0    0  0.97269734668E+01 -0.71668041158E+01 -0.90951494157E+02  0.91750484377E+02  0.00000000000E+00 0. -1.
         -5    1    3    3    0  503  0.88038980081E+02 -0.23725236370E+02 -0.43825163918E+03  0.44766096334E+03  0.47000000000E+01 0.  1.
         11    1    4    4    0    0 -0.52618332878E+02  0.60743405615E+01 -0.21703216468E+03  0.22340220920E+03  0.00000000000E+00 0. -1.
        -12    1    4    4    0    0  0.13454925384E+02 -0.24044353620E+02 -0.32522297571E+03  0.32638803577E+03  0.00000000000E+00 0.  1.
</event>
<event>
12    1  0.1629553E-001  0.2448596E+03  0.7818608E-02  0.1116906E+00
         21   -1    0    0  503  502  0.00000000000E+00  0.00000000000E+00  0.15524953978E+03  0.15524953978E+03  0.00000000000E+00 0.  1.
         21   -1    0    0  501  503 -0.00000000000E+00 -0.00000000000E+00 -0.57266112888E+03  0.57266112888E+03  0.00000000000E+00 0. -1.
          6    2    1    2  501    0  0.71410565407E+01 -0.17352564819E+03 -0.41750188723E+03  0.48305104069E+03  0.16990684745E+03 0.  0.
         24    2    3    3    0    0  0.58354877263E+02 -0.67567477234E+02 -0.15682059790E+03  0.19699717508E+03  0.79022347379E+02 0.  0.
         -6    2    1    2    0  502 -0.71410565407E+01  0.17352564819E+03  0.90298122793E-01  0.24485962796E+03  0.17260962889E+03 0.  0.
        -24    2    5    5    0    0  0.15834957740E+01  0.19608655886E+03 -0.20434698693E+02  0.21278973557E+03  0.80059032143E+02 0.  0.
          5    1    3    3  501    0 -0.51213820722E+02 -0.10595817095E+03 -0.26068128933E+03  0.28605386561E+03  0.47000000000E+01 0. -1.
        -11    1    4    4    0    0  0.16911949755E+02  0.15066798214E+02 -0.13256554919E+02  0.26244212720E+02  0.00000000000E+00 0.  1.
         12    1    4    4    0    0  0.41442927507E+02 -0.82634275448E+02 -0.14356404298E+03  0.17075296236E+03  0.00000000000E+00 0. -1.
         -5    1    5    5    0  502 -0.87245523146E+01 -0.22560910679E+02  0.20524996815E+02  0.32069892392E+02  0.47000000000E+01 0.  1.
         13    1    6    6    0    0 -0.12402026504E+02  0.62434680542E+02 -0.42597574535E+02  0.76592773498E+02  0.00000000000E+00 0. -1.
        -14    1    6    6    0    0  0.13985522278E+02  0.13365187832E+03  0.22162875842E+02  0.13619696207E+03  0.00000000000E+00 0.  1.
</event>
<event>
12    1  0.1629553E-001  0.1738744E+03  0.7818608E-02  0.1176326E+00
         21   -1    0    0  501  502  0.00000000000E+00  0.00000000000E+00  0.18798897100E+03  0.18798897100E+03  0.00000000000E+00 0. -1.
         21   -1    0    0  502  503 -0.00000000000E+00 -0.00000000000E+00 -0.15228591025E+03  0.15228591025E+03  0.00000000000E+00 0. -1.
         -6    2    1    2    0  503  0.31246615593E+02  0.32897468525E+02  0.14677028633E+02  0.17449274802E+03  0.16785025923E+03 0.  0.
        -24    2    3    3    0    0  0.81932640098E+01  0.14799702033E+02  0.71437414774E+02  0.11043950762E+03  0.82507089749E+02 0.  0.
          6    2    1    2  501    0 -0.31246615593E+02 -0.32897468525E+02  0.21026032123E+02  0.16578213322E+03  0.15806020134E+03 0.  0.
         24    2    5    5    0    0 -0.53838492071E+02  0.27140061726E+02  0.12174006989E+02  0.10085643515E+03  0.79929017798E+02 0.  0.
          5    1    5    5  501    0  0.22591876478E+02 -0.60037530251E+02  0.88520251340E+01  0.64925698074E+02  0.47000000000E+01 0. -1.
        -13    1    6    6    0    0 -0.58624276813E+02  0.14317726009E+02 -0.21851335858E+02  0.64181648380E+02  0.00000000000E+00 0.  1.
         14    1    6    6    0    0  0.47857847425E+01  0.12822335717E+02  0.34025342847E+02  0.36674786771E+02  0.00000000000E+00 0. -1.
         -5    1    3    3    0  503  0.23053351583E+02  0.18097766492E+02 -0.56760386141E+02  0.64053240403E+02  0.47000000000E+01 0.  1.
         11    1    4    4    0    0 -0.19921218780E+02  0.28581929816E+02  0.27446389855E+01  0.34947313385E+02  0.00000000000E+00 0. -1.
        -12    1    4    4    0    0  0.28114482790E+02 -0.13782227783E+02  0.68692775788E+02  0.75492194237E+02  0.00000000000E+00 0.  1.
</event>
<event>
12    1  0.1629553E-001  0.2094488E+03  0.7818608E-02  0.1142139E+00
         21   -1    0    0  501  502  0.00000000000E+00  0.00000000000E+00  0.87791945175E+03  0.87791945175E+03  0.00000000000E+00 0.  1.
         21   -1    0    0  502  503 -0.00000000000E+00 -0.00000000000E+00 -0.50740545080E+02  0.50740545080E+02  0.00000000000E+00 0.  1.
         -6    2    1    2    0  503 -0.71676687905E+02  0.94454201759E+02  0.34994066120E+03  0.40748331671E+03  0.17182852852E+03 0.  0.
        -24    2    3    3    0    0 -0.26339967887E+02  0.11361222644E+03  0.32120875886E+03  0.35029887561E+03  0.77024045452E+02 0.  0.
          6    2    1    2  501    0  0.71676687905E+02 -0.94454201759E+02  0.47723824547E+03  0.52117668012E+03  0.17265469917E+03 0.  0.
         24    2    5    5    0    0  0.84001554425E+01 -0.66709805888E+00  0.30292957513E+03  0.31331724941E+03  0.79563582481E+02 0.  0.
          5    1    5    5  501    0  0.63276532463E+02 -0.93787103700E+02  0.17430867033E+03  0.20785943071E+03  0.47000000000E+01 0. -1.
        -13    1    6    6    0    0  0.31388153237E+02  0.28394136541E+02  0.18092923900E+03  0.18581397332E+03  0.00000000000E+00 0.  1.
         14    1    6    6    0    0 -0.22987997794E+02 -0.29061234600E+02  0.12200033613E+03  0.12750327610E+03  0.00000000000E+00 0. -1.
         -5    1    3    3    0  503 -0.45336720018E+02 -0.19158024683E+02  0.28731902338E+02  0.57184441099E+02  0.47000000000E+01 0.  1.
         13    1    4    4    0    0 -0.49368864566E+02  0.52410564454E+02  0.20017305792E+03  0.21272847757E+03  0.00000000000E+00 0. -1.
        -14    1    4    4    0    0  0.23028896679E+02  0.61201661988E+02  0.12103570095E+03  0.13757039804E+03  0.00000000000E+00 0.  1.
</event>
<event>
12    1  0.1629553E-001  0.2221016E+03  0.7818608E-02  0.1134546E+00
         21   -1    0    0  503  502  0.00000000000E+00  0.00000000000E+00  0.70536815340E+03  0.70536815340E+03  0.00000000000E+00 0.  1.
         21   -1    0    0  501  503 -0.00000000000E+00 -0.00000000000E+00 -0.18931169513E+03  0.18931169513E+03  0.00000000000E+00 0. -1.
          6    2    1    2  501    0 -0.79789372989E+02 -0.11606952025E+03 -0.10497762314E+03  0.23512511676E+03  0.15628512916E+03 0.  0.
         24    2    3    3    0    0 -0.51069388747E+02 -0.13709622604E+03 -0.59322132699E+02  0.17704350470E+03  0.80136318023E+02 0.  0.
         -6    2    1    2    0  502  0.79789372989E+02  0.11606952025E+03  0.62103408142E+03  0.65955473177E+03  0.17172837956E+03 0.  0.
        -24    2    5    5    0    0  0.77666598370E+02  0.13574342138E+02  0.24733384528E+03  0.27201928281E+03  0.81265588878E+02 0.  0.
          5    1    3    3  501    0 -0.28719984241E+02  0.21026705791E+02 -0.45655490446E+02  0.58081612056E+02  0.47000000000E+01 0. -1.
        -13    1    4    4    0    0 -0.15696031788E+01  0.27659783022E+01  0.12009265750E+02  0.12423234441E+02  0.00000000000E+00 0.  1.
         14    1    4    4    0    0 -0.49499785569E+02 -0.13986220435E+03 -0.71331398449E+02  0.16462027026E+03  0.00000000000E+00 0. -1.
         -5    1    5    5    0  502  0.21227746183E+01  0.10249517812E+03  0.37370023614E+03  0.38753544896E+03  0.47000000000E+01 0.  1.
         13    1    6    6    0    0  0.93702775936E+02  0.14111586148E+02  0.22791593558E+03  0.24682994302E+03  0.00000000000E+00 0. -1.
        -14    1    6    6    0    0 -0.16036177566E+02 -0.53724401087E+00  0.19417909700E+02  0.25189339792E+02  0.00000000000E+00 0.  1.
</event>
<event>
12    1  0.1629553E-001  0.1831944E+03  0.7818608E-02  0.1164823E+00
         21   -1    0    0  503  502  0.00000000000E+00  0.00000000000E+00  0.43730348502E+03  0.43730348502E+03  0.00000000000E+00 0. -1.
         21   -1    0    0  501  503 -0.00000000000E+00 -0.00000000000E+00 -0.92722635525E+02  0.92722635525E+02  0.00000000000E+00 0. -1.
          6    2    1    2  501    0  0.62566148977E+02  0.23691638496E+02  0.61688017367E+02  0.19299714923E+03  0.17019597936E+03 0.  0.
         24    2    3    3    0    0  0.35852959667E+02 -0.19646152765E+02  0.95599839073E+02  0.13164684128E+03  0.80747480157E+02 0.  0.
         -6    2    1    2    0  502 -0.62566148977E+02 -0.23691638496E+02  0.28289283213E+03  0.33702897132E+03  0.17054136244E+03 0.  0.
        -24    2    5    5    0    0 -0.50641663624E+02 -0.44336641721E+02  0.71392552739E+02  0.12413729066E+03  0.76045081714E+02 0.  0.
          5    1    3    3  501    0  0.26713189310E+02  0.43337791261E+02 -0.33911821706E+02  0.61350307953E+02  0.47000000000E+01 0. -1.
        -13    1    4    4    0    0 -0.19806435931E+02  0.13050250761E+02  0.39742628484E+02  0.46282615182E+02  0.00000000000E+00 0.  1.
         14    1    4    4    0    0  0.55659395598E+02 -0.32696403526E+02  0.55857210589E+02  0.85364226094E+02  0.00000000000E+00 0. -1.
         -5    1    5    5    0  502 -0.11924485353E+02  0.20645003225E+02  0.21150027939E+03  0.21289168065E+03  0.47000000000E+01 0.  1.
         11    1    6    6    0    0 -0.48738986391E+02 -0.90645672583E+01  0.73606727112E+02  0.88744608005E+02  0.00000000000E+00 0. -1.
        -12    1    6    6    0    0 -0.19026772337E+01 -0.35272074463E+02 -0.22141743729E+01  0.35392682658E+02  0.00000000000E+00 0.  1.
</event>
<event>
12    1  0.1629553E-001  0.1817984E+03  0.7818608E-02  0.1166110E+00
         21   -1    0    0  501  502  0.00000000000E+00  0.00000000000E+00  0.40925108994E+02  0.40925108994E+02  0.00000000000E+00 0. -1.
         21   -1    0    0  502  503 -0.00000000000E+00 -0.00000000000E+00 -0.95000805874E+03  0.95000805874E+03  0.00000000000E+00 0. -1.
         -6    2    1    2    0  503  0.56203219825E+02  0.17968784132E+02 -0.64667077954E+03  0.67169842830E+03  0.17179639795E+03 0.  0.
        -24    2    3    3    0    0  0.62492975113E+02  0.56826698807E+02 -0.28213671961E+03  0.30501509161E+03  0.79362660764E+02 0.  0.
          6    2    1    2  501    0 -0.56203219825E+02 -0.17968784132E+02 -0.26241217021E+03  0.31923473944E+03  0.17195636850E+03 0.  0.
         24    2    5    5    0    0 -0.61137488736E+02 -0.12276952488E+02 -0.28096421479E+03  0.29866747624E+03  0.79830165219E+02 0.  0.
          5    1    5    5  501    0  0.49342689107E+01 -0.56918316436E+01  0.18552044583E+02  0.20567263196E+02  0.47000000000E+01 0. -1.
        -11    1    6    6    0    0 -0.32843819055E+02 -0.45680043213E+02 -0.13427083475E+03  0.14558172915E+03  0.00000000000E+00 0.  1.
         12    1    6    6    0    0 -0.28293669681E+02  0.33403090725E+02 -0.14669338004E+03  0.15308574709E+03  0.00000000000E+00 0. -1.
         -5    1    3    3    0  503 -0.62897552877E+01 -0.38857914675E+02 -0.36453405993E+03  0.36668333669E+03  0.47000000000E+01 0.  1.
         11    1    4    4    0    0  0.73745144203E+02  0.19611255923E+02 -0.20233638523E+03  0.21624745187E+03  0.00000000000E+00 0. -1.
        -12    1    4    4    0    0 -0.11252169090E+02  0.37215442884E+02 -0.79800334374E+02  0.88767639737E+02  0.00000000000E+00 0.  1.
</event>
<event>
12    1  0.1629553E-001  0.1950926E+03  0.7818608E-02  0.1154027E+00
         21   -1    0    0  501  502  0.00000000000E+00  0.00000000000E+00  0.13510953359E+03  0.13510953359E+03  0.00000000000E+00 0. -1.
         21   -1    0    0  502  503 -0.00000000000E+00 -0.00000000000E+00 -0.41092786971E+03  0.41092786971E+03  0.00000000000E+00 0. -1.
         -6    2    1    2    0  503 -0.81732778353E+02 -0.41101344995E+02 -0.29123485684E+03  0.35033664376E+03  0.17189663901E+03 0.  0.
        -24    2    3    3    0    0 -0.91017530287E+02 -0.22285462414E+02 -0.10235981184E+03  0.16024162363E+03  0.80118750666E+02 0.  0.
          6    2    1    2  501    0  0.81732778353E+02  0.41101344995E+02  0.15416520717E+02  0.19570075953E+03  0.17231236332E+03 0.  0.
         24    2    5    5    0    0 -0.87200756361E+01 -0.17615847121E+02 -0.15433376919E+02  0.83436635127E+02  0.79606062391E+02 0.  0.
          5    1    5    5  501    0  0.90452853989E+02  0.58717192116E+02  0.30849897636E+02  0.11226412441E+03  0.47000000000E+01 0. -1.
        -11    1    6    6    0    0  0.16500143945E+02 -0.25903326060E+02  0.21832856178E+02  0.37681701927E+02  0.00000000000E+00 0.  1.
         12    1    6    6    0    0 -0.25220219581E+02  0.82874789396E+01 -0.37266233098E+02  0.45754933201E+02  0.00000000000E+00 0. -1.
         -5    1    3    3    0  503  0.92847519336E+01 -0.18815882581E+02 -0.18887504500E+03  0.19009502013E+03  0.47000000000E+01 0.  1.
         13    1    4    4    0    0 -0.33050361133E+02 -0.40294632856E+02 -0.15682661428E+02  0.54423613235E+02  0.00000000000E+00 0. -1.
        -14    1    4    4    0    0 -0.57967169154E+02  0.18009170442E+02 -0.86677150415E+02  0.10581801039E+03  0.00000000000E+00 0.  1.
</event>
<event>
12    1  0.1629553E-001  0.2384326E+03  0.7818608E-02  0.1121170E+00
         21   -1    0    0  503  502  0.00000000000E+00  0.00000000000E+00  0.17781640527E+03  0.17781640527E+03  0.00000000000E+00 0.  1.
         21   -1    0    0  501  503 -0.00000000000E+00 -0.00000000000E+00 -0.37734973747E+03  0.37734973747E+03  0.00000000000E+00 0.  1.
          6    2    1    2  501    0 -0.13577974419E+03  0.85252092122E+02 -0.21033164284E+03  0.31648918768E+03  0.17384460819E+03 0.  0.
         24    2    3    3    0    0 -0.24223965870E+02  0.56841462863E+01 -0.34407653081E+02  0.93448631161E+02  0.83244519543E+02 0.  0.
         -6    2    1    2    0  502  0.13577974419E+03 -0.85252092122E+02  0.10798310640E+02  0.23867695507E+03  0.17648237086E+03 0.  0.
        -24    2    5    5    0    0  0.57291486712E+02 -0.92090813360E+02 -0.44874453196E+02  0.14209164923E+03  0.80083006170E+02 0.  0.
          5    1    3    3  501    0 -0.11155577832E+03  0.79567945836E+02 -0.17592398975E+03  0.22304055652E+03  0.47000000000E+01 0. -1.
        -11    1    4    4    0    0 -0.47874586175E+02  0.21769328876E+02 -0.37626998903E+02  0.64665838953E+02  0.00000000000E+00 0.  1.
         12    1    4    4    0    0  0.23650620305E+02 -0.16085182590E+02  0.32193458215E+01  0.28782792208E+02  0.00000000000E+00 0. -1.
         -5    1    5    5    0  502  0.78488257476E+02  0.68387212385E+01  0.55672763836E+02  0.96585305833E+02  0.47000000000E+01 0.  1.
         11    1    6    6    0    0  0.17747060260E+02 -0.44302061154E+01 -0.42080130860E+02  0.45883791118E+02  0.00000000000E+00 0. -1.
        -12    1    6    6    0    0  0.39544426451E+02 -0.87660607245E+02 -0.27943223358E+01  0.96207858116E+02  0.00000000000E+00 0.  1.
</event>
<event>
12    1  0.1629553E-001  0.2003340E+03  0.7818608E-02  0.1149564E+00
         21   -1    0    0  503  502  0.00000000000E+00  0.00000000000E+00  0.58201247283E+03  0.58201247283E+03  0.00000000000E+00 0.  1.
         21   -1    0    0  501  503 -0.00000000000E+00 -0.00000000000E+00 -0.71906393059E+02  0.71906393059E+02  0.00000000000E+00 0.  1.
          6    2    1    2  501    0 -0.10117199148E+03 -0.13329667142E+02  0.18659493909E+03  0.27340187795E+03  0.17180647160E+03 0.  0.
         24    2    3    3    0    0 -0.89623911681E+01  0.11510406914E+02  0.15081703742E+03  0.17131471951E+03  0.79938353888E+02 0.  0.
         -6    2    1    2    0  502  0.10117199148E+03  0.13329667142E+02  0.32351114068E+03  0.38051698794E+03  0.17239567302E+03 0.  0.
        -24    2    5    5    0    0  0.90285848201E+02  0.45916945402E+02  0.32121965407E+03  0.34576386245E+03  0.78170852362E+02 0.  0.
          5    1    3    3  501    0 -0.92209600316E+02 -0.24840074055E+02  0.35777901665E+02  0.10208715843E+03  0.47000000000E+01 0. -1.
        -13    1    4    4    0    0 -0.42169367521E+02  0.84120662926E+00  0.54753291492E+02  0.69115020907E+02  0.00000000000E+00 0.  1.
         14    1    4    4    0    0  0.33206976353E+02  0.10669200284E+02  0.96063745931E+02  0.10219969861E+03  0.00000000000E+00 0. -1.
         -5    1    5    5    0  502  0.10886143284E+02 -0.32587278260E+02  0.22914866122E+01  0.34753125484E+02  0.47000000000E+01 0.  1.
         13    1    6    6    0    0  0.32810448457E+02 -0.21596081891E+02  0.97546619247E+02  0.10515825791E+03  0.00000000000E+00 0. -1.
        -14    1    6    6    0    0  0.57475399743E+02  0.67513027292E+02  0.22367303482E+03  0.24060560454E+03  0.00000000000E+00 0.  1.
</event>
<event>
12    1  0.1629553E-001  0.2554370E+03  0.7818608E-02  0.1110296E+00
         21   -1    0    0  501  502  0.00000000000E+00  0.00000000000E+00  0.11783743002E+04  0.11783743002E+04  0.00000000000E+00 0.  1.
         21   -1    0    0  502  503 -0.00000000000E+00 -0.00000000000E+00 -0.92794215266E+02  0.92794215266E+02  0.00000000000E+00 0.  1.
         -6    2    1    2    0  503 -0.16263289014E+03  0.89506284675E+02  0.94772101562E+03  0.98090451310E+03  0.17186537879E+03 0.  0.
        -24    2    3    3    0    0 -0.64376383368E+02 -0.21580240871E+02  0.35429373162E+03  0.36920802899E+03  0.78616123500E+02 0.  0.
          6    2    1    2  501    0  0.16263289014E+03 -0.89506284675E+02  0.13785906933E+03  0.29026400237E+03  0.17546291952E+03 0.  0.
         24    2    5    5    0    0  0.33592728782E+01 -0.29213919112E+02  0.48971593679E+02  0.98101758874E+02  0.79755879549E+02 0.  0.
          5    1    5    5  501    0  0.15927361726E+03 -0.60292365563E+02  0.88887475647E+02  0.19216224350E+03  0.47000000000E+01 0. -1.
        -11    1    6    6    0    0  0.37601464319E+02 -0.16103074233E+02  0.45634799987E+02  0.61283881148E+02  0.00000000000E+00 0.  1.
         12    1    6    6    0    0 -0.34242191441E+02 -0.13110844880E+02  0.33367936915E+01  0.36817877726E+02  0.00000000000E+00 0. -1.
         -5    1    3    3    0  503 -0.98256506771E+02  0.11108652555E+03  0.59342728399E+03  0.61169648411E+03  0.47000000000E+01 0.  1.
         13    1    4    4    0    0 -0.25319011095E+02 -0.29529952803E+02  0.55537756041E+02  0.67804961334E+02  0.00000000000E+00 0. -1.
        -14    1    4    4    0    0 -0.39057372272E+02  0.79497119324E+01  0.29875597558E+03  0.30140306766E+03  0.00000000000E+00 0.  1.
</event>
<event>
12    1  0.1629553E-001  0.1964319E+03  0.7818608E-02  0.1153107E+00
         21   -1    0    0  503  502  0.00000000000E+00  0.00000000000E+00  0.38457856516E+03  0.38457856516E+03  0.00000000000E+00 0.  1.
         21   -1    0    0  501  503 -0.00000000000E+00 -0.00000000000E+00 -0.94847933275E+03  0.94847933275E+03  0.00000000000E+00 0.  1.
          6    2    1    2  501    0  0.92454612177E+02 -0.12806227197E+02 -0.91240921869E+03  0.93300337729E+03  0.17115158461E+03 0.  0.
         24    2    3    3    0    0  0.10934025189E+03 -0.20321943062E+01 -0.44388078674E+03  0.46402343512E+03  0.79549827188E+02 0.  0.
         -6    2    1    2    0  502 -0.92454612177E+02  0.12806227197E+02  0.34850845110E+03  0.40005452062E+03  0.17283988027E+03 0.  0.
        -24    2    5    5    0    0  0.18455204696E+02  0.10492895155E+02  0.18988875828E+03  0.20643469742E+03  0.78146326533E+02 0.  0.
          5    1    3    3  501    0 -0.16885639709E+02 -0.10774032890E+02 -0.46852843194E+03  0.46897994216E+03  0.47000000000E+01 0. -1.
        -13    1    4    4    0    0  0.39744851486E+02  0.11966991546E+02 -0.30734770356E+03  0.31013782902E+03  0.00000000000E+00 0.  1.
         14    1    4    4    0    0  0.69595400400E+02 -0.13999185852E+02 -0.13653308319E+03  0.15388560610E+03  0.00000000000E+00 0. -1.
         -5    1    5    5    0  502 -0.11090981687E+03  0.23133320419E+01  0.15861969282E+03  0.19361982320E+03  0.47000000000E+01 0.  1.
         11    1    6    6    0    0  0.34759696108E+02 -0.18515077261E+02  0.55929542796E+02  0.68404373521E+02  0.00000000000E+00 0. -1.
        -12    1    6    6    0    0 -0.16304491411E+02  0.29007972416E+02  0.13395921548E+03  0.13803032390E+03  0.00000000000E+00 0.  1.
</event>
<event>
12    1  0.1629553E-001  0.2297588E+03  0.7818608E-02  0.1126997E+00
         21   -1    0    0  501  502  0.00000000000E+00  0.00000000000E+00  0.74542719619E+02  0.74542719619E+02  0.00000000000E+00 0. -1.
         21   -1    0    0  502  503 -0.00000000000E+00 -0.00000000000E+00 -0.73054635890E+03  0.73054635890E+03  0.00000000000E+00 0.  1.
         -6    2    1    2    0  503 -0.13545231830E+03 -0.69189911058E+02 -0.25185318033E+03  0.34019479104E+03  0.17078611501E+03 0.  0.
        -24    2    3    3    0    0 -0.14691403516E+02 -0.45545600579E+02 -0.16525621495E+03  0.18965118815E+03  0.79797979402E+02 0.  0.
          6    2    1    2  501    0  0.13545231830E+03  0.69189911058E+02 -0.40415045895E+03  0.46489428748E+03  0.17220490915E+03 0.  0.
         24    2    5    5    0    0  0.26419603142E+01  0.10369964403E+01 -0.12942711956E+03  0.15219888590E+03  0.80031657969E+02 0.  0.
          5    1    5    5  501    0  0.13281035799E+03  0.68152914617E+02 -0.27472333939E+03  0.31269540158E+03  0.47000000000E+01 0. -1.
        -13    1    6    6    0    0  0.35297890097E+02 -0.21799349675E+01 -0.10636797610E+03  0.11209299488E+03  0.00000000000E+00 0.  1.
         14    1    6    6    0    0 -0.32655929783E+02  0.32169314078E+01 -0.23059143456E+02  0.40105891021E+02  0.00000000000E+00 0. -1.
         -5    1    3    3    0  503 -0.12076091479E+03 -0.23644310478E+02 -0.86596965380E+02  0.15054360289E+03  0.47000000000E+01 0.  1.
         11    1    4    4    0    0  0.22324962060E+02 -0.30573456251E+01 -0.10317397970E+02  0.24783058611E+02  0.00000000000E+00 0. -1.
        -12    1    4    4    0    0 -0.37016365576E+02 -0.42488254954E+02 -0.15493881698E+03  0.16486812954E+03  0.00000000000E+00 0.  1.
</event>
<event>
12    1  0.1629553E-001  0.2025374E+03  0.7818608E-02  0.1147851E+00
         21   -1    0    0  501  502  0.00000000000E+00  0.00000000000E+00  0.36071250013E+02  0.36071250013E+02  0.00000000000E+00 0. -1.
         21   -1    0    0  502  503 -0.00000000000E+00 -0.00000000000E+00 -0.11308818532E+04  0.11308818532E+04  0.00000000000E+00 0. -1.
         -6    2    1    2    0  503 -0.85358328555E+02 -0.63040629424E+02 -0.54969623987E+03  0.58582194167E+03  0.17251442260E+03 0.  0.
        -24    2    3    3    0    0 -0.42207733089E+02  0.33720174271E+02 -0.20628784283E+03  0.22641125155E+03  0.76084412600E+02 0.  0.
          6    2    1    2  501    0  0.85358328555E+02  0.63040629424E+02 -0.54511436329E+03  0.58113116151E+03  0.17118292148E+03 0.  0.
         24    2    5    5    0    0 -0.11650692817E+02  0.65612738500E+02 -0.25468070561E+03  0.27487772809E+03  0.79086873068E+02 0.  0.
          5    1    5    5  501    0  0.97009021371E+02 -0.25721090759E+01 -0.29043365768E+03  0.30625343343E+03  0.47000000000E+01 0. -1.
        -13    1    6    6    0    0  0.19479832109E+02  0.55617740420E+02 -0.94308257313E+02  0.11120631415E+03  0.00000000000E+00 0.  1.
         14    1    6    6    0    0 -0.31130524925E+02  0.99949980792E+01 -0.16037244830E+03  0.16367141394E+03  0.00000000000E+00 0. -1.
         -5    1    3    3    0  503 -0.43150595466E+02 -0.96760803694E+02 -0.34340839704E+03  0.35941069013E+03  0.47000000000E+01 0.  1.
         11    1    4    4    0    0 -0.45201487919E+02  0.18464092952E+02 -0.20508544367E+03  0.21081778019E+03  0.00000000000E+00 0. -1.
        -12    1    4    4    0    0  0.29937548300E+01  0.15256081319E+02 -0.12023991621E+01  0.15593471356E+02  0.00000000000E+00 0.  1.
</event>
<event>
12    1  0.1629553E-001  0.1843076E+03  0.7818608E-02  0.1167328E+00
         21   -1    0    0  503  502  0.00000000000E+00  0.00000000000E+00  0.19963396007E+02  0.19963396007E+02  0.00000000000E+00 0.  1.
         21   -1    0    0  501  503 -0.00000000000E+00 -0.00000000000E+00 -0.15732126229E+04  0.15732126229E+04  0.00000000000E+00 0.  1.
          6    2    1    2  501    0 -0.30422061806E+02 -0.58668795385E+02 -0.76191226911E+03  0.78388747883E+03  0.17205157440E+03 0.  0.
         24    2    3    3    0    0  0.48651318303E+02 -0.19863918488E+02 -0.34496256746E+03  0.35770962674E+03  0.78711359282E+02 0.  0.
         -6    2    1    2    0  502  0.30422061806E+02  0.58668795385E+02 -0.79133695781E+03  0.80928854011E+03  0.15609686399E+03 0.  0.
        -24    2    5    5    0    0  0.29770823607E+02  0.79689596903E+02 -0.76524935207E+03  0.77545140989E+03  0.92095518163E+02 0.  0.
          5    1    3    3  501    0 -0.79073380110E+02 -0.38804876896E+02 -0.41694970165E+03  0.42617785210E+03  0.47000000000E+01 0. -1.
        -11    1    4    4    0    0  0.54243808324E+02 -0.43890861437E+02 -0.26461888501E+03  0.27366394129E+03  0.00000000000E+00 0.  1.
         12    1    4    4    0    0 -0.55924900214E+01  0.24026942948E+02 -0.80343682454E+02  0.84045685448E+02  0.00000000000E+00 0. -1.
         -5    1    5    5    0  502  0.65123819977E+00 -0.21020801518E+02 -0.26087605742E+02  0.33837130212E+02  0.47000000000E+01 0.  1.
         11    1    6    6    0    0 -0.16668427168E+02 -0.11901399744E+02 -0.19073128697E+03  0.19182779676E+03  0.00000000000E+00 0. -1.
        -12    1    6    6    0    0  0.46439250775E+02  0.91590996646E+02 -0.57451806510E+03  0.58362361313E+03  0.00000000000E+00 0.  1.
</event>
<event>
12    1  0.1629553E-001  0.1849375E+03  0.7818608E-02  0.1163236E+00
         21   -1    0    0  503  502  0.00000000000E+00  0.00000000000E+00  0.23957264214E+03  0.23957264214E+03  0.00000000000E+00 0. -1.
         21   -1    0    0  501  503 -0.00000000000E+00 -0.00000000000E+00 -0.46439151011E+03  0.46439151011E+03  0.00000000000E+00 0. -1.
          6    2    1    2  501    0  0.21654721076E+02 -0.64548401464E+02 -0.40547491647E+03  0.44543273776E+03  0.17136216883E+03 0.  0.
         24    2    3    3    0    0  0.42852152350E+02  0.22306621718E+02 -0.23533656951E+03  0.25317698817E+03  0.79883628209E+02 0.  0.
         -6    2    1    2    0  502 -0.21654721076E+02  0.64548401464E+02  0.18065604850E+03  0.25853141450E+03  0.17194900798E+03 0.  0.
        -24    2    5    5    0    0 -0.59898388808E+02  0.72074606915E+02  0.70573380297E+02  0.14165752636E+03  0.79395760737E+02 0.  0.
          5    1    3    3  501    0 -0.21197431275E+02 -0.86855023182E+02 -0.17013834696E+03  0.19225574959E+03  0.47000000000E+01 0. -1.
        -13    1    4    4    0    0 -0.19107709824E+02  0.21274757168E+01 -0.18202045873E+02  0.26475369716E+02  0.00000000000E+00 0.  1.
         14    1    4    4    0    0  0.61959862174E+02  0.20179146002E+02 -0.21713452364E+03  0.22670161845E+03  0.00000000000E+00 0. -1.
         -5    1    5    5    0  502  0.38243667732E+02 -0.75262054517E+01  0.11008266820E+03  0.11687388814E+03  0.47000000000E+01 0.  1.
         13    1    6    6    0    0 -0.47369840508E+02  0.84298420321E+02  0.76371599587E+02  0.12321828875E+03  0.00000000000E+00 0. -1.
        -14    1    6    6    0    0 -0.12528548300E+02 -0.12223813405E+02 -0.57982192899E+01  0.18439237609E+02  0.00000000000E+00 0.  1.
</event>
<event>
12    1  0.1629553E-001  0.1866107E+03  0.7818608E-02  0.1161752E+00
         21   -1    0    0  503  502  0.00000000000E+00  0.00000000000E+00  0.38672568214E+03  0.38672568214E+03  0.00000000000E+00 0.  1.
         21   -1    0    0  501  503 -0.00000000000E+00 -0.00000000000E+00 -0.92845738466E+02  0.92845738466E+02  0.00000000000E+00 0.  1.
          6    2    1    2  501    0  0.70873946701E+02  0.10456057023E+02  0.19185236493E+03  0.26763945457E+03  0.17231106252E+03 0.  0.
         24    2    3    3    0    0  0.54995300052E+02  0.10035186455E+02  0.25381075325E+02  0.10034603326E+03  0.79372157664E+02 0.  0.
         -6    2    1    2    0  502 -0.70873946701E+02 -0.10456057023E+02  0.10202757875E+03  0.21193196604E+03  0.17138578107E+03 0.  0.
        -24    2    5    5    0    0 -0.22799486469E+02 -0.31041556987E+02  0.12683889060E+03  0.15385780887E+03  0.78107146527E+02 0.  0.
          5    1    3    3  501    0  0.15878646649E+02  0.42087056807E+00  0.16647128960E+03  0.16729342131E+03  0.47000000000E+01 0. -1.
        -11    1    4    4    0    0  0.21940675611E+02  0.22893536020E+01  0.52466422120E+02  0.56915374340E+02  0.00000000000E+00 0.  1.
         12    1    4    4    0    0  0.33054624441E+02  0.77458328526E+01 -0.27085346796E+02  0.43430658923E+02  0.00000000000E+00 0. -1.
         -5    1    5    5    0  502 -0.48074460232E+02  0.20585499964E+02 -0.24811311846E+02  0.58074157169E+02  0.47000000000E+01 0.  1.
         13    1    6    6    0    0 -0.21112893759E+02 -0.30788529934E+02  0.12299977376E+02  0.39306199280E+02  0.00000000000E+00 0. -1.
        -14    1    6    6    0    0 -0.16865927100E+01 -0.25302705256E+00  0.11453891322E+03  0.11455160959E+03  0.00000000000E+00 0.  1.
</event>
<event>
12    1  0.1629553E-001  0.1884375E+03  0.7818608E-02  0.1160067E+00
         21   -1    0    0  501  502  0.00000000000E+00  0.00000000000E+00  0.10265083625E+03  0.10265083625E+03  0.00000000000E+00 0. -1.
         21   -1    0    0  502  503 -0.00000000000E+00 -0.00000000000E+00 -0.42509662838E+03  0.42509662838E+03  0.00000000000E+00 0.  1.
         -6    2    1    2    0  503  0.18991002488E+02  0.72590844286E+02 -0.27647493319E+03  0.33458496146E+03  0.17285432857E+03 0.  0.
        -24    2    3    3    0    0 -0.26225139858E+02  0.90329030723E+02 -0.25031665159E+03  0.27921810781E+03  0.80356915784E+02 0.  0.
          6    2    1    2  501    0 -0.18991002488E+02 -0.72590844286E+02 -0.45970858940E+02  0.19316250317E+03  0.17195448209E+03 0.  0.
         24    2    5    5    0    0  0.36774593798E+02 -0.84784168385E+02 -0.17766115130E+01  0.12081818489E+03  0.77802001863E+02 0.  0.
          5    1    5    5  501    0 -0.55765596287E+02  0.12193324100E+02 -0.44194247427E+02  0.72344318280E+02  0.47000000000E+01 0. -1.
        -13    1    6    6    0    0 -0.13520038035E+02 -0.59866931512E+02 -0.14939790934E+02  0.63166749721E+02  0.00000000000E+00 0.  1.
         14    1    6    6    0    0  0.50294631834E+02 -0.24917236873E+02  0.13163179421E+02  0.57651435170E+02  0.00000000000E+00 0. -1.
         -5    1    3    3    0  503  0.45216142346E+02 -0.17738186437E+02 -0.26158281598E+02  0.55366853648E+02  0.47000000000E+01 0.  1.
         13    1    4    4    0    0 -0.15417501009E+01  0.93599245624E+02 -0.15844962447E+03  0.18403662481E+03  0.00000000000E+00 0. -1.
        -14    1    4    4    0    0 -0.24683389757E+02 -0.32702149016E+01 -0.91867027121E+02  0.95181483007E+02  0.00000000000E+00 0.  1.
</event>
<event>
12    1  0.1629553E-001  0.2401395E+03  0.7818608E-02  0.1119943E+00
         21   -1    0    0  501  502  0.00000000000E+00  0.00000000000E+00  0.92631935570E+02  0.92631935570E+02  0.00000000000E+00 0. -1.
         21   -1    0    0  502  503 -0.00000000000E+00 -0.00000000000E+00 -0.62717741807E+03  0.62717741807E+03  0.00000000000E+00 0.  1.
         -6    2    1    2    0  503  0.11615394887E+03 -0.12176419310E+03 -0.30974228829E+03  0.39192764698E+03  0.17131473011E+03 0.  0.
        -24    2    3    3    0    0  0.37807117544E+02 -0.42530871796E+01 -0.62084525399E+02  0.10678988464E+03  0.78116094878E+02 0.  0.
          6    2    1    2  501    0 -0.11615394887E+03  0.12176419310E+03 -0.22480319421E+03  0.32788170666E+03  0.16926806809E+03 0.  0.
         24    2    5    5    0    0 -0.60381664679E+02  0.14656575083E+03 -0.18905056514E+03  0.25698738083E+03  0.71937007034E+02 0.  0.
          5    1    5    5  501    0 -0.55772284190E+02 -0.24801557725E+02 -0.35752629072E+02  0.70894325830E+02  0.47000000000E+01 0. -1.
        -13    1    6    6    0    0 -0.33511092820E+02  0.43200289499E+02 -0.11406396038E+03  0.12649049535E+03  0.00000000000E+00 0.  1.
         14    1    6    6    0    0 -0.26870571859E+02  0.10336546133E+03 -0.74986604754E+02  0.13049688548E+03  0.00000000000E+00 0. -1.
         -5    1    3    3    0  503  0.78346831325E+02 -0.11751110592E+03 -0.24765776289E+03  0.28513776234E+03  0.47000000000E+01 0.  1.
         13    1    4    4    0    0  0.38020862701E+02 -0.26791857223E+02 -0.66972326804E+01  0.46991941220E+02  0.00000000000E+00 0. -1.
        -14    1    4    4    0    0 -0.21374515779E+00  0.22538770044E+02 -0.55387292718E+02  0.59797943416E+02  0.00000000000E+00 0.  1.
</event>
<event>
12    1  0.1629553E-001  0.2808500E+03  0.7818608E-02  0.1095265E+00
         21   -1    0    0  503  502  0.00000000000E+00  0.00000000000E+00  0.59674900706E+03  0.59674900706E+03  0.00000000000E+00 0.  1.
         21   -1    0    0  501  503 -0.00000000000E+00 -0.00000000000E+00 -0.15129734675E+04  0.15129734675E+04  0.00000000000E+00 0. -1.
          6    2    1    2  501    0  0.18732079810E+03  0.11873295127E+03 -0.14658722777E+04  0.14924790708E+04  0.17183028523E+03 0.  0.
         24    2    3    3    0    0  0.20706691522E+03  0.92198611046E+02 -0.11524366414E+04  0.11772680804E+04  0.80452652658E+02 0.  0.
         -6    2    1    2    0  502 -0.18732079810E+03 -0.11873295127E+03  0.54964781731E+03  0.61724340377E+03  0.17230815800E+03 0.  0.
        -24    2    5    5    0    0 -0.78011927396E+02 -0.38323221609E+02  0.12821149740E+03  0.17447392021E+03  0.80302121001E+02 0.  0.
          5    1    3    3  501    0 -0.19746117113E+02  0.26534340226E+02 -0.31343563635E+03  0.31521099042E+03  0.47000000000E+01 0. -1.
        -11    1    4    4    0    0  0.18798268436E+02 -0.41762457638E+01 -0.34591936337E+02  0.39590630008E+02  0.00000000000E+00 0.  1.
         12    1    4    4    0    0  0.18826864678E+03  0.96374856810E+02 -0.11178447051E+04  0.11376774503E+04  0.00000000000E+00 0. -1.
         -5    1    5    5    0  502 -0.10930887071E+03 -0.80409729663E+02  0.42143631991E+03  0.44276948357E+03  0.47000000000E+01 0.  1.
         13    1    6    6    0    0 -0.22823815914E+02 -0.10886964473E+02  0.10598001181E+03  0.10895510760E+03  0.00000000000E+00 0. -1.
        -14    1    6    6    0    0 -0.55188111482E+02 -0.27436257136E+02  0.22231485590E+02  0.65518812612E+02  0.00000000000E+00 0.  1.
</event>
<event>
12    1  0.1629553E-001  0.2255274E+03  0.7818608E-02  0.1130009E+00
         21   -1    0    0  503  502  0.00000000000E+00  0.00000000000E+00  0.62341038303E+02  0.62341038303E+02  0.00000000000E+00 0.  1.
         21   -1    0    0  501  503 -0.00000000000E+00 -0.00000000000E+00 -0.10322821789E+04  0.10322821789E+04  0.00000000000E+00 0. -1.
          6    2    1    2  501    0 -0.14336918745E+03  0.20403929334E+02 -0.73680308837E+03  0.77025310546E+03  0.17158091736E+03 0.  0.
         24    2    3    3    0    0 -0.66699836071E+02  0.49110075376E+02 -0.23678347672E+03  0.26355404853E+03  0.80831021357E+02 0.  0.
         -6    2    1    2    0  502  0.14336918745E+03 -0.20403929334E+02 -0.23313805220E+03  0.32437011171E+03  0.17289179780E+03 0.  0.
        -24    2    5    5    0    0  0.10540643641E+03 -0.60997151393E+02 -0.22474517280E+03  0.26796523100E+03  0.80397779896E+02 0.  0.
          5    1    3    3  501    0 -0.76669351376E+02 -0.28706146041E+02 -0.50001961165E+03  0.50669905694E+03  0.47000000000E+01 0. -1.
        -13    1    4    4    0    0 -0.72792154936E+02  0.61818620917E+02 -0.22735423710E+03  0.24659721985E+03  0.00000000000E+00 0.  1.
         14    1    4    4    0    0  0.60923188646E+01 -0.12708545541E+02 -0.94292396174E+01  0.16956828674E+02  0.00000000000E+00 0. -1.
         -5    1    5    5    0  502  0.37962751040E+02  0.40593222059E+02 -0.83928793966E+01  0.56404880713E+02  0.47000000000E+01 0.  1.
         13    1    6    6    0    0  0.90173958248E+02 -0.78255458164E+01 -0.14438361192E+03  0.17040894725E+03  0.00000000000E+00 0. -1.
        -14    1    6    6    0    0  0.15232478159E+02 -0.53171605577E+02 -0.80361560882E+02  0.97556283744E+02  0.00000000000E+00 0.  1.
</event>
<event>
12    1  0.1629553E-001  0.2062068E+03  0.7818608E-02  0.1144900E+00
         21   -1    0    0  501  502  0.00000000000E+00  0.00000000000E+00  0.12247744401E+04  0.12247744401E+04  0.00000000000E+00 0. -1.
         21   -1    0    0  502  503 -0.00000000000E+00 -0.00000000000E+00 -0.35001442825E+02  0.35001442825E+02  0.00000000000E+00 0. -1.
         -6    2    1    2    0  503 -0.66913899195E+02  0.89152954553E+02  0.51967722095E+03  0.55909361625E+03  0.17348065755E+03 0.  0.
        -24    2    3    3    0    0 -0.11051694611E+03  0.81309317014E+02  0.44356089864E+03  0.47089762500E+03  0.78569090741E+02 0.  0.
          6    2    1    2  501    0  0.66913899195E+02 -0.89152954553E+02  0.67009577631E+03  0.70068226666E+03  0.17176021127E+03 0.  0.
         24    2    5    5    0    0 -0.27678653187E+02 -0.60085707046E+02  0.39603058185E+03  0.40926079069E+03  0.79232398685E+02 0.  0.
          5    1    5    5  501    0  0.94592552382E+02 -0.29067247507E+02  0.27406519446E+03  0.29142147597E+03  0.47000000000E+01 0. -1.
        -11    1    6    6    0    0 -0.31733900447E+02 -0.60148236206E+02  0.16866587270E+03  0.18185991139E+03  0.00000000000E+00 0.  1.
         12    1    6    6    0    0  0.40552472606E+01  0.62529159527E-01  0.22736470915E+03  0.22740087930E+03  0.00000000000E+00 0. -1.
         -5    1    3    3    0  503  0.43603046913E+02  0.78436375392E+01  0.76116322314E+02  0.88195991250E+02  0.47000000000E+01 0.  1.
         13    1    4    4    0    0 -0.38020930174E+02  0.58577512135E+02  0.30480547627E+03  0.31270320501E+03  0.00000000000E+00 0. -1.
        -14    1    4    4    0    0 -0.72496015934E+02  0.22731804879E+02  0.13875542236E+03  0.15819441999E+03  0.00000000000E+00 0.  1.
</event>
<event>
12    1  0.1629553E-001  0.2444194E+03  0.7818608E-02  0.1117577E+00
         21   -1    0    0  501  502  0.00000000000E+00  0.00000000000E+00  0.24939439483E+04  0.24939439483E+04  0.00000000000E+00 0.  1.
         21   -1    0    0  502  503 -0.00000000000E+00 -0.00000000000E+00 -0.41989250597E+02  0.41989250597E+02  0.00000000000E+00 0. -1.
         -6    2    1    2    0  503 -0.17236480261E+03  0.46062316604E+01  0.37957753837E+03  0.44919221678E+03  0.16722349544E+03 0.  0.
        -24    2    3    3    0    0 -0.96533835537E+02 -0.54870058873E+02  0.16625283697E+03  0.21506130697E+03  0.79258155341E+02 0.  0.
          6    2    1    2  501    0  0.17236480261E+03 -0.46062316604E+01  0.20723771594E+04  0.20867409821E+04  0.17323392675E+03 0.  0.
         24    2    5    5    0    0  0.24882002704E+02  0.21140060997E+02  0.51060930578E+03  0.51780664115E+03  0.79597978870E+02 0.  0.
          5    1    5    5  501    0  0.14748279991E+03 -0.25746292658E+02  0.15617678536E+04  0.15689343410E+04  0.47000000000E+01 0. -1.
        -11    1    6    6    0    0  0.21969086602E+02  0.97997840609E+01  0.50357168266E+03  0.50414592740E+03  0.00000000000E+00 0.  1.
         12    1    6    6    0    0  0.29129161011E+01  0.11340276936E+02  0.70376231148E+01  0.13660713756E+02  0.00000000000E+00 0. -1.
         -5    1    3    3    0  503 -0.75830967078E+02  0.59476290533E+02  0.21332470140E+03  0.23413090981E+03  0.47000000000E+01 0.  1.
         11    1    4    4    0    0 -0.10045147521E+03 -0.39384276903E+02  0.10069066108E+03  0.14758126360E+03  0.00000000000E+00 0. -1.
        -12    1    4    4    0    0  0.39176396725E+01 -0.15485781969E+02  0.65562175896E+02  0.67480043361E+02  0.00000000000E+00 0.  1.
</event>
<event>
12    1  0.1629553E-001  0.2058283E+03  0.7818608E-02  0.1145182E+00
         21   -1    0    0  503  502  0.00000000000E+00  0.00000000000E+00  0.68516811849E+02  0.68516811849E+02  0.00000000000E+00 0.  1.
         21   -1    0    0  501  503 -0.00000000000E+00 -0.00000000000E+00 -0.72869397260E+03  0.72869397260E+03  0.00000000000E+00 0. -1.
          6    2    1    2  501    0  0.10749845543E+03 -0.30350454760E+02 -0.48708667248E+03  0.52827655691E+03  0.17130565094E+03 0.  0.
         24    2    3    3    0    0  0.38883433690E+02 -0.63740684352E+02 -0.16331766609E+03  0.19560346190E+03  0.77545199678E+02 0.  0.
         -6    2    1    2    0  502 -0.10749845543E+03  0.30350454760E+02 -0.17309048827E+03  0.26893422754E+03  0.17288213786E+03 0.  0.
        -24    2    5    5    0    0 -0.25013849856E+02  0.84537106707E+02 -0.91068497125E+02  0.14052238838E+03  0.60670053337E+02 0.  0.
          5    1    3    3  501    0  0.68615021741E+02  0.33390229592E+02 -0.32376900639E+03  0.33267309500E+03  0.47000000000E+01 0. -1.
        -11    1    4    4    0    0 -0.16775250240E+01 -0.83845703886E+01  0.75894565876E+01  0.11433064423E+02  0.00000000000E+00 0.  1.
         12    1    4    4    0    0  0.40560958714E+02 -0.55356113963E+02 -0.17090712268E+03  0.18417039748E+03  0.00000000000E+00 0. -1.
         -5    1    5    5    0  502 -0.82484605575E+02 -0.54186651948E+02 -0.82021991141E+02  0.12841183916E+03  0.47000000000E+01 0.  1.
         13    1    6    6    0    0 -0.37540496595E+02  0.81440368752E+02 -0.90796268953E+02  0.12761577098E+03  0.00000000000E+00 0. -1.
        -14    1    6    6    0    0  0.12526646739E+02  0.30967379553E+01 -0.27222817179E+00  0.12906617398E+02  0.00000000000E+00 0.  1.
</event>
<event>
12    1  0.1629553E-001  0.2182472E+03  0.7818608E-02  0.1135365E+00
         21   -1    0    0  501  502  0.00000000000E+00  0.00000000000E+00  0.18064396590E+03  0.18064396590E+03  0.00000000000E+00 0. -1.
         21   -1    0    0  502  503 -0.00000000000E+00 -0.00000000000E+00 -0.37818724064E+03  0.37818724064E+03  0.00000000000E+00 0. -1.
         -6    2    1    2    0  503  0.95728025848E+02  0.90446868298E+02 -0.25338453601E+03  0.33441826979E+03  0.17403265545E+03 0.  0.
        -24    2    3    3    0    0  0.30316905800E+02  0.57755592559E+02 -0.43261368466E+02  0.11188474496E+03  0.79948901831E+02 0.  0.
          6    2    1    2  501    0 -0.95728025848E+02 -0.90446868298E+02  0.55841261272E+02  0.22441293676E+03  0.17291162137E+03 0.  0.
         24    2    5    5    0    0 -0.11885977899E+03 -0.97694135518E+02  0.75718070476E+02  0.19271469659E+03  0.87942804761E+02 0.  0.
          5    1    5    5  501    0  0.23131753140E+02  0.72472672195E+01 -0.19876809203E+02  0.31698240166E+02  0.47000000000E+01 0. -1.
        -13    1    6    6    0    0 -0.45240717593E+02 -0.43411814992E+02 -0.14376392831E+02  0.64327201712E+02  0.00000000000E+00 0.  1.
         14    1    6    6    0    0 -0.73619061396E+02 -0.54282320526E+02  0.90094463307E+02  0.12838749488E+03  0.00000000000E+00 0. -1.
         -5    1    3    3    0  503  0.65411120049E+02  0.32691275739E+02 -0.21012316754E+03  0.22253352483E+03  0.47000000000E+01 0.  1.
         13    1    4    4    0    0  0.55202274829E+02  0.54527931682E+02 -0.37301458076E+02  0.86092887362E+02  0.00000000000E+00 0. -1.
        -14    1    4    4    0    0 -0.24885369029E+02  0.32276608773E+01 -0.59599103905E+01  0.25791857598E+02  0.00000000000E+00 0.  1.
</event>
<event>
12    1  0.1629553E-001  0.1931364E+03  0.7818608E-02  0.1155938E+00
         21   -1    0    0  501  502  0.00000000000E+00  0.00000000000E+00  0.81375582490E+03  0.81375582490E+03  0.00000000000E+00 0.  1.
         21   -1    0    0  502  503 -0.00000000000E+00 -0.00000000000E+00 -0.45559124675E+02  0.45559124675E+02  0.00000000000E+00 0.  1.
         -6    2    1    2    0  503  0.13143243145E+02 -0.87612826928E+02  0.39051644897E+03  0.43511683440E+03  0.17021988832E+03 0.  0.
        -24    2    3    3    0    0 -0.36219145151E+02 -0.11770698241E+02  0.27000953193E+03  0.28434322624E+03  0.80594957437E+02 0.  0.
          6    2    1    2  501    0 -0.13143243145E+02  0.87612826928E+02  0.37768025125E+03  0.42419811517E+03  0.17161852012E+03 0.  0.
         24    2    5    5    0    0 -0.22678396234E+02  0.12012363682E+01  0.28667234639E+03  0.29825205182E+03  0.79104358941E+02 0.  0.
          5    1    5    5  501    0  0.95351530890E+01  0.86411590560E+02  0.91007904858E+02  0.12594606335E+03  0.47000000000E+01 0. -1.
        -11    1    6    6    0    0 -0.17323143497E+02  0.17130268725E+01  0.73791972179E+01  0.18907096903E+02  0.00000000000E+00 0.  1.
         12    1    6    6    0    0 -0.53552527361E+01 -0.51179050427E+00  0.27929314917E+03  0.27934495492E+03  0.00000000000E+00 0. -1.
         -5    1    3    3    0  503  0.49362388296E+02 -0.75842128687E+02  0.12050691704E+03  0.15077360816E+03  0.47000000000E+01 0.  1.
         13    1    4    4    0    0 -0.26570570231E+02 -0.12966309513E+02  0.23834702701E+02  0.37976485325E+02  0.00000000000E+00 0. -1.
        -14    1    4    4    0    0 -0.96485749197E+01  0.11956112722E+01  0.24617482923E+03  0.24636674092E+03  0.00000000000E+00 0.  1.
</event>
<event>
12    1  0.1629553E-001  0.2585695E+03  0.7818608E-02  0.1108084E+00
         21   -1    0    0  503  502  0.00000000000E+00  0.00000000000E+00  0.94081992802E+02  0.94081992802E+02  0.00000000000E+00 0. -1.
         21   -1    0    0  501  503 -0.00000000000E+00 -0.00000000000E+00 -0.99491817082E+03  0.99491817082E+03  0.00000000000E+00 0. -1.
          6    2    1    2  501    0  0.16813728401E+03  0.98293266692E+02 -0.74187862134E+03  0.78547800515E+03  0.16929292730E+03 0.  0.
         24    2    3    3    0    0  0.14094210271E+03  0.58393317409E+02 -0.70184782223E+03  0.72258016166E+03  0.79102898961E+02 0.  0.
         -6    2    1    2    0  502 -0.16813728401E+03 -0.98293266692E+02 -0.15895755668E+03  0.30352215847E+03  0.17007787423E+03 0.  0.
        -24    2    5    5    0    0 -0.13157247356E+03 -0.13612615138E+03 -0.12819736163E+03  0.24239448776E+03  0.80491485749E+02 0.  0.
          5    1    3    3  501    0  0.27195181307E+02  0.39899949283E+02 -0.40030799107E+02  0.62897843494E+02  0.47000000000E+01 0. -1.
        -13    1    4    4    0    0  0.19569485857E+02 -0.15217168268E+01 -0.25317742493E+03  0.25393717509E+03  0.00000000000E+00 0.  1.
         14    1    4    4    0    0  0.12137261685E+03  0.59915034236E+02 -0.44867039730E+03  0.46864298657E+03  0.00000000000E+00 0. -1.
         -5    1    5    5    0  502 -0.36564810450E+02  0.37832884685E+02 -0.30760195058E+02  0.61127670713E+02  0.47000000000E+01 0.  1.
         11    1    6    6    0    0 -0.95638672786E+02 -0.41119538600E+02 -0.67299846212E+02  0.12396306501E+03  0.00000000000E+00 0. -1.
        -12    1    6    6    0    0 -0.35933800779E+02 -0.95006612777E+02 -0.60897515414E+02  0.11843142274E+03  0.00000000000E+00 0.  1.
</event>
<event>
12    1  0.1629553E-001  0.2463134E+03  0.7818608E-02  0.1116101E+00
         21   -1    0    0  503  502  0.00000000000E+00  0.00000000000E+00  0.36624737673E+03  0.36624737673E+03  0.00000000000E+00 0.  1.
         21   -1    0    0  501  503 -0.00000000000E+00 -0.00000000000E+00 -0.39999908413E+03  0.39999908413E+03  0.00000000000E+00 0. -1.
          6    2    1    2  501    0  0.13617330560E+03  0.10553873634E+03 -0.31130847834E+03  0.39696759072E+03  0.17603609111E+03 0.  0.
         24    2    3    3    0    0  0.90210885455E+01 -0.83367193071E+00 -0.10038826653E+03  0.12865396585E+03  0.79949758131E+02 0.  0.
         -6    2    1    2    0  502 -0.13617330560E+03 -0.10553873634E+03  0.27755677094E+03  0.36927887014E+03  0.17218457773E+03 0.  0.
        -24    2    5    5    0    0 -0.86106364167E+01 -0.17581232133E+02  0.66929837042E+02  0.10775534844E+03  0.82148458593E+02 0.  0.
          5    1    3    3  501    0  0.12715221706E+03  0.10637240827E+03 -0.21092021180E+03  0.26831362487E+03  0.47000000000E+01 0. -1.
        -13    1    4    4    0    0 -0.98723675281E+01  0.19174024013E+02  0.29020795156E+01  0.21760719266E+02  0.00000000000E+00 0.  1.
         14    1    4    4    0    0  0.18893456074E+02 -0.20007695944E+02 -0.10329034605E+03  0.10689324659E+03  0.00000000000E+00 0. -1.
         -5    1    5    5    0  502 -0.12756266918E+03 -0.87957504205E+02  0.21062693390E+03  0.26152352169E+03  0.47000000000E+01 0.  1.
         11    1    6    6    0    0 -0.13829436202E+02  0.31282750441E+02  0.36167827652E+02  0.49779268154E+02  0.00000000000E+00 0. -1.
        -12    1    6    6    0    0  0.52187997853E+01 -0.48863982574E+02  0.30762009390E+02  0.57976080291E+02  0.00000000000E+00 0.  1.
</event>
<event>
12    1  0.1629553E-001  0.3665625E+03  0.7818608E-02  0.1056083E+00
         21   -1    0    0  503  502  0.00000000000E+00  0.00000000000E+00  0.71729668152E+03  0.71729668152E+03  0.00000000000E+00 0. -1.
         21   -1    0    0  501  503 -0.00000000000E+00 -0.00000000000E+00 -0.26491576776E+03  0.26491576776E+03  0.00000000000E+00 0. -1.
          6    2    1    2  501    0 -0.30549962467E+03  0.10684897421E+03 -0.40360618932E+02  0.36807705242E+03  0.17060191382E+03 0.  0.
         24    2    3    3    0    0 -0.31274777204E+03  0.10172629071E+03 -0.18743218119E+02  0.34424053538E+03  0.99954143671E+02 0.  0.
         -6    2    1    2    0  502  0.30549962467E+03 -0.10684897421E+03  0.49274153269E+03  0.61413539686E+03  0.17210852299E+03 0.  0.
        -24    2    5    5    0    0  0.25859406171E+03 -0.12637881890E+03  0.47350751658E+03  0.55960481787E+03  0.78138910318E+02 0.  0.
          5    1    3    3  501    0  0.72481473747E+01  0.51226834977E+01 -0.21617400813E+02  0.23836517038E+02  0.47000000000E+01 0. -1.
        -13    1    4    4    0    0 -0.17275428186E+02  0.34098303659E+02  0.10718606331E+02  0.39699159350E+02  0.00000000000E+00 0.  1.
         14    1    4    4    0    0 -0.29547234386E+03  0.67627987052E+02 -0.29461824450E+02  0.30454137603E+03  0.00000000000E+00 0. -1.
         -5    1    5    5    0  502  0.46905562961E+02  0.19529844690E+02  0.19234016109E+02  0.54530578999E+02  0.47000000000E+01 0.  1.
         11    1    6    6    0    0  0.18090691930E+03 -0.94876810670E+02  0.26295899646E+03  0.33298101518E+03  0.00000000000E+00 0. -1.
        -12    1    6    6    0    0  0.77687142407E+02 -0.31502008229E+02  0.21054852012E+03  0.22662380268E+03  0.00000000000E+00 0.  1.
</event>
<event>
12    1  0.1629553E-001  0.2427098E+03  0.7818608E-02  0.1118156E+00
         21   -1    0    0  503  502  0.00000000000E+00  0.00000000000E+00  0.19076312003E+03  0.19076312003E+03  0.00000000000E+00 0. -1.
         21   -1    0    0  501  503 -0.00000000000E+00 -0.00000000000E+00 -0.31468910092E+03  0.31468910092E+03  0.00000000000E+00 0.  1.
          6    2    1    2  501    0 -0.47485155336E+02 -0.16371295151E+03 -0.99773757739E+02  0.26154369817E+03  0.17144542237E+03 0.  0.
         24    2    3    3    0    0 -0.18708227368E+02 -0.58659220014E+02  0.47537969074E+01  0.11050563090E+03  0.91640569686E+02 0.  0.
         -6    2    1    2    0  502  0.47485155336E+02  0.16371295151E+03 -0.24152223147E+02  0.24390852277E+03  0.17277519246E+03 0.  0.
        -24    2    5    5    0    0 -0.19202292464E+02  0.13806865659E+03 -0.48874031947E+02  0.16815825290E+03  0.80354496143E+02 0.  0.
          5    1    3    3  501    0 -0.28776927968E+02 -0.10505373149E+03 -0.10452755465E+03  0.15103806727E+03  0.47000000000E+01 0. -1.
        -13    1    4    4    0    0 -0.37989846290E+02 -0.51523000117E+02 -0.29555280631E+02  0.70507890164E+02  0.00000000000E+00 0.  1.
         14    1    4    4    0    0  0.19281618922E+02 -0.71362198975E+01  0.34309077539E+02  0.39997740739E+02  0.00000000000E+00 0. -1.
         -5    1    5    5    0  502  0.66687447800E+02  0.25644294920E+02  0.24721808800E+02  0.75750269877E+02  0.47000000000E+01 0.  1.
         13    1    6    6    0    0  0.30924082742E+02  0.51796094028E+02 -0.10376196667E+02  0.61211107712E+02  0.00000000000E+00 0. -1.
        -14    1    6    6    0    0 -0.50126375206E+02  0.86272562561E+02 -0.38497835279E+02  0.10694714519E+03  0.00000000000E+00 0.  1.
</event>
<event>
12    1  0.1629553E-001  0.1759767E+03  0.7818608E-02  0.1171876E+00
         21   -1    0    0  503  502  0.00000000000E+00  0.00000000000E+00  0.81486767344E+02  0.81486767344E+02  0.00000000000E+00 0. -1.
         21   -1    0    0  501  503 -0.00000000000E+00 -0.00000000000E+00 -0.57679598127E+03  0.57679598127E+03  0.00000000000E+00 0. -1.
          6    2    1    2  501    0 -0.72760962548E+01 -0.34100204246E+02 -0.44017964142E+03  0.47387270265E+03  0.17199260475E+03 0.  0.
         24    2    3    3    0    0  0.58218752133E+02 -0.26694220366E+02 -0.20115491786E+03  0.22588211364E+03  0.80358097185E+02 0.  0.
         -6    2    1    2    0  502  0.72760962548E+01  0.34100204246E+02 -0.55129572501E+02  0.18441004596E+03  0.17248776705E+03 0.  0.
        -24    2    5    5    0    0  0.59844367712E+02  0.42853617656E+01 -0.68606208625E+02  0.12231288244E+03  0.81571543303E+02 0.  0.
          5    1    3    3  501    0 -0.65494848387E+02 -0.74059838804E+01 -0.23902472356E+03  0.24799058901E+03  0.47000000000E+01 0. -1.
        -13    1    4    4    0    0  0.26825288590E+01  0.14897028165E+02 -0.23507110160E+01  0.15318069445E+02  0.00000000000E+00 0.  1.
         14    1    4    4    0    0  0.55536223274E+02 -0.41591248531E+02 -0.19880420684E+03  0.21056404420E+03  0.00000000000E+00 0. -1.
         -5    1    5    5    0  502 -0.52568271457E+02  0.29814842480E+02  0.13476636124E+02  0.62097163521E+02  0.47000000000E+01 0.  1.
         13    1    6    6    0    0 -0.18516017914E+02 -0.85570298822E+01 -0.62011455728E+01  0.21319471996E+02  0.00000000000E+00 0. -1.
        -14    1    6    6    0    0  0.78360385626E+02  0.12842391648E+02 -0.62405063052E+02  0.10099341044E+03  0.00000000000E+00 0.  1.
</event>
<event>
12    1  0.1629553E-001  0.2049892E+03  0.7818608E-02  0.1145752E+00
         21   -1    0    0  503  502  0.00000000000E+00  0.00000000000E+00  0.41376363692E+03  0.41376363692E+03  0.00000000000E+00 0.  1.
         21   -1    0    0  501  503 -0.00000000000E+00 -0.00000000000E+00 -0.13070947743E+03  0.13070947743E+03  0.00000000000E+00 0.  1.
          6    2    1    2  501    0  0.11464534840E+02 -0.11082981300E+03  0.12336130345E+02  0.20536003257E+03  0.17206359248E+03 0.  0.
         24    2    3    3    0    0 -0.56521426474E+02 -0.78337175885E+02 -0.17282430182E+02  0.12426002314E+03  0.76226545119E+02 0.  0.
         -6    2    1    2    0  502 -0.11464534840E+02  0.11082981300E+03  0.27071802914E+03  0.33911308178E+03  0.17115708551E+03 0.  0.
        -24    2    5    5    0    0 -0.28683838769E+02  0.89878384806E+02  0.83584670074E+02  0.14996644330E+03  0.81256694385E+02 0.  0.
          5    1    3    3  501    0  0.67985961314E+02 -0.32492637114E+02  0.29618560527E+02  0.81100009433E+02  0.47000000000E+01 0. -1.
        -13    1    4    4    0    0 -0.33076902630E+02 -0.90702933125E+02 -0.13394501668E+02  0.97470591668E+02  0.00000000000E+00 0.  1.
         14    1    4    4    0    0 -0.23444523844E+02  0.12365757239E+02 -0.38879285139E+01  0.26789431470E+02  0.00000000000E+00 0. -1.
         -5    1    5    5    0  502  0.17219303929E+02  0.20951428194E+02  0.18713335907E+03  0.18914663848E+03  0.47000000000E+01 0.  1.
         11    1    6    6    0    0 -0.51448463832E+01  0.99113702488E+01  0.63162103287E+02  0.64141686883E+02  0.00000000000E+00 0. -1.
        -12    1    6    6    0    0 -0.23538992386E+02  0.79967014557E+02  0.20422566787E+02  0.85824756416E+02  0.00000000000E+00 0.  1.
</event>
<event>
12    1  0.1629553E-001  0.2279031E+03  0.7818608E-02  0.1130543E+00
         21   -1    0    0  501  502  0.00000000000E+00  0.00000000000E+00  0.15457348313E+04  0.15457348313E+04  0.00000000000E+00 0. -1.
         21   -1    0    0  502  503 -0.00000000000E+00 -0.00000000000E+00 -0.36077764895E+02  0.36077764895E+02  0.00000000000E+00 0. -1.
         -6    2    1    2    0  503  0.12858364224E+03  0.10015676779E+02  0.49881756403E+03  0.54841477286E+03  0.18789820136E+03 0.  0.
        -24    2    3    3    0    0  0.10923074588E+03 -0.62638025318E+02  0.28060030273E+03  0.31755993069E+03  0.79075290861E+02 0.  0.
          6    2    1    2  501    0 -0.12858364224E+03 -0.10015676779E+02  0.10108395024E+04  0.10333978234E+04  0.17169884939E+03 0.  0.
         24    2    5    5    0    0 -0.95784188687E+02 -0.96627123933E+01  0.98138444131E+03  0.98906251733E+03  0.76558884091E+02 0.  0.
          5    1    5    5  501    0 -0.32799453552E+02 -0.35296438571E+00  0.29455061102E+02  0.44335306040E+02  0.47000000000E+01 0. -1.
        -13    1    6    6    0    0 -0.54206593154E+02 -0.34160165346E+02  0.34850536663E+03  0.35434624622E+03  0.00000000000E+00 0.  1.
         14    1    6    6    0    0 -0.41577595533E+02  0.24497452952E+02  0.63287907467E+03  0.63471627111E+03  0.00000000000E+00 0. -1.
         -5    1    3    3    0  503  0.19352896363E+02  0.72653702097E+02  0.21821726129E+03  0.23085484217E+03  0.47000000000E+01 0.  1.
         11    1    4    4    0    0  0.24634222161E+02 -0.41154836179E+02  0.17017567260E+03  0.17680589636E+03  0.00000000000E+00 0. -1.
        -12    1    4    4    0    0  0.84596523715E+02 -0.21483189139E+02  0.11042463014E+03  0.14075403433E+03  0.00000000000E+00 0.  1.
</event>
<event>
12    1  0.1629553E-001  0.2975969E+03  0.7818608E-02  0.1086580E+00
         21   -1    0    0  501  502  0.00000000000E+00  0.00000000000E+00  0.12393034655E+03  0.12393034655E+03  0.00000000000E+00 0.  1.
         21   -1    0    0  502  503 -0.00000000000E+00 -0.00000000000E+00 -0.82207724910E+03  0.82207724910E+03  0.00000000000E+00 0.  1.
         -6    2    1    2    0  503 -0.16103400847E+03  0.18155811498E+03 -0.52152936787E+03  0.59994737732E+03  0.17043671263E+03 0.  0.
        -24    2    3    3    0    0 -0.91165669756E+02  0.19455106634E+03 -0.42213446257E+03  0.47766966578E+03  0.61721214881E+02 0.  0.
          6    2    1    2  501    0  0.16103400847E+03 -0.18155811498E+03 -0.17661753469E+03  0.34606021832E+03  0.17224581315E+03 0.  0.
         24    2    5    5    0    0  0.88171908195E+01 -0.76196669179E+02 -0.50350057691E+02  0.12192508145E+03  0.80292726496E+02 0.  0.
          5    1    5    5  501    0  0.15221681765E+03 -0.10536144580E+03 -0.12626747700E+03  0.22413513688E+03  0.47000000000E+01 0. -1.
        -11    1    6    6    0    0  0.14925355369E+02  0.16334406001E+01 -0.40553077118E+02  0.43243339658E+02  0.00000000000E+00 0.  1.
         12    1    6    6    0    0 -0.61081645496E+01 -0.77830109779E+02 -0.97969805732E+01  0.78681741788E+02  0.00000000000E+00 0. -1.
         -5    1    3    3    0  503 -0.69868338713E+02 -0.12992951363E+02 -0.99394905300E+02  0.12227771154E+03  0.47000000000E+01 0.  1.
         13    1    4    4    0    0 -0.37993058697E+02  0.11267206605E+03 -0.17146689727E+03  0.20866088238E+03  0.00000000000E+00 0. -1.
        -14    1    4    4    0    0 -0.53172611059E+02  0.81879000296E+02 -0.25066756530E+03  0.26900878340E+03  0.00000000000E+00 0.  1.
</event>
<event>
12    1  0.1629553E-001  0.2845003E+03  0.7818608E-02  0.1093431E+00
         21   -1    0    0  503  502  0.00000000000E+00  0.00000000000E+00  0.52647327149E+03  0.52647327149E+03  0.00000000000E+00 0.  1.
         21   -1    0    0  501  503 -0.00000000000E+00 -0.00000000000E+00 -0.62394517969E+03  0.62394517969E+03  0.00000000000E+00 0. -1.
          6    2    1    2  501    0 -0.17658761805E+03 -0.13936242063E+03 -0.54847660397E+03  0.61787296140E+03  0.17417043435E+03 0.  0.
         24    2    3    3    0    0 -0.52358763026E+02 -0.11761132831E+03 -0.36687364471E+03  0.39672223622E+03  0.78856812753E+02 0.  0.
         -6    2    1    2    0  502  0.17658761805E+03  0.13936242063E+03  0.45100469577E+03  0.53254548977E+03  0.17203020646E+03 0.  0.
        -24    2    5    5    0    0  0.66471617109E+02  0.13781011728E+03  0.28367463172E+03  0.33217237869E+03  0.80356008964E+02 0.  0.
          5    1    3    3  501    0 -0.12422885502E+03 -0.21751092326E+02 -0.18160295926E+03  0.22115072518E+03  0.47000000000E+01 0. -1.
        -11    1    4    4    0    0 -0.51484400236E+02 -0.98650237159E+02 -0.20083604353E+03  0.22960319932E+03  0.00000000000E+00 0.  1.
         12    1    4    4    0    0 -0.87436279026E+00 -0.18961091150E+02 -0.16603760118E+03  0.16711903690E+03  0.00000000000E+00 0. -1.
         -5    1    5    5    0  502  0.11011600094E+03  0.15523033519E+01  0.16733006405E+03  0.20037311108E+03  0.47000000000E+01 0.  1.
         11    1    6    6    0    0  0.51623294154E+02  0.12449228701E+03  0.28151223182E+03  0.31210964530E+03  0.00000000000E+00 0. -1.
        -12    1    6    6    0    0  0.14848322954E+02  0.13317830270E+02  0.21623998968E+01  0.20062733388E+02  0.00000000000E+00 0.  1.
</event>
<event>
12    1  0.1629553E-001  0.2171720E+03  0.7818608E-02  0.1136055E+00
         21   -1    0    0  501  502  0.00000000000E+00  0.00000000000E+00  0.41553176873E+03  0.41553176873E+03  0.00000000000E+00 0.  1.
         21   -1    0    0  502  503 -0.00000000000E+00 -0.00000000000E+00 -0.14288963764E+03  0.14288963764E+03  0.00000000000E+00 0.  1.
         -6    2    1    2    0  503  0.12891913775E+02 -0.13300665015E+03  0.93642123118E+01  0.21713132336E+03  0.17088403286E+03 0.  0.
        -24    2    3    3    0    0  0.58444385002E+02 -0.28091435967E+02  0.10157289377E+01  0.10235320273E+03  0.79185045874E+02 0.  0.
          6    2    1    2  501    0 -0.12891913775E+02  0.13300665015E+03  0.26327791878E+03  0.34129008301E+03  0.17119196190E+03 0.  0.
         24    2    5    5    0    0 -0.70222101176E+02  0.47011075923E+02  0.15516201753E+03  0.19164674946E+03  0.74243115112E+02 0.  0.
          5    1    5    5  501    0  0.57330187401E+02  0.85995574222E+02  0.10811590125E+03  0.14964333355E+03  0.47000000000E+01 0. -1.
        -11    1    6    6    0    0 -0.45041894296E+02  0.57722621894E+02  0.14503712472E+03  0.16246981525E+03  0.00000000000E+00 0.  1.
         12    1    6    6    0    0 -0.25180206880E+02 -0.10711545970E+02  0.10124892812E+02  0.29176934213E+02  0.00000000000E+00 0. -1.
         -5    1    3    3    0  503 -0.45552471227E+02 -0.10491521418E+03  0.83484833741E+01  0.11477812063E+03  0.47000000000E+01 0.  1.
         11    1    4    4    0    0  0.54163644812E+02 -0.45777877698E+02  0.22308768685E+02  0.74343766828E+02  0.00000000000E+00 0. -1.
        -12    1    4    4    0    0  0.42807401900E+01  0.17686441731E+02 -0.21293039747E+02  0.28009435899E+02  0.00000000000E+00 0.  1.
</event>
<event>
12    1  0.1629553E-001  0.4494329E+03  0.7818608E-02  0.1027922E+00
         21   -1    0    0  501  502  0.00000000000E+00  0.00000000000E+00  0.97015982334E+03  0.97015982334E+03  0.00000000000E+00 0. -1.
         21   -1    0    0  502  503 -0.00000000000E+00 -0.00000000000E+00 -0.28997323888E+03  0.28997323888E+03  0.00000000000E+00 0.  1.
         -6    2    1    2    0  503 -0.26601756729E+02 -0.41461115742E+03  0.52299906364E+01  0.44946334606E+03  0.17140560472E+03 0.  0.
        -24    2    3    3    0    0 -0.77757956018E+01 -0.36628484793E+03 -0.44247039186E+02  0.37763079438E+03  0.80138402553E+02 0.  0.
          6    2    1    2  501    0  0.26601756729E+02  0.41461115742E+03  0.67495659383E+03  0.81066971616E+03  0.17032005115E+03 0.  0.
         24    2    5    5    0    0 -0.19789321897E+02  0.14444806003E+03  0.18042169992E+03  0.24522556979E+03  0.79540750367E+02 0.  0.
          5    1    5    5  501    0  0.46391078627E+02  0.27016309739E+03  0.49453489391E+03  0.56544414637E+03  0.47000000000E+01 0. -1.
        -11    1    6    6    0    0  0.24152990443E+02  0.86339621383E+02  0.12431753055E+03  0.15327343400E+03  0.00000000000E+00 0.  1.
         12    1    6    6    0    0 -0.43942312340E+02  0.58108438643E+02  0.56104169371E+02  0.91952135789E+02  0.00000000000E+00 0. -1.
         -5    1    3    3    0  503 -0.18825961128E+02 -0.48326309490E+02  0.49477029822E+02  0.71832551684E+02  0.47000000000E+01 0.  1.
         11    1    4    4    0    0 -0.91828066415E-01 -0.15908792579E+02  0.15387373698E+02  0.22132993088E+02  0.00000000000E+00 0. -1.
        -12    1    4    4    0    0 -0.76839675354E+01 -0.35037605535E+03 -0.59634412884E+02  0.35549780129E+03  0.00000000000E+00 0.  1.
</event>
<event>
12    1  0.1629553E-001  0.1769382E+03  0.7818608E-02  0.1170831E+00
         21   -1    0    0  503  502  0.00000000000E+00  0.00000000000E+00  0.76147761637E+03  0.76147761637E+03  0.00000000000E+00 0.  1.
         21   -1    0    0  501  503 -0.00000000000E+00 -0.00000000000E+00 -0.64609991463E+02  0.64609991463E+02  0.00000000000E+00 0.  1.
          6    2    1    2  501    0  0.34683318050E+02 -0.20191290991E+02  0.99115948777E+02  0.20269833818E+03  0.17219763128E+03 0.  0.
         24    2    3    3    0    0  0.49140330893E+02  0.49122924451E+02  0.38442989367E+02  0.10933472811E+03  0.75155741711E+02 0.  0.
         -6    2    1    2    0  502 -0.34683318050E+02  0.20191290991E+02  0.59775167613E+03  0.62338926965E+03  0.17232670837E+03 0.  0.
        -24    2    5    5    0    0 -0.18336159049E+02  0.40291976158E+02  0.58885870464E+03  0.59559642716E+03  0.77594277819E+02 0.  0.
          5    1    3    3  501    0 -0.14457012843E+02 -0.69314215442E+02  0.60672959410E+02  0.93363610075E+02  0.47000000000E+01 0. -1.
        -11    1    4    4    0    0  0.37457629672E+02  0.28998355874E+02  0.60793138233E+02  0.77069996239E+02  0.00000000000E+00 0.  1.
         12    1    4    4    0    0  0.11682701221E+02  0.20124568577E+02 -0.22350148867E+02  0.32264731869E+02  0.00000000000E+00 0. -1.
         -5    1    5    5    0  502 -0.16347159001E+02 -0.20100685167E+02  0.88929714921E+01  0.27792842488E+02  0.47000000000E+01 0.  1.
         11    1    6    6    0    0  0.11797090167E+02  0.47950494426E+02  0.47530455424E+03  0.47786278421E+03  0.00000000000E+00 0. -1.
        -12    1    6    6    0    0 -0.30133249215E+02 -0.76585182679E+01  0.11355415040E+03  0.11773364296E+03  0.00000000000E+00 0.  1.
</event>
<event>
12    1  0.1629553E-001  0.2861553E+03  0.7818608E-02  0.1092376E+00
         21   -1    0    0  503  502  0.00000000000E+00  0.00000000000E+00  0.25540230946E+03  0.25540230946E+03  0.00000000000E+00 0. -1.
         21   -1    0    0  501  503 -0.00000000000E+00 -0.00000000000E+00 -0.14157054065E+04  0.14157054065E+04  0.00000000000E+00 0. -1.
          6    2    1    2  501    0  0.12408972483E+03 -0.19088838643E+03 -0.13150377968E+04  0.13458117572E+04  0.17334428953E+03 0.  0.
         24    2    3    3    0    0  0.64873386559E+02 -0.18039627402E+03 -0.76856706005E+03  0.79602178334E+03  0.78765359148E+02 0.  0.
         -6    2    1    2    0  502 -0.12408972483E+03  0.19088838643E+03  0.15473469976E+03  0.32529595884E+03  0.17331473579E+03 0.  0.
        -24    2    5    5    0    0 -0.76914831314E+02  0.12320434716E+03  0.17355143109E+03  0.24054479880E+03  0.81526060609E+02 0.  0.
          5    1    3    3  501    0  0.59216338274E+02 -0.10492112412E+02 -0.54647073679E+03  0.54978997382E+03  0.47000000000E+01 0. -1.
        -11    1    4    4    0    0  0.15266460099E+02 -0.46419900798E+01 -0.20455578276E+02  0.25943083056E+02  0.00000000000E+00 0.  1.
         12    1    4    4    0    0  0.49606926460E+02 -0.17575428394E+03 -0.74811148177E+03  0.77007870028E+03  0.00000000000E+00 0. -1.
         -5    1    5    5    0  502 -0.47174893520E+02  0.67684039265E+02 -0.18816731330E+02  0.84751160038E+02  0.47000000000E+01 0.  1.
         13    1    6    6    0    0 -0.31095759931E+02  0.11507114568E+03  0.11369076966E+03  0.16472372616E+03  0.00000000000E+00 0. -1.
        -14    1    6    6    0    0 -0.45819071382E+02  0.81332014807E+01  0.59860661435E+02  0.75821072639E+02  0.00000000000E+00 0.  1.
</event>
<event>
12    1  0.1629553E-001  0.2564340E+03  0.7818608E-02  0.1109652E+00
         21   -1    0    0  501  502  0.00000000000E+00  0.00000000000E+00  0.14663305410E+03  0.14663305410E+03  0.00000000000E+00 0. -1.
         21   -1    0    0  502  503 -0.00000000000E+00 -0.00000000000E+00 -0.88844266701E+03  0.88844266701E+03  0.00000000000E+00 0.  1.
         -6    2    1    2    0  503  0.17851943353E+03  0.61499698140E+02 -0.73591744673E+03  0.77857400297E+03  0.17015166373E+03 0.  0.
        -24    2    3    3    0    0  0.82327129741E+02  0.67800383397E+02 -0.58128906967E+03  0.59629761136E+03  0.79367565912E+02 0.  0.
          6    2    1    2  501    0 -0.17851943353E+03 -0.61499698140E+02 -0.58921661774E+01  0.25650171815E+03  0.17351372502E+03 0.  0.
         24    2    5    5    0    0 -0.15453938427E+03  0.10899402322E+02  0.21667677642E+02  0.17527175138E+03  0.79053654657E+02 0.  0.
          5    1    5    5  501    0 -0.23980049263E+02 -0.72399100461E+02 -0.27559843819E+02  0.81229966771E+02  0.47000000000E+01 0. -1.
        -13    1    6    6    0    0  0.72181880261E+01  0.91222032078E+00 -0.76703813989E+01  0.10572092276E+02  0.00000000000E+00 0.  1.
         14    1    6    6    0    0 -0.16175757230E+03  0.99871820008E+01  0.29338059040E+02  0.16469965910E+03  0.00000000000E+00 0. -1.
         -5    1    3    3    0  503  0.96192303792E+02 -0.63006852575E+01 -0.15462837706E+03  0.18227639161E+03  0.47000000000E+01 0.  1.
         11    1    4    4    0    0  0.51601248507E+02  0.49157987484E+02 -0.18296106545E+03  0.19635159294E+03  0.00000000000E+00 0. -1.
        -12    1    4    4    0    0  0.30725881234E+02  0.18642395913E+02 -0.39832800422E+03  0.39994601842E+03  0.00000000000E+00 0.  1.
</event>
<event>
12    1  0.1629553E-001  0.2074911E+03  0.7818608E-02  0.1143662E+00
         21   -1    0    0  501  502  0.00000000000E+00  0.00000000000E+00  0.40189994868E+03  0.40189994868E+03  0.00000000000E+00 0. -1.
         21   -1    0    0  502  503 -0.00000000000E+00 -0.00000000000E+00 -0.12881741941E+03  0.12881741941E+03  0.00000000000E+00 0. -1.
         -6    2    1    2    0  503  0.52560888835E+02 -0.10137343682E+03  0.27168851095E+02  0.20926227981E+03  0.17324357002E+03 0.  0.
        -24    2    3    3    0    0  0.87593937911E+02 -0.10792865251E+03 -0.56579559798E+01  0.16057989446E+03  0.80203479039E+02 0.  0.
          6    2    1    2  501    0 -0.52560888835E+02  0.10137343682E+03  0.24591367818E+03  0.32145508828E+03  0.17268646716E+03 0.  0.
         24    2    5    5    0    0 -0.63886580528E+02  0.12942510233E+03  0.23890318207E+03  0.29004801446E+03  0.78871845454E+02 0.  0.
          5    1    5    5  501    0  0.11325691693E+02 -0.28051665511E+02  0.70104961079E+01  0.31407073820E+02  0.47000000000E+01 0. -1.
        -13    1    6    6    0    0  0.81857055705E+01  0.69982889177E+01 -0.14316791852E+01  0.10864231623E+02  0.00000000000E+00 0.  1.
         14    1    6    6    0    0 -0.72072286099E+02  0.12242681341E+03  0.24033486125E+03  0.27918378284E+03  0.00000000000E+00 0. -1.
         -5    1    3    3    0  503 -0.35033049075E+02  0.65552156875E+01  0.32826807075E+02  0.48682385346E+02  0.47000000000E+01 0.  1.
         13    1    4    4    0    0 -0.57307335031E+01 -0.41740783239E+02 -0.17362837332E+02  0.45569753259E+02  0.00000000000E+00 0. -1.
        -14    1    4    4    0    0  0.93324671414E+02 -0.66187869267E+02  0.11704881353E+02  0.11501014121E+03  0.00000000000E+00 0.  1.
</event>
<event>
12    1  0.1629553E-001  0.1935868E+03  0.7818608E-02  0.1155366E+00
         21   -1    0    0  501  502  0.00000000000E+00  0.00000000000E+00  0.16526974674E+03  0.16526974674E+03  0.00000000000E+00 0. -1.
         21   -1    0    0  502  503 -0.00000000000E+00 -0.00000000000E+00 -0.23459943538E+03  0.23459943538E+03  0.00000000000E+00 0.  1.
         -6    2    1    2    0  503 -0.87898598439E+02 -0.75011019554E+01  0.31514422242E+01  0.19315834062E+03  0.17180740037E+03 0.  0.
        -24    2    3    3    0    0 -0.87713652553E+02  0.36887013430E+02 -0.39771445010E+02  0.13123255244E+03  0.81153424930E+02 0.  0.
          6    2    1    2  501    0  0.87898598439E+02  0.75011019554E+01 -0.72481130860E+02  0.20671084150E+03  0.17231780966E+03 0.  0.
         24    2    5    5    0    0 -0.12626617812E+02 -0.25091757371E+02 -0.10182309988E+02  0.83947464782E+02  0.78450427923E+02 0.  0.
          5    1    5    5  501    0  0.10052521625E+03  0.32592859327E+02 -0.62298820872E+02  0.12276337672E+03  0.47000000000E+01 0. -1.
        -13    1    6    6    0    0  0.18572052646E+02 -0.22214015725E+01 -0.33795613778E+02  0.38626406447E+02  0.00000000000E+00 0.  1.
         14    1    6    6    0    0 -0.31198670458E+02 -0.22870355799E+02  0.23613303790E+02  0.45321058335E+02  0.00000000000E+00 0. -1.
         -5    1    3    3    0  503 -0.18494588630E+00 -0.44388115386E+02  0.42922887235E+02  0.61925788174E+02  0.47000000000E+01 0.  1.
         11    1    4    4    0    0 -0.71279465494E+02  0.14690856912E+01  0.54316619734E+01  0.71501212337E+02  0.00000000000E+00 0. -1.
        -12    1    4    4    0    0 -0.16434187059E+02  0.35417927739E+02 -0.45203106984E+02  0.59731340104E+02  0.00000000000E+00 0.  1.
</event>
<event>
12    1  0.1629553E-001  0.2454978E+03  0.7818608E-02  0.1116203E+00
         21   -1    0    0  503  502  0.00000000000E+00  0.00000000000E+00  0.12615625580E+03  0.12615625580E+03  0.00000000000E+00 0.  1.
         21   -1    0    0  501  503 -0.00000000000E+00 -0.00000000000E+00 -0.95128478351E+03  0.95128478351E+03  0.00000000000E+00 0. -1.
          6    2    1    2  501    0 -0.17382203607E+03 -0.17794134547E+02 -0.79280550935E+03  0.82994561392E+03  0.17244829648E+03 0.  0.
         24    2    3    3    0    0 -0.30976163470E+02 -0.36058047391E+02 -0.20768629012E+03  0.22734698751E+03  0.79330650717E+02 0.  0.
         -6    2    1    2    0  502  0.17382203607E+03  0.17794134547E+02 -0.32323018355E+02  0.24749542538E+03  0.17227442242E+03 0.  0.
        -24    2    5    5    0    0  0.75020826083E+02  0.14734113332E+02  0.50837375202E+02  0.11823296416E+03  0.74494138391E+02 0.  0.
          5    1    3    3  501    0 -0.14284587260E+03  0.18263912845E+02 -0.58511921924E+03  0.60259862641E+03  0.47000000000E+01 0. -1.
        -13    1    4    4    0    0 -0.38369726055E+02 -0.42295465107E-01 -0.39038425501E+02  0.54737887537E+02  0.00000000000E+00 0.  1.
         14    1    4    4    0    0  0.73935625847E+01 -0.36015751926E+02 -0.16864786462E+03  0.17260909998E+03  0.00000000000E+00 0. -1.
         -5    1    5    5    0  502  0.98801209987E+02  0.30600212152E+01 -0.83160393557E+02  0.12926246122E+03  0.47000000000E+01 0.  1.
         11    1    6    6    0    0  0.63674817974E+01 -0.12280618198E+02  0.41648505414E+02  0.43885719898E+02  0.00000000000E+00 0. -1.
        -12    1    6    6    0    0  0.68653344286E+02  0.27014731529E+02  0.91888697881E+01  0.74347244261E+02  0.00000000000E+00 0.  1.
</event>
<event>
12    1  0.1629553E-001  0.1779453E+03  0.7818608E-02  0.1170076E+00
         21   -1    0    0  503  502  0.00000000000E+00  0.00000000000E+00  0.60919428875E+03  0.60919428875E+03  0.00000000000E+00 0.  1.
         21   -1    0    0  501  503 -0.00000000000E+00 -0.00000000000E+00 -0.71868511992E+02  0.71868511992E+02  0.00000000000E+00 0.  1.
          6    2    1    2  501    0  0.10395372216E+02 -0.14775960439E+01  0.88680889767E+02  0.19881862256E+03  0.17763529326E+03 0.  0.
         24    2    3    3    0    0 -0.40307541846E+02 -0.30872106470E+02  0.32083476637E+01  0.95076306258E+02  0.80320767111E+02 0.  0.
         -6    2    1    2    0  502 -0.10395372216E+02  0.14775960439E+01  0.44864488699E+03  0.48224417819E+03  0.17654168266E+03 0.  0.
        -24    2    5    5    0    0  0.17651211986E+02 -0.12358978061E+02  0.93357271602E+02  0.12555181589E+03  0.81137960844E+02 0.  0.
          5    1    3    3  501    0  0.50702914062E+02  0.29394510426E+02  0.85472542103E+02  0.10374231630E+03  0.47000000000E+01 0. -1.
        -11    1    4    4    0    0 -0.39905053638E+02 -0.48604784796E+02  0.24387679278E+02  0.67450702825E+02  0.00000000000E+00 0.  1.
         12    1    4    4    0    0 -0.40248820816E+00  0.17732678327E+02 -0.21179331615E+02  0.27625603433E+02  0.00000000000E+00 0. -1.
         -5    1    5    5    0  502 -0.28046584202E+02  0.13836574105E+02  0.35528761539E+03  0.35669236229E+03  0.47000000000E+01 0.  1.
         13    1    6    6    0    0  0.26592505750E+02  0.14724580634E+02  0.27031614172E+01  0.30516908732E+02  0.00000000000E+00 0. -1.
        -14    1    6    6    0    0 -0.89412937639E+01 -0.27083558695E+02  0.90654110185E+02  0.95034907162E+02  0.00000000000E+00 0.  1.
</event>
<event>
12    1  0.1629553E-001  0.3090406E+03  0.7818608E-02  0.1080928E+00
         21   -1    0    0  501  502  0.00000000000E+00  0.00000000000E+00  0.52844571885E+03  0.52844571885E+03  0.00000000000E+00 0.  1.
         21   -1    0    0  502  503 -0.00000000000E+00 -0.00000000000E+00 -0.18885998634E+03  0.18885998634E+03  0.00000000000E+00 0.  1.
         -6    2    1    2    0  503  0.24254405889E+03 -0.82531385450E+02  0.92999969652E+02  0.32273068285E+03  0.17282085872E+03 0.  0.
        -24    2    3    3    0    0  0.20958202658E+03 -0.11773899556E+03  0.49673721930E+02  0.25772818193E+03  0.78544510749E+02 0.  0.
          6    2    1    2  501    0 -0.24254405889E+03  0.82531385450E+02  0.24658576285E+03  0.39457502234E+03  0.17101420913E+03 0.  0.
         24    2    5    5    0    0 -0.92012975775E+02  0.59415783158E+02  0.50038403688E+02  0.14588466778E+03  0.82352118685E+02 0.  0.
          5    1    5    5  501    0 -0.15053108312E+03  0.23115602292E+02  0.19654735917E+03  0.24869035456E+03  0.47000000000E+01 0. -1.
        -11    1    6    6    0    0 -0.63515166449E+02  0.16211615628E+00  0.48842046074E+02  0.80123330656E+02  0.00000000000E+00 0.  1.
         12    1    6    6    0    0 -0.28497809326E+02  0.59253667001E+02  0.11963576136E+01  0.65761337129E+02  0.00000000000E+00 0. -1.
         -5    1    3    3    0  503  0.32962032310E+02  0.35207610114E+02  0.43326247722E+02  0.65002500919E+02  0.47000000000E+01 0.  1.
         13    1    4    4    0    0  0.93838615243E+02 -0.26370088269E+02  0.51528261598E+02  0.11025529017E+03  0.00000000000E+00 0. -1.
        -14    1    4    4    0    0  0.11574341134E+03 -0.91368907295E+02 -0.18545396685E+01  0.14747289177E+03  0.00000000000E+00 0.  1.
</event>
<event>
12    1  0.1629553E-001  0.1928240E+03  0.7818608E-02  0.1157169E+00
         21   -1    0    0  503  502  0.00000000000E+00  0.00000000000E+00  0.64312710845E+03  0.64312710845E+03  0.00000000000E+00 0. -1.
         21   -1    0    0  501  503 -0.00000000000E+00 -0.00000000000E+00 -0.76855096256E+02  0.76855096256E+02  0.00000000000E+00 0. -1.
          6    2    1    2  501    0 -0.56899023264E+02 -0.65437872301E+02  0.93465124048E+02  0.20936742084E+03  0.16607038724E+03 0.  0.
         24    2    3    3    0    0 -0.22842136099E+02  0.41646836112E+02  0.22634838654E+02  0.76453818574E+02  0.55467362602E+02 0.  0.
         -6    2    1    2    0  502  0.56899023264E+02  0.65437872301E+02  0.47280688815E+03  0.51061478386E+03  0.17222511443E+03 0.  0.
        -24    2    5    5    0    0  0.63639608220E+02  0.65126787280E+02  0.47923798470E+03  0.50017537477E+03  0.11052086408E+03 0.  0.
          5    1    3    3  501    0 -0.34056887165E+02 -0.10708470841E+03  0.70830285393E+02  0.13291360227E+03  0.47000000000E+01 0. -1.
        -11    1    4    4    0    0 -0.18033444242E+01 -0.87545753051E+01  0.19846508302E+02  0.21766454274E+02  0.00000000000E+00 0.  1.
         12    1    4    4    0    0 -0.21038791675E+02  0.50401411417E+02  0.27883303522E+01  0.54687364300E+02  0.00000000000E+00 0. -1.
         -5    1    5    5    0  502 -0.67405849555E+01  0.31108502125E+00 -0.64310965466E+01  0.10439409094E+02  0.47000000000E+01 0.  1.
         11    1    6    6    0    0  0.47065438223E+02  0.96675447309E+02  0.36495919822E+03  0.38046880812E+03  0.00000000000E+00 0. -1.
        -12    1    6    6    0    0  0.16574169997E+02 -0.31548660029E+02  0.11427878648E+03  0.11970656665E+03  0.00000000000E+00 0.  1.
</event>
<event>
12    1  0.1629553E-001  0.2286621E+03  0.7818608E-02  0.1127669E+00
         21   -1    0    0  501  502  0.00000000000E+00  0.00000000000E+00  0.13226205257E+04  0.13226205257E+04  0.00000000000E+00 0.  1.
         21   -1    0    0  502  503 -0.00000000000E+00 -0.00000000000E+00 -0.83281528495E+02  0.83281528495E+02  0.00000000000E+00 0.  1.
         -6    2    1    2    0  503 -0.11348293223E+00 -0.15006740105E+03  0.11000769997E+03  0.25374799102E+03  0.17252858071E+03 0.  0.
        -24    2    3    3    0    0  0.29906274896E+02 -0.10787401031E+03  0.37833945242E+01  0.13548066185E+03  0.76220130442E+02 0.  0.
          6    2    1    2  501    0  0.11348293223E+00  0.15006740105E+03  0.11293312972E+04  0.11521540632E+04  0.17189987965E+03 0.  0.
         24    2    5    5    0    0  0.22261021921E+00  0.11568862633E+03  0.45837623836E+03  0.48030237336E+03  0.84839178156E+02 0.  0.
          5    1    5    5  501    0 -0.10912728698E+00  0.34378774718E+02  0.67095505889E+03  0.67185168982E+03  0.47000000000E+01 0. -1.
        -13    1    6    6    0    0 -0.35889291640E+02  0.57959529271E+02  0.30441989880E+03  0.31195964975E+03  0.00000000000E+00 0.  1.
         14    1    6    6    0    0  0.36111901860E+02  0.57729097057E+02  0.15395633956E+03  0.16834272361E+03  0.00000000000E+00 0. -1.
         -5    1    3    3    0  503 -0.30019757829E+02 -0.42193390739E+02  0.10622430544E+03  0.11826732917E+03  0.47000000000E+01 0.  1.
         11    1    4    4    0    0 -0.94059386478E+01  0.84399176618E+01 -0.18552501518E+00  0.12638762262E+02  0.00000000000E+00 0. -1.
        -12    1    4    4    0    0  0.39312213544E+02 -0.11631392797E+03  0.39689195393E+01  0.12284189959E+03  0.00000000000E+00 0.  1.
</event>
<event>
12    1  0.1629553E-001  0.1986887E+03  0.7818608E-02  0.1150952E+00
         21   -1    0    0  503  502  0.00000000000E+00  0.00000000000E+00  0.17832794994E+03  0.17832794994E+03  0.00000000000E+00 0. -1.
         21   -1    0    0  501  503 -0.00000000000E+00 -0.00000000000E+00 -0.22248263762E+03  0.22248263762E+03  0.00000000000E+00 0.  1.
          6    2    1    2  501    0  0.93477885393E+02  0.32209459930E+02 -0.48882521578E+01  0.19874885296E+03  0.17234165828E+03 0.  0.
         24    2    3    3    0    0  0.11173858490E+03  0.57948633277E+02  0.27937219979E+02  0.15297156807E+03  0.82318023071E+02 0.  0.
         -6    2    1    2    0  502 -0.93477885393E+02 -0.32209459930E+02 -0.39266435524E+02  0.20206173460E+03  0.17178919426E+03 0.  0.
        -24    2    5    5    0    0 -0.56138548568E+02 -0.38008620962E+02  0.41323199975E+02  0.11292904872E+03  0.80306732500E+02 0.  0.
          5    1    3    3  501    0 -0.18260699509E+02 -0.25739173347E+02 -0.32825472137E+02  0.45777284893E+02  0.47000000000E+01 0. -1.
        -13    1    4    4    0    0  0.22330847526E+02  0.39270057699E+02 -0.20472676252E+02  0.49597728333E+02  0.00000000000E+00 0.  1.
         14    1    4    4    0    0  0.89407737376E+02  0.18678575578E+02  0.48409896231E+02  0.10337383973E+03  0.00000000000E+00 0. -1.
         -5    1    5    5    0  502 -0.37339336825E+02  0.57991610322E+01 -0.80589635499E+02  0.89132685885E+02  0.47000000000E+01 0.  1.
         13    1    6    6    0    0 -0.75221121950E+02 -0.29667945572E+02  0.43792327450E+02  0.91957447362E+02  0.00000000000E+00 0. -1.
        -14    1    6    6    0    0  0.19082573382E+02 -0.83406753906E+01 -0.24691274755E+01  0.20971601354E+02  0.00000000000E+00 0.  1.
</event>
<event>
12    1  0.1629553E-001  0.1974654E+03  0.7818608E-02  0.1152221E+00
         21   -1    0    0  501  502  0.00000000000E+00  0.00000000000E+00  0.15351756477E+03  0.15351756477E+03  0.00000000000E+00 0.  1.
         21   -1    0    0  502  503 -0.00000000000E+00 -0.00000000000E+00 -0.31478102290E+03  0.31478102290E+03  0.00000000000E+00 0.  1.
         -6    2    1    2    0  503  0.85635693621E+02 -0.50644811194E+02 -0.18490860025E+03  0.26942253358E+03  0.16881629729E+03 0.  0.
        -24    2    3    3    0    0 -0.54747597801E+01  0.33524691203E+01 -0.40859854733E+02  0.90567977905E+02  0.80571824165E+02 0.  0.
          6    2    1    2  501    0 -0.85635693621E+02  0.50644811194E+02  0.23645142118E+02  0.19887605409E+03  0.17057028821E+03 0.  0.
         24    2    5    5    0    0  0.52894634582E+01 -0.46112851352E+01 -0.23887974213E+02  0.82247980624E+02  0.78389110407E+02 0.  0.
          5    1    5    5  501    0 -0.90925157079E+02  0.55256096330E+02  0.47533116331E+02  0.11662807346E+03  0.47000000000E+01 0. -1.
        -11    1    6    6    0    0 -0.84740369346E+01  0.35191461332E+02 -0.69730243591E+01  0.36862871855E+02  0.00000000000E+00 0.  1.
         12    1    6    6    0    0  0.13763500393E+02 -0.39802746467E+02 -0.16914949854E+02  0.45385108769E+02  0.00000000000E+00 0. -1.
         -5    1    3    3    0  503  0.91110453401E+02 -0.53997280315E+02 -0.14404874551E+03  0.17885455567E+03  0.47000000000E+01 0.  1.
         11    1    4    4    0    0 -0.88869826509E+01 -0.36956078318E+02 -0.89616216621E+01  0.39051771382E+02  0.00000000000E+00 0. -1.
        -12    1    4    4    0    0  0.34122228708E+01  0.40308547438E+02 -0.31898233071E+02  0.51516206523E+02  0.00000000000E+00 0.  1.
</event>
<event>
12    1  0.1629553E-001  0.1895599E+03  0.7818608E-02  0.1159003E+00
         21   -1    0    0  501  502  0.00000000000E+00  0.00000000000E+00  0.18860351259E+03  0.18860351259E+03  0.00000000000E+00 0.  1.
         21   -1    0    0  502  503 -0.00000000000E+00 -0.00000000000E+00 -0.19238279670E+03  0.19238279670E+03  0.00000000000E+00 0.  1.
         -6    2    1    2    0  503 -0.65540874406E+02 -0.43372864347E+02 -0.23613884197E+02  0.19102502484E+03  0.17249966089E+03 0.  0.
        -24    2    3    3    0    0  0.30653675519E+02 -0.33578766265E+02 -0.36894782642E+01  0.92189870441E+02  0.80113535656E+02 0.  0.
          6    2    1    2  501    0  0.65540874406E+02  0.43372864347E+02  0.19834600088E+02  0.18996128445E+03  0.17179949549E+03 0.  0.
         24    2    5    5    0    0  0.10099640797E+03 -0.21763661677E+01  0.24746027355E+02  0.13184038134E+03  0.81021659386E+02 0.  0.
          5    1    5    5  501    0 -0.35455533561E+02  0.45549230515E+02 -0.49114272674E+01  0.58120903110E+02  0.47000000000E+01 0. -1.
        -13    1    6    6    0    0  0.42441838425E+02  0.37759955447E+02  0.21972747017E+02  0.60909157733E+02  0.00000000000E+00 0.  1.
         14    1    6    6    0    0  0.58554569543E+02 -0.39936321615E+02  0.27732803386E+01  0.70931223606E+02  0.00000000000E+00 0. -1.
         -5    1    3    3    0  503 -0.96194549925E+02 -0.97940980817E+01 -0.19924405933E+02  0.98835154395E+02  0.47000000000E+01 0.  1.
         11    1    4    4    0    0  0.34019903298E+02  0.18599493549E+02 -0.84645227878E+01  0.39685553124E+02  0.00000000000E+00 0. -1.
        -12    1    4    4    0    0 -0.33662277793E+01 -0.52178259814E+02  0.47750445236E+01  0.52504317317E+02  0.00000000000E+00 0.  1.
</event>
<event>
12    1  0.1629553E-001  0.1943527E+03  0.7818608E-02  0.1154720E+00
         21   -1    0    0  503  502  0.00000000000E+00  0.00000000000E+00  0.27008683251E+03  0.27008683251E+03  0.00000000000E+00 0. -1.
         21   -1    0    0  501  503 -0.00000000000E+00 -0.00000000000E+00 -0.17924928739E+03  0.17924928739E+03  0.00000000000E+00 0. -1.
          6    2    1    2  501    0  0.83781206198E+02 -0.36363939043E+02 -0.60407155637E+02  0.20352398598E+03  0.17155571061E+03 0.  0.
         24    2    3    3    0    0 -0.12861695988E+02 -0.44333824809E+02 -0.53621858581E+02  0.10620235489E+03  0.79200538005E+02 0.  0.
         -6    2    1    2    0  502 -0.83781206198E+02  0.36363939043E+02  0.15124470075E+03  0.24581213392E+03  0.17090061176E+03 0.  0.
        -24    2    5    5    0    0  0.15308221058E+02  0.38989113329E+02  0.49704322875E+02  0.10383275347E+03  0.80970540259E+02 0.  0.
          5    1    3    3  501    0  0.96642902186E+02  0.79698857667E+01 -0.67852970558E+01  0.97321631091E+02  0.47000000000E+01 0. -1.
        -11    1    4    4    0    0  0.16412538214E+02 -0.47468046895E+02 -0.65070927921E+01  0.50645129512E+02  0.00000000000E+00 0.  1.
         12    1    4    4    0    0 -0.29274234202E+02  0.31342220856E+01 -0.47114765789E+02  0.55557225377E+02  0.00000000000E+00 0. -1.
         -5    1    5    5    0  502 -0.99089427256E+02 -0.26251742861E+01  0.10154037788E+03  0.14197938045E+03  0.47000000000E+01 0.  1.
         13    1    6    6    0    0  0.29857702676E+01  0.15381456716E+02  0.69121627248E+02  0.70875266406E+02  0.00000000000E+00 0. -1.
        -14    1    6    6    0    0  0.12322450790E+02  0.23607656613E+02 -0.19417304373E+02  0.32957487060E+02  0.00000000000E+00 0.  1.
</event>
<event>
12    1  0.1629553E-001  0.2771441E+03  0.7818608E-02  0.1097450E+00
         21   -1    0    0  501  502  0.00000000000E+00  0.00000000000E+00  0.47772288907E+03  0.47772288907E+03  0.00000000000E+00 0.  1.
         21   -1    0    0  502  503 -0.00000000000E+00 -0.00000000000E+00 -0.38070990682E+03  0.38070990682E+03  0.00000000000E+00 0. -1.
         -6    2    1    2    0  503 -0.20359200299E+03  0.71669866481E+02 -0.27826043811E+03  0.39273109668E+03  0.17384639611E+03 0.  0.
        -24    2    3    3    0    0 -0.18032748995E+03  0.20976381360E+01 -0.17396393203E+03  0.26513257121E+03  0.86656949804E+02 0.  0.
          6    2    1    2  501    0  0.20359200299E+03 -0.71669866481E+02  0.37527342036E+03  0.46570169920E+03  0.17164398962E+03 0.  0.
         24    2    5    5    0    0  0.93455604725E+02 -0.97690478622E+02  0.16842470341E+03  0.22987214173E+03  0.78720652654E+02 0.  0.
          5    1    5    5  501    0  0.11013639827E+03  0.26020612141E+02  0.20684871694E+03  0.23582955748E+03  0.47000000000E+01 0. -1.
        -13    1    6    6    0    0  0.57313249295E+02 -0.57632676260E+01  0.65215916262E+02  0.87012295294E+02  0.00000000000E+00 0.  1.
         14    1    6    6    0    0  0.36142355430E+02 -0.91927210996E+02  0.10320878715E+03  0.14285984643E+03  0.00000000000E+00 0. -1.
         -5    1    3    3    0  503 -0.23264513040E+02  0.69572228345E+02 -0.10429650607E+03  0.12759852547E+03  0.47000000000E+01 0.  1.
         13    1    4    4    0    0 -0.11660535231E+03 -0.39774756256E+02 -0.11753892456E+03  0.17027694562E+03  0.00000000000E+00 0. -1.
        -14    1    4    4    0    0 -0.63722137636E+02  0.41872394392E+02 -0.56425007474E+02  0.94855625587E+02  0.00000000000E+00 0.  1.
</event>
<event>
12    1  0.1629553E-001  0.2399444E+03  0.7818608E-02  0.1120029E+00
         21   -1    0    0  503  502  0.00000000000E+00  0.00000000000E+00  0.12115027087E+03  0.12115027087E+03  0.00000000000E+00 0.  1.
         21   -1    0    0  501  503 -0.00000000000E+00 -0.00000000000E+00 -0.63859076529E+03  0.63859076529E+03  0.00000000000E+00 0.  1.
          6    2    1    2  501    0 -0.16605079544E+03 -0.22889804620E+02 -0.45176057027E+03  0.51096970349E+03  0.17001651452E+03 0.  0.
         24    2    3    3    0    0 -0.73630589026E+02  0.41305203880E+00 -0.10902166609E+03  0.15519370076E+03  0.82326950782E+02 0.  0.
         -6    2    1    2    0  502  0.16605079544E+03  0.22889804620E+02 -0.65679924146E+02  0.24877133266E+03  0.17168725548E+03 0.  0.
        -24    2    5    5    0    0  0.11329117016E+03 -0.45880886974E+02 -0.67825371560E+02  0.16194000751E+03  0.81757812965E+02 0.  0.
          5    1    3    3  501    0 -0.92420206415E+02 -0.23302856659E+02 -0.34273890418E+03  0.35577600273E+03  0.47000000000E+01 0. -1.
        -13    1    4    4    0    0 -0.33750193585E+02  0.32234492414E+02 -0.88790195997E+02  0.10030870836E+03  0.00000000000E+00 0.  1.
         14    1    4    4    0    0 -0.39880395441E+02 -0.31821440375E+02 -0.20231470098E+02  0.54884992397E+02  0.00000000000E+00 0. -1.
         -5    1    5    5    0  502  0.52759625286E+02  0.68770691594E+02  0.21454474139E+01  0.86831325149E+02  0.47000000000E+01 0.  1.
         11    1    6    6    0    0  0.26271223100E+02  0.23813122581E+02 -0.19018470868E+02  0.40236105731E+02  0.00000000000E+00 0. -1.
        -12    1    6    6    0    0  0.87019947056E+02 -0.69694009555E+02 -0.48806900692E+02  0.12170390178E+03  0.00000000000E+00 0.  1.
</event>
<event>
12    1  0.1629553E-001  0.2059271E+03  0.7818608E-02  0.1145223E+00
         21   -1    0    0  501  502  0.00000000000E+00  0.00000000000E+00  0.52837758204E+02  0.52837758204E+02  0.00000000000E+00 0. -1.
         21   -1    0    0  502  503 -0.00000000000E+00 -0.00000000000E+00 -0.13196216449E+04  0.13196216449E+04  0.00000000000E+00 0. -1.
         -6    2    1    2    0  503  0.10831206839E+03  0.27738445081E+02 -0.10642366044E+04  0.10836144925E+04  0.17064551776E+03 0.  0.
        -24    2    3    3    0    0  0.11135435077E+03  0.69557114047E+02 -0.68368078089E+03  0.70072693543E+03  0.79754901600E+02 0.  0.
          6    2    1    2  501    0 -0.10831206839E+03 -0.27738445081E+02 -0.20254728237E+03  0.28884491067E+03  0.17293078191E+03 0.  0.
         24    2    5    5    0    0 -0.77719697023E+02 -0.52902520901E+02 -0.53952103214E+02  0.13498867529E+03  0.80449269682E+02 0.  0.
          5    1    5    5  501    0 -0.30592371364E+02  0.25164075820E+02 -0.14859517916E+03  0.15385623538E+03  0.47000000000E+01 0. -1.
        -13    1    6    6    0    0 -0.23866221067E+02 -0.13026724889E+02 -0.61804128256E+02  0.67520680823E+02  0.00000000000E+00 0.  1.
         14    1    6    6    0    0 -0.53853475956E+02 -0.39875796012E+02  0.78520250423E+01  0.67467994467E+02  0.00000000000E+00 0. -1.
         -5    1    3    3    0  503 -0.30422823851E+01 -0.41818668966E+02 -0.38055582346E+03  0.38288755703E+03  0.47000000000E+01 0.  1.
         11    1    4    4    0    0  0.10986527670E+03  0.31024985905E+02 -0.54198957824E+03  0.55388232658E+03  0.00000000000E+00 0. -1.
        -12    1    4    4    0    0  0.14890740735E+01  0.38532128142E+02 -0.14169120265E+03  0.14684460885E+03  0.00000000000E+00 0.  1.
</event>
<event>
12    1  0.1629553E-001  0.3017067E+03  0.7818608E-02  0.1084427E+00
         21   -1    0    0  501  502  0.00000000000E+00  0.00000000000E+00  0.53739195956E+03  0.53739195956E+03  0.00000000000E+00 0.  1.
         21   -1    0    0  502  503 -0.00000000000E+00 -0.00000000000E+00 -0.47533174627E+03  0.47533174627E+03  0.00000000000E+00 0. -1.
         -6    2    1    2    0  503  0.21070268322E+03 -0.13154047824E+03 -0.37532568300E+03  0.48137319412E+03  0.17074034546E+03 0.  0.
        -24    2    3    3    0    0  0.64922908314E+02 -0.11552063130E+03 -0.19794286798E+03  0.25116647977E+03  0.79644342529E+02 0.  0.
          6    2    1    2  501    0 -0.21070268322E+03  0.13154047824E+03  0.43738589629E+03  0.53135051171E+03  0.17125544047E+03 0.  0.
         24    2    5    5    0    0 -0.10740523279E+03  0.12247532527E+03  0.35475715722E+03  0.39867745949E+03  0.80962872858E+02 0.  0.
          5    1    5    5  501    0 -0.10329745043E+03  0.90651529703E+01  0.82628739076E+02  0.13267305222E+03  0.47000000000E+01 0. -1.
        -13    1    6    6    0    0 -0.85045963754E+02  0.54479029343E+02  0.14239647495E+03  0.17457816779E+03  0.00000000000E+00 0.  1.
         14    1    6    6    0    0 -0.22359269032E+02  0.67996295923E+02  0.21236068226E+03  0.22409929170E+03  0.00000000000E+00 0. -1.
         -5    1    3    3    0  503  0.14577977490E+03 -0.16019846934E+02 -0.17738281502E+03  0.23020671435E+03  0.47000000000E+01 0.  1.
         13    1    4    4    0    0  0.59997497116E+02 -0.47294133907E+02 -0.14771754931E+03  0.16630366543E+03  0.00000000000E+00 0. -1.
        -14    1    4    4    0    0  0.49254111979E+01 -0.68226497394E+02 -0.50225318670E+02  0.84862814340E+02  0.00000000000E+00 0.  1.
</event>
<event>
12    1  0.1629553E-001  0.2055037E+03  0.7818608E-02  0.1145744E+00
         21   -1    0    0  501  502  0.00000000000E+00  0.00000000000E+00  0.60945049494E+03  0.60945049494E+03  0.00000000000E+00 0. -1.
         21   -1    0    0  502  503 -0.00000000000E+00 -0.00000000000E+00 -0.10672495761E+03  0.10672495761E+03  0.00000000000E+00 0. -1.
         -6    2    1    2    0  503 -0.78340423742E+02 -0.76896624863E+02  0.37776407392E+02  0.20894692151E+03  0.17372808105E+03 0.  0.
        -24    2    3    3    0    0 -0.10147158716E+03 -0.66158385719E+02 -0.17466083208E+02  0.14792083472E+03  0.83078843748E+02 0.  0.
          6    2    1    2  501    0  0.78340423742E+02  0.76896624863E+02  0.46494912994E+03  0.50722853105E+03  0.17044874998E+03 0.  0.
         24    2    5    5    0    0  0.91514792346E+02  0.34919077572E+02  0.19394192768E+03  0.23263306105E+03  0.83128638788E+02 0.  0.
          5    1    5    5  501    0 -0.13174368604E+02  0.41977547291E+02  0.27100720226E+03  0.27459547000E+03  0.47000000000E+01 0. -1.
        -13    1    6    6    0    0  0.31470756855E+02  0.47366170357E+02  0.13944739803E+03  0.15059727570E+03  0.00000000000E+00 0.  1.
         14    1    6    6    0    0  0.60044035491E+02 -0.12447092786E+02  0.54494529651E+02  0.82035785354E+02  0.00000000000E+00 0. -1.
         -5    1    3    3    0  503  0.23131163421E+02 -0.10738239144E+02  0.55242490600E+02  0.61026086789E+02  0.47000000000E+01 0.  1.
         11    1    4    4    0    0 -0.64552583648E+02  0.63249132307E+01 -0.69216429179E+00  0.64865396588E+02  0.00000000000E+00 0. -1.
        -12    1    4    4    0    0 -0.36919003515E+02 -0.72483298950E+02 -0.16773918916E+02  0.83055438130E+02  0.00000000000E+00 0.  1.
</event>
<event>
12    1  0.1629553E-001  0.1815107E+03  0.7818608E-02  0.1166829E+00
         21   -1    0    0  501  502  0.00000000000E+00  0.00000000000E+00  0.33582126248E+03  0.33582126248E+03  0.00000000000E+00 0.  1.
         21   -1    0    0  502  503 -0.00000000000E+00 -0.00000000000E+00 -0.17462551670E+03  0.17462551670E+03  0.00000000000E+00 0.  1.
         -6    2    1    2    0  503  0.35808660273E+02 -0.44691579686E+02 -0.89779576738E+02  0.20071340301E+03  0.17013494734E+03 0.  0.
        -24    2    3    3    0    0 -0.29570500765E+01 -0.35778329430E+02  0.24001098150E+02  0.80088536975E+02  0.67448410214E+02 0.  0.
          6    2    1    2  501    0 -0.35808660273E+02  0.44691579686E+02  0.25097532253E+03  0.30973337617E+03  0.17223981639E+03 0.  0.
         24    2    5    5    0    0 -0.39218075990E+02  0.36434030537E+02  0.27082684746E+03  0.28746267174E+03  0.80138070068E+02 0.  0.
          5    1    5    5  501    0  0.34094157175E+01  0.82575491493E+01 -0.19851524933E+02  0.22270704427E+02  0.47000000000E+01 0. -1.
        -13    1    6    6    0    0 -0.81568979779E+01 -0.10965083996E+02  0.33803872259E+01  0.14078177065E+02  0.00000000000E+00 0.  1.
         14    1    6    6    0    0 -0.31061178013E+02  0.47399114533E+02  0.26744646023E+03  0.27338449468E+03  0.00000000000E+00 0. -1.
         -5    1    3    3    0  503  0.38765710349E+02 -0.89132502564E+01 -0.11378067489E+03  0.12062486604E+03  0.47000000000E+01 0.  1.
         11    1    4    4    0    0 -0.33320582693E+01  0.34958063519E+01 -0.20310091797E+02  0.20876376677E+02  0.00000000000E+00 0. -1.
        -12    1    4    4    0    0  0.37500819285E+00 -0.39274135782E+02  0.44311189947E+02  0.59212160297E+02  0.00000000000E+00 0.  1.
</event>
<event>
12    1  0.1629553E-001  0.1931122E+03  0.7818608E-02  0.1156028E+00
         21   -1    0    0  503  502  0.00000000000E+00  0.00000000000E+00  0.49026133660E+03  0.49026133660E+03  0.00000000000E+00 0.  1.
         21   -1    0    0  501  503 -0.00000000000E+00 -0.00000000000E+00 -0.15007154432E+03  0.15007154432E+03  0.00000000000E+00 0.  1.
          6    2    1    2  501    0  0.42020395571E+02  0.73950641570E+02 -0.55315794079E+02  0.20087847996E+03  0.17337218809E+03 0.  0.
         24    2    3    3    0    0 -0.12276308702E+02  0.14272605948E+02 -0.79873520321E+02  0.11641090068E+03  0.82566963814E+02 0.  0.
         -6    2    1    2    0  502 -0.42020395571E+02 -0.73950641570E+02  0.39550558636E+03  0.43945440097E+03  0.17164233351E+03 0.  0.
        -24    2    5    5    0    0 -0.51627302839E+02 -0.10552002779E+03  0.22700352259E+03  0.26768724954E+03  0.79536215872E+02 0.  0.
          5    1    3    3  501    0  0.54296704273E+02  0.59678035622E+02  0.24557726242E+02  0.84467579276E+02  0.47000000000E+01 0. -1.
        -11    1    4    4    0    0  0.35208662818E+02  0.95156999312E+01 -0.40868017818E+02  0.54775846529E+02  0.00000000000E+00 0.  1.
         12    1    4    4    0    0 -0.47484971520E+02  0.47569060166E+01 -0.39005502503E+02  0.61635054154E+02  0.00000000000E+00 0. -1.
         -5    1    5    5    0  502  0.96069072684E+01  0.31569386218E+02  0.16850206377E+03  0.17176715142E+03  0.47000000000E+01 0.  1.
         13    1    6    6    0    0  0.51414518784E+01 -0.13435077680E+02 -0.18989836397E+01  0.14510064733E+02  0.00000000000E+00 0. -1.
        -14    1    6    6    0    0 -0.56768754718E+02 -0.92084950108E+02  0.22890250623E+03  0.25317718481E+03  0.00000000000E+00 0.  1.
</event>
<event>
12    1  0.1629553E-001  0.1762809E+03  0.7818608E-02  0.1171469E+00
         21   -1    0    0  503  502  0.00000000000E+00  0.00000000000E+00  0.23979259309E+02  0.23979259309E+02  0.00000000000E+00 0.  1.
         21   -1    0    0  501  503 -0.00000000000E+00 -0.00000000000E+00 -0.13090042865E+04  0.13090042865E+04  0.00000000000E+00 0.  1.
          6    2    1    2  501    0 -0.24417394427E+02 -0.25720024873E+02 -0.57471860462E+03  0.60114592047E+03  0.17267661791E+03 0.  0.
         24    2    3    3    0    0 -0.26994319453E+02 -0.66033575090E+02 -0.53010878577E+03  0.54078079137E+03  0.79620432293E+02 0.  0.
         -6    2    1    2    0  502  0.24417394427E+02  0.25720024873E+02 -0.71030642261E+03  0.73183762538E+03  0.17260755224E+03 0.  0.
        -24    2    5    5    0    0 -0.28920788811E+02 -0.34340896760E+02 -0.36085540504E+03  0.37324261736E+03  0.84129179527E+02 0.  0.
          5    1    3    3  501    0  0.25769250256E+01  0.40313550218E+02 -0.44609818846E+02  0.60365129100E+02  0.47000000000E+01 0. -1.
        -13    1    4    4    0    0  0.16992281135E+02  0.42800878346E+01 -0.18575896423E+03  0.18658362619E+03  0.00000000000E+00 0.  1.
         14    1    4    4    0    0 -0.43986600588E+02 -0.70313662925E+02 -0.34434982154E+03  0.35419716518E+03  0.00000000000E+00 0. -1.
         -5    1    5    5    0  502  0.53338183238E+02  0.60060921633E+02 -0.34945101757E+03  0.35859500802E+03  0.47000000000E+01 0.  1.
         13    1    6    6    0    0  0.26731763505E+02 -0.12356234405E+01 -0.15954982706E+03  0.16177843261E+03  0.00000000000E+00 0. -1.
        -14    1    6    6    0    0 -0.55652552316E+02 -0.33105273320E+02 -0.20130557798E+03  0.21146418474E+03  0.00000000000E+00 0.  1.
</event>
<event>
12    1  0.1629553E-001  0.2047463E+03  0.7818608E-02  0.1146398E+00
         21   -1    0    0  501  502  0.00000000000E+00  0.00000000000E+00  0.44427058690E+03  0.44427058690E+03  0.00000000000E+00 0. -1.
         21   -1    0    0  502  503 -0.00000000000E+00 -0.00000000000E+00 -0.23007685846E+03  0.23007685846E+03  0.00000000000E+00 0. -1.
         -6    2    1    2    0  503  0.74603627064E+02 -0.82732868398E+02 -0.15282774295E+03  0.25549434649E+03  0.17178653437E+03 0.  0.
        -24    2    3    3    0    0  0.65539258293E+02 -0.51696973420E+02 -0.17890136544E+03  0.21369346913E+03  0.81799931268E+02 0.  0.
          6    2    1    2  501    0 -0.74603627064E+02  0.82732868398E+02  0.36702147139E+03  0.41885309888E+03  0.16829358066E+03 0.  0.
         24    2    5    5    0    0 -0.11027440132E+03  0.38341457962E+02  0.29293679706E+03  0.32529226077E+03  0.79828421380E+02 0.  0.
          5    1    5    5  501    0  0.35670774256E+02  0.44391410436E+02  0.74084674327E+02  0.93560838104E+02  0.47000000000E+01 0. -1.
        -11    1    6    6    0    0 -0.47949197337E+02  0.37149860499E+02  0.64661253078E+02  0.88658419284E+02  0.00000000000E+00 0.  1.
         12    1    6    6    0    0 -0.62325203983E+02  0.11915974633E+01  0.22827554398E+03  0.23663384149E+03  0.00000000000E+00 0. -1.
         -5    1    3    3    0  503  0.90643687705E+01 -0.31035894979E+02  0.26073622488E+02  0.41800877359E+02  0.47000000000E+01 0.  1.
         11    1    4    4    0    0  0.40390631810E+02 -0.68745831824E+02 -0.92584475482E+02  0.12218542315E+03  0.00000000000E+00 0. -1.
        -12    1    4    4    0    0  0.25148626483E+02  0.17048858404E+02 -0.86316889956E+02  0.91508045977E+02  0.00000000000E+00 0.  1.
</event>
<event>
12    1  0.1629553E-001  0.2557184E+03  0.7818608E-02  0.1109894E+00
         21   -1    0    0  503  502  0.00000000000E+00  0.00000000000E+00  0.67997128988E+02  0.67997128988E+02  0.00000000000E+00 0. -1.
         21   -1    0    0  501  503 -0.00000000000E+00 -0.00000000000E+00 -0.11958020120E+04  0.11958020120E+04  0.00000000000E+00 0.  1.
          6    2    1    2  501    0 -0.11988876836E+03  0.14519219440E+03 -0.84655436247E+03  0.88433374973E+03  0.17302543799E+03 0.  0.
         24    2    3    3    0    0  0.88038558339E+01  0.56849860462E+02 -0.35521807611E+03  0.36877619156E+03  0.80663395377E+02 0.  0.
         -6    2    1    2    0  502  0.11988876836E+03 -0.14519219440E+03 -0.28125052051E+03  0.37946539123E+03  0.17157516651E+03 0.  0.
        -24    2    5    5    0    0  0.31299829452E+02 -0.14139884666E+02 -0.15085521479E+03  0.17440995059E+03  0.80510368117E+02 0.  0.
          5    1    3    3  501    0 -0.12869262419E+03  0.88342333936E+02 -0.49133628636E+03  0.51555755817E+03  0.47000000000E+01 0. -1.
        -13    1    4    4    0    0 -0.21360581189E+02  0.36175268023E+02 -0.29747680324E+03  0.30042864862E+03  0.00000000000E+00 0.  1.
         14    1    4    4    0    0  0.30164437022E+02  0.20674592439E+02 -0.57741272874E+02  0.68347542944E+02  0.00000000000E+00 0. -1.
         -5    1    5    5    0  502  0.88588938905E+02 -0.13105230973E+03 -0.13039530572E+03  0.20505544064E+03  0.47000000000E+01 0.  1.
         13    1    6    6    0    0  0.41501150281E+02 -0.14946727952E+02 -0.30518406574E+02  0.53638822610E+02  0.00000000000E+00 0. -1.
        -14    1    6    6    0    0 -0.10201320830E+02  0.80684328548E+00 -0.12033680821E+03  0.12077112798E+03  0.00000000000E+00 0.  1.
</event>
<event>
12    1  0.1629553E-001  0.1902921E+03  0.7818608E-02  0.1158207E+00
         21   -1    0    0  503  502  0.00000000000E+00  0.00000000000E+00  0.24810733791E+03  0.24810733791E+03  0.00000000000E+00 0. -1.
         21   -1    0    0  501  503 -0.00000000000E+00 -0.00000000000E+00 -0.19265688041E+03  0.19265688041E+03  0.00000000000E+00 0. -1.
          6    2    1    2  501    0  0.46560608993E+02 -0.65262559718E+02 -0.80823218283E+02  0.20670952244E+03  0.17253794378E+03 0.  0.
         24    2    3    3    0    0  0.20835450817E+02  0.30033768204E+02 -0.22933078811E+02  0.92182092861E+02  0.81458387519E+02 0.  0.
         -6    2    1    2    0  502 -0.46560608993E+02  0.65262559718E+02  0.13627367579E+03  0.23405469588E+03  0.17258039848E+03 0.  0.
        -24    2    5    5    0    0 -0.56254258214E+02  0.56084975736E+02  0.16603403791E+03  0.20110072743E+03  0.81019348063E+02 0.  0.
          5    1    3    3  501    0  0.25725158175E+02 -0.95296327922E+02 -0.57890139472E+02  0.11452742958E+03  0.47000000000E+01 0. -1.
        -11    1    4    4    0    0 -0.22493760818E+02  0.10267866761E+02 -0.35187092784E+02  0.43006160747E+02  0.00000000000E+00 0.  1.
         12    1    4    4    0    0  0.43329211635E+02  0.19765901443E+02  0.12254013974E+02  0.49175932114E+02  0.00000000000E+00 0. -1.
         -5    1    5    5    0  502  0.96936492215E+01  0.91775839817E+01 -0.29760362119E+02  0.32953968447E+02  0.47000000000E+01 0.  1.
         13    1    6    6    0    0 -0.87294316965E+01  0.63661166033E+02  0.10842435400E+03  0.12603486652E+03  0.00000000000E+00 0. -1.
        -14    1    6    6    0    0 -0.47524826518E+02 -0.75761902971E+01  0.57609683903E+02  0.75065860911E+02  0.00000000000E+00 0.  1.
</event>
<event>
12    1  0.1629553E-001  0.2271148E+03  0.7818608E-02  0.1131005E+00
         21   -1    0    0  501  502  0.00000000000E+00  0.00000000000E+00  0.38560979752E+03  0.38560979752E+03  0.00000000000E+00 0.  1.
         21   -1    0    0  502  503 -0.00000000000E+00 -0.00000000000E+00 -0.18726985213E+03  0.18726985213E+03  0.00000000000E+00 0.  1.
         -6    2    1    2    0  503 -0.80251161932E+02 -0.12522107575E+03 -0.65912267791E+02  0.22443976039E+03  0.15462280619E+03 0.  0.
        -24    2    3    3    0    0 -0.19070983442E+02 -0.63013970763E+02  0.14429387397E+02  0.10574009860E+03  0.81475752896E+02 0.  0.
          6    2    1    2  501    0  0.80251161932E+02  0.12522107575E+03  0.26425221318E+03  0.34843988925E+03  0.17164078025E+03 0.  0.
         24    2    5    5    0    0  0.60082872473E+02  0.11857550985E+03  0.28092150756E+03  0.32103772108E+03  0.80487401781E+02 0.  0.
          5    1    5    5  501    0  0.20168289459E+02  0.66455659002E+01 -0.16669294373E+02  0.27402168176E+02  0.47000000000E+01 0. -1.
        -11    1    6    6    0    0  0.32664896487E+02  0.26008523542E+02  0.16489234864E+03  0.17009681184E+03  0.00000000000E+00 0.  1.
         12    1    6    6    0    0  0.27417975986E+02  0.92566986310E+02  0.11602915892E+03  0.15094090924E+03  0.00000000000E+00 0. -1.
         -5    1    3    3    0  503 -0.61180178490E+02 -0.62207104989E+02 -0.80341655189E+02  0.11869966179E+03  0.47000000000E+01 0.  1.
         13    1    4    4    0    0  0.18448779858E+02 -0.11933297801E+01 -0.18612376198E+02  0.26233605585E+02  0.00000000000E+00 0. -1.
        -14    1    4    4    0    0 -0.37519763301E+02 -0.61820640983E+02  0.33041763596E+02  0.79506493013E+02  0.00000000000E+00 0.  1.
</event>
<event>
12    1  0.1629553E-001  0.2328351E+03  0.7818608E-02  0.1124778E+00
         21   -1    0    0  503  502  0.00000000000E+00  0.00000000000E+00  0.49540538664E+03  0.49540538664E+03  0.00000000000E+00 0.  1.
         21   -1    0    0  501  503 -0.00000000000E+00 -0.00000000000E+00 -0.90141854268E+03  0.90141854268E+03  0.00000000000E+00 0. -1.
          6    2    1    2  501    0 -0.10638818404E+03  0.11560174329E+03 -0.85775098229E+03  0.88861211616E+03  0.17091675348E+03 0.  0.
         24    2    3    3    0    0 -0.25871938172E+02  0.96086014191E+02 -0.31775544217E+03  0.34227796669E+03  0.79270461999E+02 0.  0.
         -6    2    1    2    0  502  0.10638818404E+03 -0.11560174329E+03  0.45173782625E+03  0.50821181316E+03  0.17184287771E+03 0.  0.
        -24    2    5    5    0    0  0.53626441853E+02 -0.88387819690E+02  0.42103767365E+03  0.44121189939E+03  0.81896371071E+02 0.  0.
          5    1    3    3  501    0 -0.80516245869E+02  0.19515729096E+02 -0.53999554011E+03  0.54633414947E+03  0.47000000000E+01 0. -1.
        -13    1    4    4    0    0  0.18027751751E+02  0.85279286631E+01 -0.17784453591E+02  0.26721006530E+02  0.00000000000E+00 0.  1.
         14    1    4    4    0    0 -0.43899689923E+02  0.87558085528E+02 -0.29997098858E+03  0.31555696016E+03  0.00000000000E+00 0. -1.
         -5    1    5    5    0  502  0.52761742189E+02 -0.27213923597E+02  0.30700152605E+02  0.66999913778E+02  0.47000000000E+01 0.  1.
         11    1    6    6    0    0  0.17756827428E+02 -0.22315241468E+02  0.27945511196E+03  0.28090645155E+03  0.00000000000E+00 0. -1.
        -12    1    6    6    0    0  0.35869614425E+02 -0.66072578222E+02  0.14158256168E+03  0.16030544783E+03  0.00000000000E+00 0.  1.
</event>
<event>
12    1  0.1629553E-001  0.1908819E+03  0.7818608E-02  0.1157748E+00
         21   -1    0    0  503  502  0.00000000000E+00  0.00000000000E+00  0.19350017896E+03  0.19350017896E+03  0.00000000000E+00 0. -1.
         21   -1    0    0  501  503 -0.00000000000E+00 -0.00000000000E+00 -0.25986217856E+03  0.25986217856E+03  0.00000000000E+00 0. -1.
          6    2    1    2  501    0  0.79092654879E+02 -0.18420915084E+02 -0.15245113865E+03  0.24428928739E+03  0.17274526937E+03 0.  0.
         24    2    3    3    0    0 -0.26542225979E+02 -0.12427549301E+02 -0.76359736651E+02  0.11387977874E+03  0.79239263519E+02 0.  0.
         -6    2    1    2    0  502 -0.79092654879E+02  0.18420915084E+02  0.86089139048E+02  0.20907307014E+03  0.17235205431E+03 0.  0.
        -24    2    5    5    0    0 -0.43998698750E+02 -0.52470383850E+02  0.75702569085E+02  0.12915353024E+03  0.79124766885E+02 0.  0.
          5    1    3    3  501    0  0.10563488086E+03 -0.59933657823E+01 -0.76091402000E+02  0.13040950865E+03  0.47000000000E+01 0. -1.
        -13    1    4    4    0    0 -0.15743997989E+02 -0.19880836690E+02 -0.90855152980E+02  0.94328044415E+02  0.00000000000E+00 0.  1.
         14    1    4    4    0    0 -0.10798227990E+02  0.74532873885E+01  0.14495416328E+02  0.19551734326E+02  0.00000000000E+00 0. -1.
         -5    1    5    5    0  502 -0.35093956129E+02  0.70891298934E+02  0.10386569963E+02  0.79919539894E+02  0.47000000000E+01 0.  1.
         11    1    6    6    0    0 -0.10073949548E+02 -0.13476897954E+02  0.75618711035E+02  0.77468062430E+02  0.00000000000E+00 0. -1.
        -12    1    6    6    0    0 -0.33924749201E+02 -0.38993485896E+02  0.83858049525E-01  0.51685467811E+02  0.00000000000E+00 0.  1.
</event>
<event>
12    1  0.1629553E-001  0.1939925E+03  0.7818608E-02  0.1155178E+00
         21   -1    0    0  503  502  0.00000000000E+00  0.00000000000E+00  0.29847748187E+03  0.29847748187E+03  0.00000000000E+00 0.  1.
         21   -1    0    0  501  503 -0.00000000000E+00 -0.00000000000E+00 -0.16991805879E+03  0.16991805879E+03  0.00000000000E+00 0.  1.
          6    2    1    2  501    0  0.29963959349E+02  0.78321221365E+02 -0.55894992563E+02  0.20070819067E+03  0.17357267939E+03 0.  0.
         24    2    3    3    0    0 -0.24776926258E+02 -0.45323750750E+01  0.65166896539E+01  0.83325947220E+02  0.79160013501E+02 0.  0.
         -6    2    1    2    0  502 -0.29963959349E+02 -0.78321221365E+02  0.18445441565E+03  0.26768734999E+03  0.17493151036E+03 0.  0.
        -24    2    5    5    0    0  0.15625384582E+02  0.21559757086E+02  0.10193895677E+03  0.13026286495E+03  0.76602136438E+02 0.  0.
          5    1    3    3  501    0  0.54740885607E+02  0.82853596440E+02 -0.62411682217E+02  0.11738224345E+03  0.47000000000E+01 0. -1.
        -13    1    4    4    0    0 -0.49086802171E+02 -0.10311110678E+02 -0.12773427088E+02  0.51758995261E+02  0.00000000000E+00 0.  1.
         14    1    4    4    0    0  0.24309875914E+02  0.57787356031E+01  0.19290116742E+02  0.31566951960E+02  0.00000000000E+00 0. -1.
         -5    1    5    5    0  502 -0.45589343931E+02 -0.99880978451E+02  0.82515458873E+02  0.13742448504E+03  0.47000000000E+01 0.  1.
         11    1    6    6    0    0  0.27436663379E+02 -0.68432380168E+01  0.94465670544E+02  0.98607115946E+02  0.00000000000E+00 0. -1.
        -12    1    6    6    0    0 -0.11811278797E+02  0.28402995102E+02  0.74732862292E+01  0.31655748999E+02  0.00000000000E+00 0.  1.
</event>
<event>
12    1  0.1629553E-001  0.2249819E+03  0.7818608E-02  0.1130386E+00
         21   -1    0    0  503  502  0.00000000000E+00  0.00000000000E+00  0.19268032490E+03  0.19268032490E+03  0.00000000000E+00 0.  1.
         21   -1    0    0  501  503 -0.00000000000E+00 -0.00000000000E+00 -0.29155987861E+03  0.29155987861E+03  0.00000000000E+00 0.  1.
          6    2    1    2  501    0  0.14508482502E+03  0.24911163772E+01 -0.12690240273E+03  0.25751981948E+03  0.17075252705E+03 0.  0.
         24    2    3    3    0    0  0.70247609826E+02 -0.60257646752E+02 -0.87223045863E+02  0.15199940717E+03  0.83248119334E+02 0.  0.
         -6    2    1    2    0  502 -0.14508482502E+03 -0.24911163772E+01  0.28022849014E+02  0.22672038403E+03  0.17193324390E+03 0.  0.
        -24    2    5    5    0    0 -0.10384015578E+03 -0.40873822217E+02 -0.35067850820E+02  0.14200390834E+03  0.80510300751E+02 0.  0.
          5    1    3    3  501    0  0.74837215191E+02  0.62748763130E+02 -0.39679356865E+02  0.10552041231E+03  0.47000000000E+01 0. -1.
        -13    1    4    4    0    0  0.13421756180E+02 -0.88735562598E+01 -0.72144568910E+02  0.73916996441E+02  0.00000000000E+00 0.  1.
         14    1    4    4    0    0  0.56825853647E+02 -0.51384090493E+02 -0.15078476953E+02  0.78082410732E+02  0.00000000000E+00 0. -1.
         -5    1    5    5    0  502 -0.41244669238E+02  0.38382705840E+02  0.63090699834E+02  0.84716475693E+02  0.47000000000E+01 0.  1.
         11    1    6    6    0    0  0.87649799228E+01  0.10131619702E+02  0.38482261426E+00  0.13402338575E+02  0.00000000000E+00 0. -1.
        -12    1    6    6    0    0 -0.11260513570E+03 -0.51005441919E+02 -0.35452673434E+02  0.12860156976E+03  0.00000000000E+00 0.  1.
</event>
<event>
12    1  0.1629553E-001  0.2477771E+03  0.7818608E-02  0.1114921E+00
         21   -1    0    0  503  502  0.00000000000E+00  0.00000000000E+00  0.82280460760E+02  0.82280460760E+02  0.00000000000E+00 0.  1.
         21   -1    0    0  501  503 -0.00000000000E+00 -0.00000000000E+00 -0.10128840343E+04  0.10128840343E+04  0.00000000000E+00 0.  1.
          6    2    1    2  501    0  0.74038330694E+02 -0.16193473727E+03 -0.74917977887E+03  0.78909051326E+03  0.17230485633E+03 0.  0.
         24    2    3    3    0    0  0.10788158785E+03 -0.76412026465E+02 -0.43054268326E+03  0.45741116689E+03  0.79879526129E+02 0.  0.
         -6    2    1    2    0  502 -0.74038330694E+02  0.16193473727E+03 -0.18142379463E+03  0.30607398175E+03  0.17047626082E+03 0.  0.
        -24    2    5    5    0    0  0.63549456093E+01  0.10930041840E+03 -0.15461926469E+03  0.20620395010E+03  0.81400154961E+02 0.  0.
          5    1    3    3  501    0 -0.33843257161E+02 -0.85522710801E+02 -0.31863709560E+03  0.33167934638E+03  0.47000000000E+01 0. -1.
        -11    1    4    4    0    0 -0.48067134559E+01 -0.13424853537E+02 -0.12367105508E+03  0.12449040546E+03  0.00000000000E+00 0.  1.
         12    1    4    4    0    0  0.11268830131E+03 -0.62987172928E+02 -0.30687162818E+03  0.33292076143E+03  0.00000000000E+00 0. -1.
         -5    1    5    5    0  502 -0.80393276303E+02  0.52634318863E+02 -0.26804529943E+02  0.99870031653E+02  0.47000000000E+01 0.  1.
         11    1    6    6    0    0  0.23362128017E+02 -0.75225122227E+00 -0.15685618897E+02  0.28149485743E+02  0.00000000000E+00 0. -1.
        -12    1    6    6    0    0 -0.17007182408E+02  0.11005266963E+03 -0.13893364579E+03  0.17805446436E+03  0.00000000000E+00 0.  1.
</event>
<event>
12    1  0.1629553E-001  0.1751724E+03  0.7818608E-02  0.1172787E+00
         21   -1    0    0  501  502  0.00000000000E+00  0.00000000000E+00  0.23759126587E+03  0.23759126587E+03  0.00000000000E+00 0. -1.
         21   -1    0    0  502  503 -0.00000000000E+00 -0.00000000000E+00 -0.15660679883E+03  0.15660679883E+03  0.00000000000E+00 0.  1.
         -6    2    1    2    0  503 -0.26343691362E+01  0.32012711918E+02 -0.43119498449E+02  0.17951881240E+03  0.17127743352E+03 0.  0.
        -24    2    3    3    0    0  0.30602287986E+02 -0.29259425041E+02  0.12169116339E+02  0.90424081528E+02  0.78967164974E+02 0.  0.
          6    2    1    2  501    0  0.26343691362E+01 -0.32012711918E+02  0.12410396549E+03  0.21467925230E+03  0.17220230397E+03 0.  0.
         24    2    5    5    0    0  0.66940554304E+02 -0.21637447402E+02  0.71795207153E+02  0.13100591268E+03  0.84016548648E+02 0.  0.
          5    1    5    5  501    0 -0.64306185167E+02 -0.10375264516E+02  0.52308758338E+02  0.83673339622E+02  0.47000000000E+01 0. -1.
        -11    1    6    6    0    0  0.39216680607E+02 -0.40134676401E+02  0.49730758617E+01  0.56333575878E+02  0.00000000000E+00 0.  1.
         12    1    6    6    0    0  0.27723873696E+02  0.18497228999E+02  0.66822131292E+02  0.74672336804E+02  0.00000000000E+00 0. -1.
         -5    1    3    3    0  503 -0.33236657122E+02  0.61272136959E+02 -0.55288614788E+02  0.89094730873E+02  0.47000000000E+01 0.  1.
         13    1    4    4    0    0  0.56949651082E+02 -0.18985575773E+02  0.10587810471E+01  0.60040285334E+02  0.00000000000E+00 0. -1.
        -14    1    4    4    0    0 -0.26347363095E+02 -0.10273849268E+02  0.11110335292E+02  0.30383796194E+02  0.00000000000E+00 0.  1.
</event>
<event>
12    1  0.1629553E-001  0.1795370E+03  0.7818608E-02  0.1168879E+00
         21   -1    0    0  501  502  0.00000000000E+00  0.00000000000E+00  0.31183597600E+03  0.31183597600E+03  0.00000000000E+00 0.  1.
         21   -1    0    0  502  503 -0.00000000000E+00 -0.00000000000E+00 -0.12846811064E+03  0.12846811064E+03  0.00000000000E+00 0.  1.
         -6    2    1    2    0  503 -0.41222347436E+02  0.32042650649E+02 -0.79152362928E+01  0.17971135579E+03  0.17177749284E+03 0.  0.
        -24    2    3    3    0    0  0.15324838237E+02 -0.30381067360E+01  0.45503839869E+02  0.94248314397E+02  0.81043596689E+02 0.  0.
          6    2    1    2  501    0  0.41222347436E+02 -0.32042650649E+02  0.19128310165E+03  0.26059273085E+03  0.16909563272E+03 0.  0.
         24    2    5    5    0    0  0.91645861651E+01 -0.63961784110E+02  0.18924058086E+03  0.21506479404E+03  0.79156608861E+02 0.  0.
          5    1    5    5  501    0  0.32057761271E+02  0.31919133460E+02  0.20425207943E+01  0.45527936805E+02  0.47000000000E+01 0. -1.
        -11    1    6    6    0    0  0.14843760175E+02 -0.13916970602E+02  0.11856352298E+01  0.20381977769E+02  0.00000000000E+00 0.  1.
         12    1    6    6    0    0 -0.56791740102E+01 -0.50044813508E+02  0.18805494563E+03  0.19468281627E+03  0.00000000000E+00 0. -1.
         -5    1    3    3    0  503 -0.56547185673E+02  0.35080757385E+02 -0.53419076162E+02  0.85463041394E+02  0.47000000000E+01 0.  1.
         11    1    4    4    0    0 -0.23780935131E+02 -0.18683460103E+02 -0.25482869455E+01  0.30349601702E+02  0.00000000000E+00 0. -1.
        -12    1    4    4    0    0  0.39105773368E+02  0.15645353367E+02  0.48052126815E+02  0.63898712695E+02  0.00000000000E+00 0.  1.
</event>
<event>
12    1  0.1629553E-001  0.2211736E+03  0.7818608E-02  0.1133017E+00
         21   -1    0    0  503  502  0.00000000000E+00  0.00000000000E+00  0.90030388142E+03  0.90030388142E+03  0.00000000000E+00 0. -1.
         21   -1    0    0  501  503 -0.00000000000E+00 -0.00000000000E+00 -0.54549273342E+02  0.54549273342E+02  0.00000000000E+00 0.  1.
          6    2    1    2  501    0  0.96148295251E+02  0.10114885752E+03  0.45335582603E+03  0.50442965462E+03  0.17158725303E+03 0.  0.
         24    2    3    3    0    0  0.14427630769E+02  0.38571105579E+02  0.98417820722E+02  0.13483890845E+03  0.82459548146E+02 0.  0.
         -6    2    1    2    0  502 -0.96148295251E+02 -0.10114885752E+03  0.39239878205E+03  0.45042350015E+03  0.17154864988E+03 0.  0.
        -24    2    5    5    0    0 -0.89409464369E+02 -0.62658417564E+01  0.26401227024E+03  0.29056923860E+03  0.81821088286E+02 0.  0.
          5    1    3    3  501    0  0.81720664482E+02  0.62577751943E+02  0.35493800531E+03  0.36959074617E+03  0.47000000000E+01 0. -1.
        -11    1    4    4    0    0 -0.32144223358E+02  0.28658521238E+02  0.58882091491E+02  0.72949726752E+02  0.00000000000E+00 0.  1.
         12    1    4    4    0    0  0.46571854126E+02  0.99125843405E+01  0.39535729231E+02  0.61889181695E+02  0.00000000000E+00 0. -1.
         -5    1    5    5    0  502 -0.67388308818E+01 -0.94883015765E+02  0.12838651181E+03  0.15985426155E+03  0.47000000000E+01 0.  1.
         11    1    6    6    0    0 -0.51615084642E+02 -0.43718235189E+00  0.23983421527E+03  0.24532582193E+03  0.00000000000E+00 0. -1.
        -12    1    6    6    0    0 -0.37794379728E+02 -0.58286594045E+01  0.24178054971E+02  0.45243416666E+02  0.00000000000E+00 0.  1.
</event>
<event>
12    1  0.1629553E-001  0.2300423E+03  0.7818608E-02  0.1126910E+00
         21   -1    0    0  501  502  0.00000000000E+00  0.00000000000E+00  0.38116146576E+03  0.38116146576E+03  0.00000000000E+00 0.  1.
         21   -1    0    0  502  503 -0.00000000000E+00 -0.00000000000E+00 -0.16143224671E+03  0.16143224671E+03  0.00000000000E+00 0. -1.
         -6    2    1    2    0  503  0.66817425085E+02  0.13898134904E+03  0.21398154522E+03  0.31417761938E+03  0.17070176082E+03 0.  0.
        -24    2    3    3    0    0 -0.92962797449E-01  0.25993130041E+02  0.14545843168E+03  0.16598570081E+03  0.75613795541E+02 0.  0.
          6    2    1    2  501    0 -0.66817425085E+02 -0.13898134904E+03  0.57476738286E+01  0.22841609310E+03  0.16840573671E+03 0.  0.
         24    2    5    5    0    0 -0.51639305704E+02 -0.39108579302E+02  0.54479497882E+02  0.11615823761E+03  0.79552634197E+02 0.  0.
          5    1    5    5  501    0 -0.15178119381E+02 -0.99872769734E+02 -0.48731824053E+02  0.11225785548E+03  0.47000000000E+01 0. -1.
        -11    1    6    6    0    0 -0.43038665171E+02 -0.35397446059E+01 -0.78392144656E+01  0.43889745671E+02  0.00000000000E+00 0.  1.
         12    1    6    6    0    0 -0.86006405331E+01 -0.35568834696E+02  0.62318712347E+02  0.72268491944E+02  0.00000000000E+00 0. -1.
         -5    1    3    3    0  503  0.66910387883E+02  0.11298821899E+03  0.68523113544E+02  0.14819191856E+03  0.47000000000E+01 0.  1.
         13    1    4    4    0    0 -0.49060640998E+01 -0.96329303371E+01 -0.45506489154E+01  0.11729075726E+02  0.00000000000E+00 0. -1.
        -14    1    4    4    0    0  0.48131013024E+01  0.35626060379E+02  0.15000908059E+03  0.15425662509E+03  0.00000000000E+00 0.  1.
</event>
<event>
12    1  0.1629553E-001  0.2200380E+03  0.7818608E-02  0.1134173E+00
         21   -1    0    0  501  502  0.00000000000E+00  0.00000000000E+00  0.37892200051E+03  0.37892200051E+03  0.00000000000E+00 0.  1.
         21   -1    0    0  502  503 -0.00000000000E+00 -0.00000000000E+00 -0.12687528128E+03  0.12687528128E+03  0.00000000000E+00 0.  1.
         -6    2    1    2    0  503 -0.84648985099E+02  0.10296604745E+03  0.11897941393E+03  0.24865216222E+03  0.17292871142E+03 0.  0.
        -24    2    3    3    0    0 -0.68077407253E+02  0.60897801112E+01  0.14440576729E+02  0.10509002637E+03  0.78509646457E+02 0.  0.
          6    2    1    2  501    0  0.84648985099E+02 -0.10296604745E+03  0.13306730530E+03  0.25714511958E+03  0.17506926394E+03 0.  0.
         24    2    5    5    0    0  0.58198431776E+02 -0.11384936950E+03  0.34208516854E+02  0.15412459481E+03  0.78964749757E+02 0.  0.
          5    1    5    5  501    0  0.26450553323E+02  0.10883322049E+02  0.98858788443E+02  0.10302052476E+03  0.47000000000E+01 0. -1.
        -11    1    6    6    0    0 -0.96858369704E+01 -0.58695555207E+02 -0.18493847273E+01  0.59518096935E+02  0.00000000000E+00 0.  1.
         12    1    6    6    0    0  0.67884268747E+02 -0.55153814292E+02  0.36057901581E+02  0.94606497877E+02  0.00000000000E+00 0. -1.
         -5    1    3    3    0  503 -0.16571577846E+02  0.96876267339E+02  0.10453883720E+03  0.14356213585E+03  0.47000000000E+01 0.  1.
         13    1    4    4    0    0 -0.42378881848E+02 -0.17459669802E+02 -0.25198892581E+02  0.52304817021E+02  0.00000000000E+00 0. -1.
        -14    1    4    4    0    0 -0.25698525405E+02  0.23549449914E+02  0.39639469310E+02  0.52785209353E+02  0.00000000000E+00 0.  1.
</event>
<event>
12    1  0.1629553E-001  0.2013353E+03  0.7818608E-02  0.1148634E+00
         21   -1    0    0  501  502  0.00000000000E+00  0.00000000000E+00  0.73677149332E+03  0.73677149332E+03  0.00000000000E+00 0.  1.
         21   -1    0    0  502  503 -0.00000000000E+00 -0.00000000000E+00 -0.56289013738E+02  0.56289013738E+02  0.00000000000E+00 0.  1.
         -6    2    1    2    0  503 -0.21312639690E+02 -0.10316952485E+03  0.28008016713E+03  0.34488875805E+03  0.17147937468E+03 0.  0.
        -24    2    3    3    0    0  0.55811653319E+02 -0.60123894061E+02  0.15892750849E+03  0.19488495944E+03  0.77410407420E+02 0.  0.
          6    2    1    2  501    0  0.21312639690E+02  0.10316952485E+03  0.40040231246E+03  0.44817174902E+03  0.17157425601E+03 0.  0.
         24    2    5    5    0    0 -0.15274186254E+02  0.12038282559E+03  0.36994917127E+03  0.39733497726E+03  0.79292933874E+02 0.  0.
          5    1    5    5  501    0  0.36586825944E+02 -0.17213300740E+02  0.30453141183E+02  0.50836771760E+02  0.47000000000E+01 0. -1.
        -11    1    6    6    0    0  0.67418727151E+01  0.57999453548E+02  0.74954293955E+02  0.95013344546E+02  0.00000000000E+00 0.  1.
         12    1    6    6    0    0 -0.22016058969E+02  0.62383372037E+02  0.29499487732E+03  0.30232163271E+03  0.00000000000E+00 0. -1.
         -5    1    3    3    0  503 -0.77124293009E+02 -0.43045630784E+02  0.12115265864E+03  0.15000379861E+03  0.47000000000E+01 0.  1.
         11    1    4    4    0    0  0.30868446973E+02  0.82340653674E+00  0.10689037112E+02  0.32677125505E+02  0.00000000000E+00 0. -1.
        -12    1    4    4    0    0  0.24943206346E+02 -0.60947300598E+02  0.14823847138E+03  0.16220783393E+03  0.00000000000E+00 0.  1.
</event>
<event>
12    1  0.1629553E-001  0.2335663E+03  0.7818608E-02  0.1124621E+00
         21   -1    0    0  503  502  0.00000000000E+00  0.00000000000E+00  0.50744765603E+03  0.50744765603E+03  0.00000000000E+00 0. -1.
         21   -1    0    0  501  503 -0.00000000000E+00 -0.00000000000E+00 -0.11265488141E+03  0.11265488141E+03  0.00000000000E+00 0. -1.
          6    2    1    2  501    0 -0.72368252463E+02  0.13698478826E+03  0.27228321824E+03  0.35873579941E+03  0.17478909195E+03 0.  0.
         24    2    3    3    0    0 -0.54385191346E+02  0.15808306308E+03  0.27378040891E+03  0.33057804262E+03  0.79863171043E+02 0.  0.
         -6    2    1    2    0  502  0.72368252463E+02 -0.13698478826E+03  0.12250955638E+03  0.26136673803E+03  0.17117822339E+03 0.  0.
        -24    2    5    5    0    0  0.87642308148E+02 -0.14516992523E+03  0.60659988559E+02  0.19696369242E+03  0.79746978311E+02 0.  0.
          5    1    3    3  501    0 -0.17983061117E+02 -0.21098274816E+02 -0.14971906755E+01  0.28157756787E+02  0.47000000000E+01 0. -1.
        -11    1    4    4    0    0 -0.10616344771E+02  0.33955841764E+02  0.11953993440E+02  0.37531372548E+02  0.00000000000E+00 0.  1.
         12    1    4    4    0    0 -0.43768846575E+02  0.12412722132E+03  0.26182641547E+03  0.29304667007E+03  0.00000000000E+00 0. -1.
         -5    1    5    5    0  502 -0.15274055684E+02  0.81851369640E+01  0.61849567825E+02  0.64403045614E+02  0.47000000000E+01 0.  1.
         13    1    6    6    0    0  0.63101932698E+02 -0.14889451651E+03  0.58801507740E+02  0.17207279933E+03  0.00000000000E+00 0. -1.
        -14    1    6    6    0    0  0.24540375449E+02  0.37245912858E+01  0.18584808194E+01  0.24890893081E+02  0.00000000000E+00 0.  1.
</event>
<event>
12    1  0.1629553E-001  0.2772115E+03  0.7818608E-02  0.1097277E+00
         21   -1    0    0  503  502  0.00000000000E+00  0.00000000000E+00  0.47484525681E+03  0.47484525681E+03  0.00000000000E+00 0.  1.
         21   -1    0    0  501  503 -0.00000000000E+00 -0.00000000000E+00 -0.20630539407E+03  0.20630539407E+03  0.00000000000E+00 0.  1.
          6    2    1    2  501    0  0.18116070497E+03 -0.11855984917E+03 -0.24193018926E+02  0.27826519202E+03  0.17312012033E+03 0.  0.
         24    2    3    3    0    0  0.37643622418E+02 -0.28362477059E+02 -0.50547862077E+02  0.10665695597E+03  0.81235137000E+02 0.  0.
         -6    2    1    2    0  502 -0.18116070497E+03  0.11855984917E+03  0.29273288166E+03  0.40288545886E+03  0.17247757562E+03 0.  0.
        -24    2    5    5    0    0 -0.35178611666E+02  0.43745611031E+02  0.41376702897E+02  0.10270224747E+03  0.75395668908E+02 0.  0.
          5    1    3    3  501    0  0.14351708256E+03 -0.90197372111E+02  0.26354843151E+02  0.17160823605E+03  0.47000000000E+01 0. -1.
        -13    1    4    4    0    0  0.32703185449E+02  0.15770732755E+02 -0.50562921108E+02  0.62248079016E+02  0.00000000000E+00 0.  1.
         14    1    4    4    0    0  0.49404369690E+01 -0.44133209814E+02  0.15059031637E-01  0.44408876958E+02  0.00000000000E+00 0. -1.
         -5    1    5    5    0  502 -0.14598209331E+03  0.74814238138E+02  0.25135617876E+03  0.30018321138E+03  0.47000000000E+01 0.  1.
         13    1    6    6    0    0 -0.57967908143E+02  0.40263420167E+02  0.27204313477E+02  0.75640571453E+02  0.00000000000E+00 0. -1.
        -14    1    6    6    0    0  0.22789296477E+02  0.34821908649E+01  0.14172389420E+02  0.27061676020E+02  0.00000000000E+00 0.  1.
</event>
<event>
12    1  0.1629553E-001  0.1804728E+03  0.7818608E-02  0.1168254E+00
         21   -1    0    0  501  502  0.00000000000E+00  0.00000000000E+00  0.43702989017E+03  0.43702989017E+03  0.00000000000E+00 0.  1.
         21   -1    0    0  502  503 -0.00000000000E+00 -0.00000000000E+00 -0.12109187160E+03  0.12109187160E+03  0.00000000000E+00 0. -1.
         -6    2    1    2    0  503  0.45761269177E+02 -0.58347037257E+01 -0.16902325362E+02  0.18126255394E+03  0.17447718285E+03 0.  0.
        -24    2    3    3    0    0  0.69105729595E+01 -0.35474353980E+02 -0.66563145914E+02  0.11143295734E+03  0.81734116368E+02 0.  0.
          6    2    1    2  501    0 -0.45761269177E+02  0.58347037257E+01  0.33284034393E+03  0.37685920783E+03  0.17062247934E+03 0.  0.
         24    2    5    5    0    0 -0.28086592137E+02  0.44114650994E+02  0.31618320068E+03  0.33128181220E+03  0.83909854087E+02 0.  0.
          5    1    5    5  501    0 -0.17674677040E+02 -0.38279947268E+02  0.16657143250E+02  0.45577395632E+02  0.47000000000E+01 0. -1.
        -11    1    6    6    0    0  0.42870679543E+01 -0.18145345581E+01  0.21879963633E+03  0.21884915432E+03  0.00000000000E+00 0.  1.
         12    1    6    6    0    0 -0.32373660091E+02  0.45929185552E+02  0.97383564347E+02  0.11243265788E+03  0.00000000000E+00 0. -1.
         -5    1    3    3    0  503  0.38850696218E+02  0.29639650254E+02  0.49660820552E+02  0.69829596602E+02  0.47000000000E+01 0.  1.
         13    1    4    4    0    0  0.34463208461E+02 -0.44576684777E+01 -0.60131045078E+02  0.69450170107E+02  0.00000000000E+00 0. -1.
        -14    1    4    4    0    0 -0.27552635502E+02 -0.31016685502E+02 -0.64321008358E+01  0.41982787232E+02  0.00000000000E+00 0.  1.
</event>
<event>
12    1  0.1629553E-001  0.2102527E+03  0.7818608E-02  0.1141429E+00
         21   -1    0    0  501  502  0.00000000000E+00  0.00000000000E+00  0.16005089383E+04  0.16005089383E+04  0.00000000000E+00 0. -1.
         21   -1    0    0  502  503 -0.00000000000E+00 -0.00000000000E+00 -0.12592788311E+03  0.12592788311E+03  0.00000000000E+00 0. -1.
         -6    2    1    2    0  503  0.61106271335E+02 -0.10316823075E+03 -0.25449012533E+02  0.21178727511E+03  0.17270940168E+03 0.  0.
        -24    2    3    3    0    0  0.43479252407E+02 -0.37287523801E+02  0.50758013465E+02  0.10941257044E+03  0.78191622436E+02 0.  0.
          6    2    1    2  501    0 -0.61106271335E+02  0.10316823075E+03  0.15000300677E+04  0.15146495463E+04  0.17232348594E+03 0.  0.
         24    2    5    5    0    0 -0.84949868200E+02  0.36261485431E+02  0.63892108384E+03  0.65060336593E+03  0.80828293057E+02 0.  0.
          5    1    5    5  501    0  0.23843596865E+02  0.66906745322E+02  0.86110898390E+03  0.86404618038E+03  0.47000000000E+01 0. -1.
        -11    1    6    6    0    0 -0.16922397499E+02 -0.20833404141E+02  0.73448945660E+02  0.78199398231E+02  0.00000000000E+00 0.  1.
         12    1    6    6    0    0 -0.68027470701E+02  0.57094889572E+02  0.56547213818E+03  0.57240396770E+03  0.00000000000E+00 0. -1.
         -5    1    3    3    0  503  0.17627018928E+02 -0.65880706951E+02 -0.76207025999E+02  0.10237470467E+03  0.47000000000E+01 0.  1.
         13    1    4    4    0    0 -0.34675590979E+01 -0.22570175569E+02 -0.14974307430E+02  0.27306897926E+02  0.00000000000E+00 0. -1.
        -14    1    4    4    0    0  0.46946811505E+02 -0.14717348232E+02  0.65732320895E+02  0.82105672519E+02  0.00000000000E+00 0.  1.
</event>
<event>
12    1  0.1629553E-001  0.1925061E+03  0.7818608E-02  0.1156306E+00
         21   -1    0    0  501  502  0.00000000000E+00  0.00000000000E+00  0.29694611539E+02  0.29694611539E+02  0.00000000000E+00 0.  1.
         21   -1    0    0  502  503 -0.00000000000E+00 -0.00000000000E+00 -0.13967478498E+04  0.13967478498E+04  0.00000000000E+00 0.  1.
         -6    2    1    2    0  503 -0.54581775686E+02 -0.67403122076E+02 -0.91884114749E+03  0.93879051843E+03  0.17186108364E+03 0.  0.
        -24    2    3    3    0    0 -0.39048245757E+02 -0.11204599802E+03 -0.74657292392E+03  0.76009326669E+03  0.79319431293E+02 0.  0.
          6    2    1    2  501    0  0.54581775686E+02  0.67403122076E+02 -0.44821209082E+03  0.48765194296E+03  0.17142925074E+03 0.  0.
         24    2    5    5    0    0  0.18804324563E+02 -0.28708840746E+02 -0.27952667094E+03  0.29018195464E+03  0.69947172007E+02 0.  0.
          5    1    5    5  501    0  0.35777451124E+02  0.96111962822E+02 -0.16868541988E+03  0.19746998832E+03  0.47000000000E+01 0. -1.
        -11    1    6    6    0    0  0.39242779540E+02 -0.30174641093E+02 -0.12736551848E+03  0.13664728321E+03  0.00000000000E+00 0.  1.
         12    1    6    6    0    0 -0.20438454977E+02  0.14658003468E+01 -0.15216115246E+03  0.15353467143E+03  0.00000000000E+00 0. -1.
         -5    1    3    3    0  503 -0.15533529929E+02  0.44642875944E+02 -0.17226822357E+03  0.17869725174E+03  0.47000000000E+01 0.  1.
         11    1    4    4    0    0  0.22625018584E+02 -0.49264661097E+02 -0.25408956186E+03  0.25980839814E+03  0.00000000000E+00 0. -1.
        -12    1    4    4    0    0 -0.61673264342E+02 -0.62781336923E+02 -0.49248336206E+03  0.50028486855E+03  0.00000000000E+00 0.  1.
</event>
<event>
12    1  0.1629553E-001  0.3532622E+03  0.7818608E-02  0.1062096E+00
         21   -1    0    0  503  502  0.00000000000E+00  0.00000000000E+00  0.12952577695E+04  0.12952577695E+04  0.00000000000E+00 0.  1.
         21   -1    0    0  501  503 -0.00000000000E+00 -0.00000000000E+00 -0.12013187481E+03  0.12013187481E+03  0.00000000000E+00 0.  1.
          6    2    1    2  501    0 -0.10610912389E+03  0.28047297904E+03  0.25356795043E+03  0.42844322004E+03  0.17129696194E+03 0.  0.
         24    2    3    3    0    0 -0.99894835829E+02  0.15320578576E+03  0.21872110889E+03  0.29626172275E+03  0.80505241311E+02 0.  0.
         -6    2    1    2    0  502  0.10610912389E+03 -0.28047297904E+03  0.92155794424E+03  0.98694642425E+03  0.18673500373E+03 0.  0.
        -24    2    5    5    0    0  0.87037181756E+02 -0.70002780475E+02  0.44004945258E+03  0.46108145965E+03  0.80478142587E+02 0.  0.
          5    1    3    3  501    0 -0.62142880569E+01  0.12726719327E+03  0.34846841541E+02  0.13218149729E+03  0.47000000000E+01 0. -1.
        -13    1    4    4    0    0 -0.33789966126E+02  0.11457182204E+03  0.10425385567E+03  0.15854756586E+03  0.00000000000E+00 0.  1.
         14    1    4    4    0    0 -0.66104869703E+02  0.38633963726E+02  0.11446725321E+03  0.13771415689E+03  0.00000000000E+00 0. -1.
         -5    1    5    5    0  502  0.19071942130E+02 -0.21047019856E+03  0.48150849165E+03  0.52586496460E+03  0.47000000000E+01 0.  1.
         13    1    6    6    0    0  0.82942419793E+02 -0.48035630378E+02  0.42083121814E+03  0.43160836524E+03  0.00000000000E+00 0. -1.
        -14    1    6    6    0    0  0.40947619633E+01 -0.21967150097E+02  0.19218234442E+02  0.29473094408E+02  0.00000000000E+00 0.  1.
</event>
<event>
12    1  0.1629553E-001  0.1946617E+03  0.7818608E-02  0.1154561E+00
         21   -1    0    0  503  502  0.00000000000E+00  0.00000000000E+00  0.21136279902E+03  0.21136279902E+03  0.00000000000E+00 0. -1.
         21   -1    0    0  501  503 -0.00000000000E+00 -0.00000000000E+00 -0.18082717373E+03  0.18082717373E+03  0.00000000000E+00 0. -1.
          6    2    1    2  501    0  0.87102004011E+02  0.99683346561E+01 -0.79560096055E+01  0.19482421292E+03  0.17380175215E+03 0.  0.
         24    2    3    3    0    0  0.37631875017E+01 -0.36716164790E+02  0.24526612034E+02  0.93819205448E+02  0.82693713642E+02 0.  0.
         -6    2    1    2    0  502 -0.87102004011E+02 -0.99683346561E+01  0.38491634896E+02  0.19736575984E+03  0.17258479192E+03 0.  0.
        -24    2    5    5    0    0 -0.11731693020E+02  0.46904840986E+02  0.41111041897E+02  0.10279201518E+03  0.80860273861E+02 0.  0.
          5    1    3    3  501    0  0.83338816509E+02  0.46684499446E+02 -0.32482621640E+02  0.10100500747E+03  0.47000000000E+01 0. -1.
        -11    1    4    4    0    0  0.34277602700E+02 -0.31962711203E+02 -0.95500754536E+01  0.47830668984E+02  0.00000000000E+00 0.  1.
         12    1    4    4    0    0 -0.30514415198E+02 -0.47534535866E+01  0.34076687488E+02  0.45988536463E+02  0.00000000000E+00 0. -1.
         -5    1    5    5    0  502 -0.75370310990E+02 -0.56873175642E+02 -0.26194070008E+01  0.94573744662E+02  0.47000000000E+01 0.  1.
         11    1    6    6    0    0 -0.26732598687E+02  0.85832908150E+01  0.52981536306E+02  0.59961219994E+02  0.00000000000E+00 0. -1.
        -12    1    6    6    0    0  0.15000905667E+02  0.38321550171E+02 -0.11870494410E+02  0.42830795182E+02  0.00000000000E+00 0.  1.
</event>
<event>
12    1  0.1629553E-001  0.1790861E+03  0.7818608E-02  0.1169907E+00
         21   -1    0    0  503  502  0.00000000000E+00  0.00000000000E+00  0.57463809055E+03  0.57463809055E+03  0.00000000000E+00 0.  1.
         21   -1    0    0  501  503 -0.00000000000E+00 -0.00000000000E+00 -0.11866198293E+03  0.11866198293E+03  0.00000000000E+00 0.  1.
          6    2    1    2  501    0 -0.25578007542E+02  0.26211367880E+02 -0.28775673083E+02  0.17652534940E+03  0.17027004828E+03 0.  0.
         24    2    3    3    0    0  0.47122335992E+02  0.38122459313E+02 -0.14919327024E+02  0.10141674553E+03  0.79930804454E+02 0.  0.
         -6    2    1    2    0  502  0.25578007542E+02 -0.26211367880E+02  0.48475178071E+03  0.51677472409E+03  0.17530132995E+03 0.  0.
        -24    2    5    5    0    0  0.67869840987E+02  0.27702424310E+02  0.26118205544E+03  0.28289268498E+03  0.80240049221E+02 0.  0.
          5    1    3    3  501    0 -0.72700343534E+02 -0.11911091433E+02 -0.13856346059E+02  0.75108603870E+02  0.47000000000E+01 0. -1.
        -11    1    4    4    0    0 -0.36056145075E+01 -0.16500661069E+02 -0.20619224269E+02  0.26653792997E+02  0.00000000000E+00 0.  1.
         12    1    4    4    0    0  0.50727950500E+02  0.54623120382E+02  0.56998972444E+01  0.74762952528E+02  0.00000000000E+00 0. -1.
         -5    1    5    5    0  502 -0.42291833445E+02 -0.53913792190E+02  0.22356972526E+03  0.23388203911E+03  0.47000000000E+01 0.  1.
         11    1    6    6    0    0  0.57814869009E+02  0.16769048619E+02  0.75237647568E+02  0.96355921882E+02  0.00000000000E+00 0. -1.
        -12    1    6    6    0    0  0.10054971978E+02  0.10933375690E+02  0.18594440788E+03  0.18653676310E+03  0.00000000000E+00 0.  1.
</event>
<event>
12    1  0.1629553E-001  0.3271938E+03  0.7818608E-02  0.1072394E+00
         21   -1    0    0  501  502  0.00000000000E+00  0.00000000000E+00  0.55807221765E+03  0.55807221765E+03  0.00000000000E+00 0. -1.
         21   -1    0    0  502  503 -0.00000000000E+00 -0.00000000000E+00 -0.22465496147E+03  0.22465496147E+03  0.00000000000E+00 0.  1.
         -6    2    1    2    0  503 -0.27779558359E+03 -0.70596279881E+01  0.17025960476E+02  0.32763644408E+03  0.17272964873E+03 0.  0.
        -24    2    3    3    0    0 -0.23740848263E+03  0.30584598053E+02 -0.31859834879E+02  0.25374384184E+03  0.77927420919E+02 0.  0.
          6    2    1    2  501    0  0.27779558359E+03  0.70596279881E+01  0.31639129570E+03  0.45509073504E+03  0.17258012782E+03 0.  0.
         24    2    5    5    0    0  0.10417388414E+03  0.33530106284E+01  0.55113749351E+02  0.14132923364E+03  0.77929366084E+02 0.  0.
          5    1    5    5  501    0  0.17362169945E+03  0.37066173597E+01  0.26127754635E+03  0.31376150140E+03  0.47000000000E+01 0. -1.
        -11    1    6    6    0    0  0.76966785459E+02  0.31024133799E+02  0.12886346005E+02  0.83978811942E+02  0.00000000000E+00 0.  1.
         12    1    6    6    0    0  0.27207098679E+02 -0.27671123170E+02  0.42227403346E+02  0.57350421702E+02  0.00000000000E+00 0. -1.
         -5    1    3    3    0  503 -0.40387100960E+02 -0.37644226041E+02  0.48885795356E+02  0.73892602240E+02  0.47000000000E+01 0.  1.
         11    1    4    4    0    0 -0.20680903681E+03 -0.20512998562E+01 -0.22516792380E+02  0.20804132156E+03  0.00000000000E+00 0. -1.
        -12    1    4    4    0    0 -0.30599445817E+02  0.32635897909E+02 -0.93430424991E+01  0.45702520278E+02  0.00000000000E+00 0.  1.
</event>
<event>
12    1  0.1629553E-001  0.1741522E+03  0.7818608E-02  0.1173616E+00
         21   -1    0    0  501  502  0.00000000000E+00  0.00000000000E+00  0.29777299078E+02  0.29777299078E+02  0.00000000000E+00 0.  1.
         21   -1    0    0  502  503 -0.00000000000E+00 -0.00000000000E+00 -0.10443509377E+04  0.10443509377E+04  0.00000000000E+00 0.  1.
         -6    2    1    2    0  503 -0.21632232629E+01 -0.32021297585E+02 -0.42186714524E+03  0.45639989990E+03  0.17116932366E+03 0.  0.
        -24    2    3    3    0    0  0.51359757949E+02 -0.68824762768E+01 -0.35357558911E+03  0.36594274710E+03  0.78823877873E+02 0.  0.
          6    2    1    2  501    0  0.21632232629E+01  0.32021297585E+02 -0.59270649337E+03  0.61772833687E+03  0.17104756019E+03 0.  0.
         24    2    5    5    0    0 -0.59774966488E+02  0.38376722173E+02 -0.43702768642E+03  0.44999428635E+03  0.80348239676E+02 0.  0.
          5    1    5    5  501    0  0.61938189751E+02 -0.63554245879E+01 -0.15567880695E+03  0.16773405052E+03  0.47000000000E+01 0. -1.
        -13    1    6    6    0    0  0.18600762417E+02  0.15409698995E+02 -0.72077939200E+02  0.76017606546E+02  0.00000000000E+00 0.  1.
         14    1    6    6    0    0 -0.78375728906E+02  0.22967023178E+02 -0.36494974722E+03  0.37397667980E+03  0.00000000000E+00 0. -1.
         -5    1    3    3    0  503 -0.53522981212E+02 -0.25138821308E+02 -0.68291556131E+02  0.90457152804E+02  0.47000000000E+01 0.  1.
         11    1    4    4    0    0  0.36404229449E+02 -0.21712284899E+01 -0.49605789447E+02  0.61568794869E+02  0.00000000000E+00 0. -1.
        -12    1    4    4    0    0  0.14955528500E+02 -0.47112477869E+01 -0.30396979966E+03  0.30437395223E+03  0.00000000000E+00 0.  1.
</event>
<event>
12    1  0.1629553E-001  0.2505769E+03  0.7818608E-02  0.1113056E+00
         21   -1    0    0  503  502  0.00000000000E+00  0.00000000000E+00  0.23761572523E+03  0.23761572523E+03  0.00000000000E+00 0.  1.
         21   -1    0    0  501  503 -0.00000000000E+00 -0.00000000000E+00 -0.29769237745E+03  0.29769237745E+03  0.00000000000E+00 0. -1.
          6    2    1    2  501    0 -0.15806173269E+03  0.89480399873E+02  0.60661766352E+02  0.25781512551E+03  0.17262252385E+03 0.  0.
         24    2    3    3    0    0 -0.18391096449E+03  0.71906047972E+02  0.72965287883E+02  0.22389599711E+03  0.76234911247E+02 0.  0.
         -6    2    1    2    0  502  0.15806173269E+03 -0.89480399873E+02 -0.12073841857E+03  0.27749297717E+03  0.17156437088E+03 0.  0.
        -24    2    5    5    0    0  0.23391101295E+02  0.78726529302E+01 -0.45575069028E+02  0.95050068385E+02  0.79676259320E+02 0.  0.
          5    1    3    3  501    0  0.25849231793E+02  0.17574351901E+02 -0.12303521531E+02  0.33919128395E+02  0.47000000000E+01 0. -1.
        -11    1    4    4    0    0 -0.18126142932E+03  0.62859002386E+02  0.48805219424E+02  0.19796188871E+03  0.00000000000E+00 0.  1.
         12    1    4    4    0    0 -0.26495351679E+01  0.90470455855E+01  0.24160068459E+02  0.25934108398E+02  0.00000000000E+00 0. -1.
         -5    1    5    5    0  502  0.13467063140E+03 -0.97353052803E+02 -0.75163349546E+02  0.18244290879E+03  0.47000000000E+01 0.  1.
         13    1    6    6    0    0 -0.19257643825E+02 -0.20984341729E+02 -0.29734738618E+02  0.41174678191E+02  0.00000000000E+00 0. -1.
        -14    1    6    6    0    0  0.42648745120E+02  0.28856994659E+02 -0.15840330410E+02  0.53875390194E+02  0.00000000000E+00 0.  1.
</event>
<event>
12    1  0.1629553E-001  0.1908301E+03  0.7818608E-02  0.1157838E+00
         21   -1    0    0  503  502  0.00000000000E+00  0.00000000000E+00  0.53956262692E+02  0.53956262692E+02  0.00000000000E+00 0. -1.
         21   -1    0    0  501  503 -0.00000000000E+00 -0.00000000000E+00 -0.67328107088E+03  0.67328107088E+03  0.00000000000E+00 0.  1.
          6    2    1    2  501    0 -0.77709152802E+02 -0.21100718319E+02 -0.30159706910E+03  0.35660671887E+03  0.17240535697E+03 0.  0.
         24    2    3    3    0    0  0.15271096008E+02 -0.44978596859E+02 -0.13506784982E+03  0.16433204392E+03  0.80656159440E+02 0.  0.
         -6    2    1    2    0  502  0.77709152802E+02  0.21100718319E+02 -0.31772773908E+03  0.37063061470E+03  0.17300920099E+03 0.  0.
        -24    2    5    5    0    0  0.95619667869E+02  0.66443885025E+02 -0.24955352671E+03  0.28668657054E+03  0.79713965490E+02 0.  0.
          5    1    3    3  501    0 -0.92980248810E+02  0.23877878540E+02 -0.16652921929E+03  0.19227467495E+03  0.47000000000E+01 0. -1.
        -13    1    4    4    0    0  0.16814079300E+02  0.13976414627E+02 -0.82437028186E+02  0.85287261914E+02  0.00000000000E+00 0.  1.
         14    1    4    4    0    0 -0.15429832916E+01 -0.58955011486E+02 -0.52630821632E+02  0.79044782006E+02  0.00000000000E+00 0. -1.
         -5    1    5    5    0  502 -0.17910515067E+02 -0.45343166706E+02 -0.68174212371E+02  0.83944044156E+02  0.47000000000E+01 0.  1.
         11    1    6    6    0    0  0.32611132501E+02 -0.16450932835E+02 -0.55026404384E+02  0.66045623122E+02  0.00000000000E+00 0. -1.
        -12    1    6    6    0    0  0.63008535368E+02  0.82894817860E+02 -0.19452712233E+03  0.22064094742E+03  0.00000000000E+00 0.  1.
</event>
<event>
12    1  0.1629553E-001  0.1792478E+03  0.7818608E-02  0.1168979E+00
         21   -1    0    0  503  502  0.00000000000E+00  0.00000000000E+00  0.79531873058E+02  0.79531873058E+02  0.00000000000E+00 0. -1.
         21   -1    0    0  501  503 -0.00000000000E+00 -0.00000000000E+00 -0.17349240113E+04  0.17349240113E+04  0.00000000000E+00 0. -1.
          6    2    1    2  501    0 -0.51698324935E+02 -0.56382005520E+01 -0.16245010080E+04  0.16343602086E+04  0.17153792645E+03 0.  0.
         24    2    3    3    0    0 -0.61899603980E+02  0.35047985765E+02 -0.14735485024E+04  0.14776178058E+04  0.83362275881E+02 0.  0.
         -6    2    1    2    0  502  0.51698324935E+02  0.56382005520E+01 -0.30891130218E+02  0.18009567578E+03  0.16963397184E+03 0.  0.
        -24    2    5    5    0    0  0.39066886428E+02 -0.84267805272E+01 -0.86888256357E+02  0.12080701694E+03  0.73807411576E+02 0.  0.
          5    1    3    3  501    0  0.10201279045E+02 -0.40686186317E+02 -0.15095250565E+03  0.15674240273E+03  0.47000000000E+01 0. -1.
        -13    1    4    4    0    0  0.10692211848E+02  0.33982732001E+02 -0.60057333161E+03  0.60162901867E+03  0.00000000000E+00 0.  1.
         14    1    4    4    0    0 -0.72591815828E+02  0.10652537639E+01 -0.87297517074E+03  0.87598878716E+03  0.00000000000E+00 0. -1.
         -5    1    5    5    0  502  0.12631438507E+02  0.14064981079E+02  0.55997126138E+02  0.59288658842E+02  0.47000000000E+01 0.  1.
         11    1    6    6    0    0 -0.12106616835E+02  0.20206211304E+02 -0.14550858336E+02  0.27687336903E+02  0.00000000000E+00 0. -1.
        -12    1    6    6    0    0  0.51173503263E+02 -0.28632991831E+02 -0.72337398021E+02  0.93119680035E+02  0.00000000000E+00 0.  1.
</event>
<event>
12    1  0.1629553E-001  0.3592669E+03  0.7818608E-02  0.1058893E+00
         21   -1    0    0  501  502  0.00000000000E+00  0.00000000000E+00  0.38985430753E+03  0.38985430753E+03  0.00000000000E+00 0. -1.
         21   -1    0    0  502  503 -0.00000000000E+00 -0.00000000000E+00 -0.37013972122E+03  0.37013972122E+03  0.00000000000E+00 0.  1.
         -6    2    1    2    0  503 -0.30421513537E+03 -0.83688028314E+02  0.13357094847E+03  0.38311745538E+03  0.17142710309E+03 0.  0.
        -24    2    3    3    0    0 -0.23775605463E+03 -0.41816752485E+02  0.15931376828E+03  0.30032376043E+03  0.80851110150E+02 0.  0.
          6    2    1    2  501    0  0.30421513537E+03  0.83688028314E+02 -0.11385636216E+03  0.37687657337E+03  0.17182009685E+03 0.  0.
         24    2    5    5    0    0  0.23767739416E+03  0.10421405629E+03 -0.38134551447E+02  0.27389855898E+03  0.78835673249E+02 0.  0.
          5    1    5    5  501    0  0.66537741211E+02 -0.20526027973E+02 -0.75721810718E+02  0.10297801439E+03  0.47000000000E+01 0. -1.
        -13    1    6    6    0    0  0.79475792489E+02  0.11127595035E+02 -0.41427086342E+02  0.90312947277E+02  0.00000000000E+00 0.  1.
         14    1    6    6    0    0  0.15820160167E+03  0.93086461252E+02  0.32925348955E+01  0.18358561170E+03  0.00000000000E+00 0. -1.
         -5    1    3    3    0  503 -0.66459080734E+02 -0.41871275828E+02 -0.25742819811E+02  0.82793694949E+02  0.47000000000E+01 0.  1.
         13    1    4    4    0    0 -0.21257671858E+03 -0.51621359495E+02  0.11181010599E+03  0.24567280240E+03  0.00000000000E+00 0. -1.
        -14    1    4    4    0    0 -0.25179336058E+02  0.98046070092E+01  0.47503662291E+02  0.54650958034E+02  0.00000000000E+00 0.  1.
</event>
<event>
12    1  0.1629553E-001  0.2165665E+03  0.7818608E-02  0.1136932E+00
         21   -1    0    0  501  502  0.00000000000E+00  0.00000000000E+00  0.23865816227E+03  0.23865816227E+03  0.00000000000E+00 0. -1.
         21   -1    0    0  502  503 -0.00000000000E+00 -0.00000000000E+00 -0.21865983734E+03  0.21865983734E+03  0.00000000000E+00 0. -1.
         -6    2    1    2    0  503  0.12363965162E+03 -0.44188032767E+02 -0.66219926807E+02  0.22646441897E+03  0.17222574912E+03 0.  0.
        -24    2    3    3    0    0  0.12205642774E+03  0.19478777006E+02 -0.24558329754E+02  0.15021648173E+03  0.81759926110E+02 0.  0.
          6    2    1    2  501    0 -0.12363965162E+03  0.44188032767E+02  0.86218251733E+02  0.23085358064E+03  0.16917577566E+03 0.  0.
         24    2    5    5    0    0 -0.60119723850E+02  0.81598669937E+02  0.88877193439E+02  0.15693810886E+03  0.80359755895E+02 0.  0.
          5    1    5    5  501    0 -0.63519927773E+02 -0.37410637170E+02 -0.26589417066E+01  0.73915471782E+02  0.47000000000E+01 0. -1.
        -13    1    6    6    0    0  0.88899288314E+01 -0.71425588434E+01  0.25390552423E+02  0.27833920561E+02  0.00000000000E+00 0.  1.
         14    1    6    6    0    0 -0.69009652681E+02  0.88741228781E+02  0.63486641017E+02  0.12910418830E+03  0.00000000000E+00 0. -1.
         -5    1    3    3    0  503  0.15832238861E+01 -0.63666809774E+02 -0.41661597052E+02  0.76247937241E+02  0.47000000000E+01 0.  1.
         13    1    4    4    0    0  0.68469498862E+02 -0.26096183605E+02 -0.31028685002E+02  0.79573000233E+02  0.00000000000E+00 0. -1.
        -14    1    4    4    0    0  0.53586928875E+02  0.45574960612E+02  0.64703552478E+01  0.70643481497E+02  0.00000000000E+00 0.  1.
</event>
<event>
12    1  0.1629553E-001  0.1984828E+03  0.7818608E-02  0.1152342E+00
         21   -1    0    0  501  502  0.00000000000E+00  0.00000000000E+00  0.22045224266E+03  0.22045224266E+03  0.00000000000E+00 0. -1.
         21   -1    0    0  502  503 -0.00000000000E+00 -0.00000000000E+00 -0.19800310366E+03  0.19800310366E+03  0.00000000000E+00 0. -1.
         -6    2    1    2    0  503 -0.37613112137E+02 -0.91753575748E+02 -0.62560695844E+02  0.20810881307E+03  0.17193595478E+03 0.  0.
        -24    2    3    3    0    0  0.21503441847E+02 -0.83694587197E+02 -0.84732677113E+02  0.14428561192E+03  0.78559081587E+02 0.  0.
          6    2    1    2  501    0  0.37613112137E+02  0.91753575748E+02  0.85009834846E+02  0.21034653324E+03  0.16488034194E+03 0.  0.
         24    2    5    5    0    0  0.43845480790E+02 -0.94121783502E+01  0.50191365373E+02  0.10307226775E+03  0.78062179916E+02 0.  0.
          5    1    5    5  501    0 -0.62323686530E+01  0.10116575410E+03  0.34818469473E+02  0.10727426550E+03  0.47000000000E+01 0. -1.
        -13    1    6    6    0    0  0.13519893738E+02 -0.37869004331E+02  0.32229937407E+01  0.40339022104E+02  0.00000000000E+00 0.  1.
         14    1    6    6    0    0  0.30325587052E+02  0.28456825981E+02  0.46968371633E+02  0.62733245642E+02  0.00000000000E+00 0. -1.
         -5    1    3    3    0  503 -0.59116553983E+02 -0.80589885517E+01  0.22171981269E+02  0.63823201148E+02  0.47000000000E+01 0.  1.
         11    1    4    4    0    0  0.47962534038E+02 -0.58482291520E+02 -0.37090058506E+02  0.84239275476E+02  0.00000000000E+00 0. -1.
        -12    1    4    4    0    0 -0.26459092191E+02 -0.25212295677E+02 -0.47642618608E+02  0.60046336447E+02  0.00000000000E+00 0.  1.
</event>
<event>
12    1  0.1629553E-001  0.1763292E+03  0.7818608E-02  0.1171708E+00
         21   -1    0    0  503  502  0.00000000000E+00  0.00000000000E+00  0.24754886667E+03  0.24754886667E+03  0.00000000000E+00 0. -1.
         21   -1    0    0  501  503 -0.00000000000E+00 -0.00000000000E+00 -0.16338448596E+03  0.16338448596E+03  0.00000000000E+00 0. -1.
          6    2    1    2  501    0 -0.20914235565E+02 -0.23531534753E+02 -0.57966947471E+02  0.18445311025E+03  0.17225459211E+03 0.  0.
         24    2    3    3    0    0 -0.80481647464E+01  0.14833260810E+02  0.30424467923E+02  0.87126209383E+02  0.79878216874E+02 0.  0.
         -6    2    1    2    0  502  0.20914235565E+02  0.23531534753E+02  0.14213132818E+03  0.22648024238E+03  0.17349595777E+03 0.  0.
        -24    2    5    5    0    0  0.60462311939E+01  0.19949939712E+02  0.17293982441E+03  0.19176513304E+03  0.80194303911E+02 0.  0.
          5    1    3    3  501    0 -0.12866070818E+02 -0.38364795562E+02 -0.88391415394E+02  0.97326900866E+02  0.47000000000E+01 0. -1.
        -13    1    4    4    0    0 -0.36779224545E+02  0.10871832648E+02  0.41105613946E+02  0.56219032375E+02  0.00000000000E+00 0.  1.
         14    1    4    4    0    0  0.28731059798E+02  0.39614281615E+01 -0.10681146024E+02  0.30907177008E+02  0.00000000000E+00 0. -1.
         -5    1    5    5    0  502  0.14868004371E+02  0.35815950410E+01 -0.30808496222E+02  0.34715109340E+02  0.47000000000E+01 0.  1.
         11    1    6    6    0    0  0.23508835900E+02 -0.20304865965E+02  0.11478113904E+03  0.11891031421E+03  0.00000000000E+00 0. -1.
        -12    1    6    6    0    0 -0.17462604707E+02  0.40254805677E+02  0.58158685365E+02  0.72854818829E+02  0.00000000000E+00 0.  1.
</event>
<event>
12    1  0.1629553E-001  0.2108572E+03  0.7818608E-02  0.1141657E+00
         21   -1    0    0  503  502  0.00000000000E+00  0.00000000000E+00  0.17569962974E+03  0.17569962974E+03  0.00000000000E+00 0.  1.
         21   -1    0    0  501  503 -0.00000000000E+00 -0.00000000000E+00 -0.25224120914E+03  0.25224120914E+03  0.00000000000E+00 0.  1.
          6    2    1    2  501    0  0.13212967107E+02 -0.11656705366E+03 -0.12334429401E+02  0.21121761408E+03  0.17520925162E+03 0.  0.
         24    2    3    3    0    0  0.47248318933E+02 -0.24413855954E+02 -0.45307601370E+02  0.10748749748E+03  0.81684413254E+02 0.  0.
         -6    2    1    2    0  502 -0.13212967107E+02  0.11656705366E+03 -0.64207149994E+02  0.21672322480E+03  0.17054013474E+03 0.  0.
        -24    2    5    5    0    0  0.37067929432E+02  0.10233308470E+03 -0.44673541928E+01  0.13721405783E+03  0.83436495593E+02 0.  0.
          5    1    3    3  501    0 -0.34035351826E+02 -0.92153197701E+02  0.32973171969E+02  0.10373011660E+03  0.47000000000E+01 0. -1.
        -11    1    4    4    0    0  0.33497141451E+02 -0.53710129525E+02 -0.19936179178E+02  0.66364807987E+02  0.00000000000E+00 0.  1.
         12    1    4    4    0    0  0.13751177482E+02  0.29296273571E+02 -0.25371422193E+02  0.41122689495E+02  0.00000000000E+00 0. -1.
         -5    1    5    5    0  502 -0.50280896539E+02  0.14233968960E+02 -0.59739795802E+02  0.79509166965E+02  0.47000000000E+01 0.  1.
         11    1    6    6    0    0  0.44141896905E+02  0.37901639293E+02  0.28170406174E+02  0.64642192935E+02  0.00000000000E+00 0. -1.
        -12    1    6    6    0    0 -0.70739674724E+01  0.64431445403E+02 -0.32637760367E+02  0.72571864895E+02  0.00000000000E+00 0.  1.
</event>
<event>
12    1  0.1629553E-001  0.1851176E+03  0.7818608E-02  0.1163673E+00
         21   -1    0    0  501  502  0.00000000000E+00  0.00000000000E+00  0.16576971468E+03  0.16576971468E+03  0.00000000000E+00 0. -1.
         21   -1    0    0  502  503 -0.00000000000E+00 -0.00000000000E+00 -0.20371356996E+03  0.20371356996E+03  0.00000000000E+00 0. -1.
         -6    2    1    2    0  503  0.53115118255E+02  0.25999727467E+02 -0.10442169345E+02  0.18541187159E+03  0.17541756358E+03 0.  0.
        -24    2    3    3    0    0  0.84955808465E+02  0.42229634657E+02  0.33612676130E+02  0.12848947837E+03  0.79868032528E+02 0.  0.
          6    2    1    2  501    0 -0.53115118255E+02 -0.25999727467E+02 -0.27501685938E+02  0.18407141305E+03  0.17213001120E+03 0.  0.
         24    2    5    5    0    0 -0.76952559219E+02 -0.45353559484E+02 -0.63700602320E+02  0.13637187476E+03  0.80999257788E+02 0.  0.
          5    1    5    5  501    0  0.23837440963E+02  0.19353832017E+02  0.36198916382E+02  0.47699538286E+02  0.47000000000E+01 0. -1.
        -11    1    6    6    0    0 -0.56251687048E+02 -0.53095181017E+02 -0.78156714405E+02  0.10996282349E+03  0.00000000000E+00 0.  1.
         12    1    6    6    0    0 -0.20700872171E+02  0.77416215328E+01  0.14456112085E+02  0.26409051274E+02  0.00000000000E+00 0. -1.
         -5    1    3    3    0  503 -0.31840690209E+02 -0.16229907190E+02 -0.44054845475E+02  0.56922393223E+02  0.47000000000E+01 0.  1.
         11    1    4    4    0    0  0.45651506412E+02  0.64359483438E+02  0.21793409604E+02  0.81860587881E+02  0.00000000000E+00 0. -1.
        -12    1    4    4    0    0  0.39304302053E+02 -0.22129848781E+02  0.11819266526E+02  0.46628890488E+02  0.00000000000E+00 0.  1.
</event>
<event>
12    1  0.1629553E-001  0.3230867E+03  0.7818608E-02  0.1074356E+00
         21   -1    0    0  503  502  0.00000000000E+00  0.00000000000E+00  0.12190567819E+03  0.12190567819E+03  0.00000000000E+00 0.  1.
         21   -1    0    0  501  503 -0.00000000000E+00 -0.00000000000E+00 -0.10498329906E+04  0.10498329906E+04  0.00000000000E+00 0. -1.
          6    2    1    2  501    0  0.27045169602E+03 -0.34221836403E+02 -0.71670063148E+03  0.78573127145E+03  0.17146014641E+03 0.  0.
         24    2    3    3    0    0  0.15945711253E+03  0.12837224291E+01 -0.26058671361E+03  0.31494210596E+03  0.76517162230E+02 0.  0.
         -6    2    1    2    0  502 -0.27045169602E+03  0.34221836403E+02 -0.21122668095E+03  0.38600739735E+03  0.17340630351E+03 0.  0.
        -24    2    5    5    0    0 -0.10061273980E+03 -0.18442136012E+02 -0.37869293780E+02  0.13762535548E+03  0.83926272805E+02 0.  0.
          5    1    3    3  501    0  0.11099458349E+03 -0.35505558832E+02 -0.45611391787E+03  0.47078916549E+03  0.47000000000E+01 0. -1.
        -11    1    4    4    0    0  0.76112265647E+02 -0.37135521227E+02 -0.13577028369E+03  0.16001779230E+03  0.00000000000E+00 0.  1.
         12    1    4    4    0    0  0.83344846885E+02  0.38419243656E+02 -0.12481642993E+03  0.15492431367E+03  0.00000000000E+00 0. -1.
         -5    1    5    5    0  502 -0.16983895621E+03  0.52663972415E+02 -0.17335738717E+03  0.24838204188E+03  0.47000000000E+01 0.  1.
         11    1    6    6    0    0 -0.89858360999E+02 -0.45365459307E+02 -0.40525752413E+02  0.10851214931E+03  0.00000000000E+00 0. -1.
        -12    1    6    6    0    0 -0.10754378805E+02  0.26923323294E+02  0.26564586331E+01  0.29113206164E+02  0.00000000000E+00 0.  1.
</event>
<event>
12    1  0.1629553E-001  0.2209204E+03  0.7818608E-02  0.1133275E+00
         21   -1    0    0  503  502  0.00000000000E+00  0.00000000000E+00  0.13986600266E+04  0.13986600266E+04  0.00000000000E+00 0.  1.
         21   -1    0    0  501  503 -0.00000000000E+00 -0.00000000000E+00 -0.39520610290E+02  0.39520610290E+02  0.00000000000E+00 0.  1.
          6    2    1    2  501    0  0.13739717182E+03  0.10260459966E+02  0.43238177142E+03  0.48555105407E+03  0.17269212486E+03 0.  0.
         24    2    3    3    0    0  0.49768444103E+02 -0.56026304263E+02  0.18669881536E+03  0.21637651230E+03  0.79664939741E+02 0.  0.
         -6    2    1    2    0  502 -0.13739717182E+03 -0.10260459966E+02  0.92675764485E+03  0.95262958278E+03  0.17216309081E+03 0.  0.
        -24    2    5    5    0    0 -0.15571356051E+02  0.31012673788E+01  0.56438972906E+03  0.57006891892E+03  0.78681135302E+02 0.  0.
          5    1    3    3  501    0  0.87628727719E+02  0.66286764229E+02  0.24568295607E+03  0.26917454177E+03  0.47000000000E+01 0. -1.
        -11    1    4    4    0    0  0.46371023683E+02 -0.17189402133E+02  0.16393449557E+03  0.17123161572E+03  0.00000000000E+00 0.  1.
         12    1    4    4    0    0  0.33974204200E+01 -0.38836902130E+02  0.22764319784E+02  0.45144896586E+02  0.00000000000E+00 0. -1.
         -5    1    5    5    0  502 -0.12182581577E+03 -0.13361727345E+02  0.36236791578E+03  0.38256066386E+03  0.47000000000E+01 0.  1.
         11    1    6    6    0    0 -0.70065645754E+00 -0.36108086355E+02  0.19593761253E+03  0.19923813095E+03  0.00000000000E+00 0. -1.
        -12    1    6    6    0    0 -0.14870699593E+02  0.39209353733E+02  0.36845211653E+03  0.37083078797E+03  0.00000000000E+00 0.  1.
</event>
<event>
12    1  0.1629553E-001  0.1938745E+03  0.7818608E-02  0.1155076E+00
         21   -1    0    0  503  502  0.00000000000E+00  0.00000000000E+00  0.22594341849E+04  0.22594341849E+04  0.00000000000E+00 0. -1.
         21   -1    0    0  501  503 -0.00000000000E+00 -0.00000000000E+00 -0.16825965758E+02  0.16825965758E+02  0.00000000000E+00 0.  1.
          6    2    1    2  501    0  0.47170735342E+02 -0.75725777801E+02  0.99178069164E+03  0.10104968107E+04  0.17180044347E+03 0.  0.
         24    2    3    3    0    0  0.87051821810E+02 -0.92567245011E+02  0.78340795168E+03  0.79762261112E+03  0.79543048039E+02 0.  0.
         -6    2    1    2    0  502 -0.47170735342E+02  0.75725777801E+02  0.12508275275E+04  0.12657633400E+04  0.17212744580E+03 0.  0.
        -24    2    5    5    0    0  0.41788882636E+02  0.28130730399E+02  0.68695440207E+03  0.69291598357E+03  0.75422550062E+02 0.  0.
          5    1    3    3  501    0 -0.39881086468E+02  0.16841467211E+02  0.20837273996E+03  0.21287419955E+03  0.47000000000E+01 0. -1.
        -13    1    4    4    0    0  0.27614800738E+02 -0.57162389034E+02  0.19294224901E+03  0.20311776730E+03  0.00000000000E+00 0.  1.
         14    1    4    4    0    0  0.59437021072E+02 -0.35404855977E+02  0.59046570267E+03  0.59450484382E+03  0.00000000000E+00 0. -1.
         -5    1    5    5    0  502 -0.88959617978E+02  0.47595047402E+02  0.56387312547E+03  0.57284735646E+03  0.47000000000E+01 0.  1.
         13    1    6    6    0    0  0.41827916906E+02 -0.13921347704E+02  0.45925942066E+03  0.46137034367E+03  0.00000000000E+00 0. -1.
        -14    1    6    6    0    0 -0.39034270643E-01  0.42052078102E+02  0.22769498141E+03  0.23154563989E+03  0.00000000000E+00 0.  1.
</event>
<event>
12    1  0.1629553E-001  0.1721747E+03  0.7818608E-02  0.1176721E+00
         21   -1    0    0  501  502  0.00000000000E+00  0.00000000000E+00  0.11714017250E+03  0.11714017250E+03  0.00000000000E+00 0.  1.
         21   -1    0    0  502  503 -0.00000000000E+00 -0.00000000000E+00 -0.32062542076E+03  0.32062542076E+03  0.00000000000E+00 0.  1.
         -6    2    1    2    0  503 -0.22040027113E+02  0.14045826662E+02 -0.20778783321E+03  0.26985164246E+03  0.17017954421E+03 0.  0.
        -24    2    3    3    0    0  0.14896375066E+02 -0.33981280571E+02 -0.49187441916E+02  0.10000737570E+03  0.78774623657E+02 0.  0.
          6    2    1    2  501    0  0.22040027113E+02 -0.14045826662E+02  0.43025849566E+01  0.16791395080E+03  0.16581174444E+03 0.  0.
         24    2    5    5    0    0 -0.16419654316E+02  0.40971049779E+02 -0.24978939368E+02  0.94527974918E+02  0.79770662918E+02 0.  0.
          5    1    5    5  501    0  0.38459681429E+02 -0.55016876441E+02  0.29281524325E+02  0.73385975879E+02  0.47000000000E+01 0. -1.
        -13    1    6    6    0    0  0.55761717690E+01  0.31777219944E+02  0.23896134123E+02  0.40148606763E+02  0.00000000000E+00 0.  1.
         14    1    6    6    0    0 -0.21995826085E+02  0.91938298352E+01 -0.48875073492E+02  0.54379368156E+02  0.00000000000E+00 0. -1.
         -5    1    3    3    0  503 -0.36936402179E+02  0.48027107233E+02 -0.15860039129E+03  0.16984426677E+03  0.47000000000E+01 0.  1.
         13    1    4    4    0    0  0.21197466722E+02 -0.44577128184E+01 -0.63138727544E+02  0.66751050291E+02  0.00000000000E+00 0. -1.
        -14    1    4    4    0    0 -0.63010916560E+01 -0.29523567752E+02  0.13951285628E+02  0.33256325407E+02  0.00000000000E+00 0.  1.
</event>
<event>
12    1  0.1629553E-001  0.1952576E+03  0.7818608E-02  0.1154051E+00
         21   -1    0    0  503  502  0.00000000000E+00  0.00000000000E+00  0.71729986594E+02  0.71729986594E+02  0.00000000000E+00 0.  1.
         21   -1    0    0  501  503 -0.00000000000E+00 -0.00000000000E+00 -0.12447528463E+04  0.12447528463E+04  0.00000000000E+00 0.  1.
          6    2    1    2  501    0  0.76917230451E+02  0.46258775400E+02 -0.10851270566E+04  0.11023539391E+04  0.17212595269E+03 0.  0.
         24    2    3    3    0    0  0.11390648850E+03  0.40733652332E+02 -0.98151724559E+03  0.99210052591E+03  0.79078641718E+02 0.  0.
         -6    2    1    2    0  502 -0.76917230451E+02 -0.46258775400E+02 -0.87895803107E+02  0.21412889373E+03  0.17340523719E+03 0.  0.
        -24    2    5    5    0    0 -0.68228829909E+02 -0.93759273834E+02 -0.41913144263E+02  0.14728369517E+03  0.80559298292E+02 0.  0.
          5    1    3    3  501    0 -0.36989258046E+02  0.55251230681E+01 -0.10360981097E+03  0.11025341321E+03  0.47000000000E+01 0. -1.
        -13    1    4    4    0    0  0.22622865932E+02  0.43280571919E+02 -0.46656050658E+03  0.46910948431E+03  0.00000000000E+00 0.  1.
         14    1    4    4    0    0  0.91283622565E+02 -0.25469195873E+01 -0.51495673901E+03  0.52299104161E+03  0.00000000000E+00 0. -1.
         -5    1    5    5    0  502 -0.86884005418E+01  0.47500498433E+02 -0.45982658844E+02  0.66845198554E+02  0.47000000000E+01 0.  1.
         11    1    6    6    0    0 -0.15195681622E+02  0.64863485835E+01 -0.28688153257E+02  0.33105763776E+02  0.00000000000E+00 0. -1.
        -12    1    6    6    0    0 -0.53033148287E+02 -0.10024562242E+03 -0.13224991007E+02  0.11417793140E+03  0.00000000000E+00 0.  1.
</event>
<event>
12    1  0.1629553E-001  0.2305606E+03  0.7818608E-02  0.1126584E+00
         21   -1    0    0  501  502  0.00000000000E+00  0.00000000000E+00  0.69024446783E+02  0.69024446783E+02  0.00000000000E+00 0.  1.
         21   -1    0    0  502  503 -0.00000000000E+00 -0.00000000000E+00 -0.77300345712E+03  0.77300345712E+03  0.00000000000E+00 0.  1.
         -6    2    1    2    0  503  0.60452545234E+02 -0.13896636262E+03 -0.39662242827E+03  0.45780627579E+03  0.17120477618E+03 0.  0.
        -24    2    3    3    0    0  0.83588981728E+02 -0.34300247545E+02 -0.21968042533E+03  0.25087427551E+03  0.80714236606E+02 0.  0.
          6    2    1    2  501    0 -0.60452545234E+02  0.13896636262E+03 -0.30735658207E+03  0.38422162811E+03  0.17375854166E+03 0.  0.
         24    2    5    5    0    0 -0.31794568013E+02  0.16568381951E+03 -0.21960713137E+03  0.28800750098E+03  0.79113879109E+02 0.  0.
          5    1    5    5  501    0 -0.28657977221E+02 -0.26717456894E+02 -0.87749450705E+02  0.96214127135E+02  0.47000000000E+01 0. -1.
        -11    1    6    6    0    0 -0.47634154096E+02  0.76750627486E+02 -0.74542372488E+02  0.11711633854E+03  0.00000000000E+00 0.  1.
         12    1    6    6    0    0  0.15839586083E+02  0.88933192028E+02 -0.14506475888E+03  0.17089116244E+03  0.00000000000E+00 0. -1.
         -5    1    3    3    0  503 -0.23136436494E+02 -0.10466611507E+03 -0.17694200294E+03  0.20693200028E+03  0.47000000000E+01 0.  1.
         13    1    4    4    0    0  0.48181555994E+02 -0.17643085335E+02 -0.35040407903E+02  0.62133493256E+02  0.00000000000E+00 0. -1.
        -14    1    4    4    0    0  0.35407425733E+02 -0.16657162211E+02 -0.18464001743E+03  0.18874078225E+03  0.00000000000E+00 0.  1.
</event>
<event>
12    1  0.1629553E-001  0.2471734E+03  0.7818608E-02  0.1115146E+00
         21   -1    0    0  503  502  0.00000000000E+00  0.00000000000E+00  0.93163319755E+02  0.93163319755E+02  0.00000000000E+00 0.  1.
         21   -1    0    0  501  503 -0.00000000000E+00 -0.00000000000E+00 -0.67563452079E+03  0.67563452079E+03  0.00000000000E+00 0.  1.
          6    2    1    2  501    0  0.78339880913E+02  0.15951114569E+03 -0.35840056735E+03  0.43536842570E+03  0.17179568354E+03 0.  0.
         24    2    3    3    0    0  0.20676717186E+02  0.16833667156E+03 -0.26945978650E+03  0.32890020107E+03  0.82474263241E+02 0.  0.
         -6    2    1    2    0  502 -0.78339880913E+02 -0.15951114569E+03 -0.22407063369E+03  0.33342941484E+03  0.17142515353E+03 0.  0.
        -24    2    5    5    0    0 -0.46155699384E+02 -0.21499682131E+02 -0.14359217342E+03  0.17038997735E+03  0.76298408855E+02 0.  0.
          5    1    3    3  501    0  0.57663163727E+02 -0.88255258752E+01 -0.88940780852E+02  0.10646822463E+03  0.47000000000E+01 0. -1.
        -13    1    4    4    0    0  0.64807253243E+01  0.76775638154E+02 -0.19618509682E+03  0.21077260408E+03  0.00000000000E+00 0.  1.
         14    1    4    4    0    0  0.14195991862E+02  0.91561033409E+02 -0.73274689678E+02  0.11812759699E+03  0.00000000000E+00 0. -1.
         -5    1    5    5    0  502 -0.32184181529E+02 -0.13801146356E+03 -0.80478460261E+02  0.16303943750E+03  0.47000000000E+01 0.  1.
         11    1    6    6    0    0  0.12341162121E+01  0.11724653751E+02  0.35190368132E+01  0.12303421008E+02  0.00000000000E+00 0. -1.
        -12    1    6    6    0    0 -0.47389815596E+02 -0.33224335882E+02 -0.14711121024E+03  0.15808655634E+03  0.00000000000E+00 0.  1.
</event>
<event>
12    1  0.1629553E-001  0.1975709E+03  0.7818608E-02  0.1156732E+00
         21   -1    0    0  501  502  0.00000000000E+00  0.00000000000E+00  0.24385076749E+03  0.24385076749E+03  0.00000000000E+00 0.  1.
         21   -1    0    0  502  503 -0.00000000000E+00 -0.00000000000E+00 -0.14848132317E+03  0.14848132317E+03  0.00000000000E+00 0.  1.
         -6    2    1    2    0  503 -0.64331432288E+01  0.41413923976E+02  0.82515693956E+02  0.19434347603E+03  0.17089192051E+03 0.  0.
        -24    2    3    3    0    0  0.56681811211E+02  0.13271310662E+01  0.62678608801E+02  0.11684477677E+03  0.80681502574E+02 0.  0.
          6    2    1    2  501    0  0.64331432288E+01 -0.41413923976E+02  0.12853750368E+02  0.19798861464E+03  0.19307453016E+03 0.  0.
         24    2    5    5    0    0  0.53230497052E+02 -0.89063051825E+02  0.14068475187E+02  0.13102595888E+03  0.78766534069E+02 0.  0.
          5    1    5    5  501    0 -0.46797353823E+02  0.47649127848E+02 -0.12147248198E+01  0.66962655757E+02  0.47000000000E+01 0. -1.
        -13    1    6    6    0    0  0.36591842945E+02  0.26816363664E+01  0.82325222265E+01  0.37602241501E+02  0.00000000000E+00 0.  1.
         14    1    6    6    0    0  0.16638654108E+02 -0.91744688191E+02  0.58359529609E+01  0.93423717378E+02  0.00000000000E+00 0. -1.
         -5    1    3    3    0  503 -0.63114954440E+02  0.40086792910E+02  0.19837085156E+02  0.77498699261E+02  0.47000000000E+01 0.  1.
         11    1    4    4    0    0  0.25904599689E+02 -0.39645481103E+02  0.29358546188E+02  0.55720164135E+02  0.00000000000E+00 0. -1.
        -12    1    4    4    0    0  0.30777211522E+02  0.40972612169E+02  0.33320062612E+02  0.61124612633E+02  0.00000000000E+00 0.  1.
</event>
<event>
12    1  0.1629553E-001  0.2112375E+03  0.7818608E-02  0.1140863E+00
         21   -1    0    0  503  502  0.00000000000E+00  0.00000000000E+00  0.96901923032E+02  0.96901923032E+02  0.00000000000E+00 0.  1.
         21   -1    0    0  501  503 -0.00000000000E+00 -0.00000000000E+00 -0.61184176900E+03  0.61184176900E+03  0.00000000000E+00 0.  1.
          6    2    1    2  501    0  0.43024828440E+02 -0.11332928850E+03 -0.43484197655E+03  0.48283008060E+03  0.17129704802E+03 0.  0.
         24    2    3    3    0    0  0.65758297688E+02 -0.75629191533E+02 -0.41509336548E+03  0.43435116172E+03  0.79463836442E+02 0.  0.
         -6    2    1    2    0  502 -0.43024828440E+02  0.11332928850E+03 -0.80097869409E+02  0.22591361143E+03  0.17299314337E+03 0.  0.
        -24    2    5    5    0    0 -0.58033795146E+02  0.88326001789E+02  0.81127547536E+01  0.13288868121E+03  0.80150987723E+02 0.  0.
          5    1    3    3  501    0 -0.22733469248E+02 -0.37700096967E+02 -0.19748611078E+02  0.48478918871E+02  0.47000000000E+01 0. -1.
        -11    1    4    4    0    0  0.12490054874E+02 -0.46754531567E+02 -0.30382531097E+03  0.30765533846E+03  0.00000000000E+00 0.  1.
         12    1    4    4    0    0  0.53268242814E+02 -0.28874659966E+02 -0.11126805450E+03  0.12669582327E+03  0.00000000000E+00 0. -1.
         -5    1    5    5    0  502  0.15008966706E+02  0.25003286710E+02 -0.88210624163E+02  0.93024930224E+02  0.47000000000E+01 0.  1.
         11    1    6    6    0    0 -0.11588264959E+02 -0.20439283041E+01  0.27080661656E+02  0.29526729643E+02  0.00000000000E+00 0. -1.
        -12    1    6    6    0    0 -0.46445530187E+02  0.90369930093E+02 -0.18967906903E+02  0.10336195157E+03  0.00000000000E+00 0.  1.
</event>
<event>
12    1  0.1629553E-001  0.1860649E+03  0.7818608E-02  0.1163157E+00
         21   -1    0    0  503  502  0.00000000000E+00  0.00000000000E+00  0.22128217223E+03  0.22128217223E+03  0.00000000000E+00 0. -1.
         21   -1    0    0  501  503 -0.00000000000E+00 -0.00000000000E+00 -0.16833693779E+03  0.16833693779E+03  0.00000000000E+00 0. -1.
          6    2    1    2  501    0  0.54960707807E+02 -0.16250129304E+02 -0.33491478441E+02  0.18445705857E+03  0.17209875427E+03 0.  0.
         24    2    3    3    0    0  0.43959318742E+02  0.15777770270E+02  0.41817523524E+02  0.10175063385E+03  0.80144410139E+02 0.  0.
         -6    2    1    2    0  502 -0.54960707807E+02  0.16250129304E+02  0.86436712887E+02  0.20516205145E+03  0.17701812313E+03 0.  0.
        -24    2    5    5    0    0 -0.88129275083E+02  0.16411848884E+02  0.11883444058E+03  0.15855858841E+03  0.54617614196E+02 0.  0.
          5    1    3    3  501    0  0.11001389065E+02 -0.32027899574E+02 -0.75309001965E+02  0.82706424716E+02  0.47000000000E+01 0. -1.
        -11    1    4    4    0    0  0.45054333562E+02 -0.20309093073E+02  0.43172458556E+02  0.65621744963E+02  0.00000000000E+00 0.  1.
         12    1    4    4    0    0 -0.10950148202E+01  0.36086863343E+02 -0.13549350326E+01  0.36128888889E+02  0.00000000000E+00 0. -1.
         -5    1    5    5    0  502  0.33168567276E+02 -0.16171958069E+00 -0.32397727689E+02  0.46603463045E+02  0.47000000000E+01 0.  1.
         11    1    6    6    0    0 -0.23575645875E+02  0.13703067425E+02  0.76751357306E+02  0.81451556054E+02  0.00000000000E+00 0. -1.
        -12    1    6    6    0    0 -0.64553629208E+02  0.27087814594E+01  0.42083083269E+02  0.77107032353E+02  0.00000000000E+00 0.  1.
</event>
<event>
12    1  0.1629553E-001  0.1917546E+03  0.7818608E-02  0.1156958E+00
         21   -1    0    0  503  502  0.00000000000E+00  0.00000000000E+00  0.51773264657E+03  0.51773264657E+03  0.00000000000E+00 0.  1.
         21   -1    0    0  501  503 -0.00000000000E+00 -0.00000000000E+00 -0.92225828915E+02  0.92225828915E+02  0.00000000000E+00 0.  1.
          6    2    1    2  501    0 -0.68528375517E+02 -0.50636533220E+02  0.65978810499E+02  0.20249041788E+03  0.17143211236E+03 0.  0.
         24    2    3    3    0    0 -0.63471053313E+02  0.28474492116E+02  0.61917912333E+02  0.12297493680E+03  0.80309625215E+02 0.  0.
         -6    2    1    2    0  502  0.68528375517E+02  0.50636533220E+02  0.35952800716E+03  0.40746805761E+03  0.17178368169E+03 0.  0.
        -24    2    5    5    0    0 -0.23622070373E+02  0.28417274890E+02  0.23726440023E+03  0.25269118693E+03  0.78694959273E+02 0.  0.
          5    1    3    3  501    0 -0.50573222044E+01 -0.79111025336E+02  0.40608981656E+01  0.79515481080E+02  0.47000000000E+01 0. -1.
        -11    1    4    4    0    0 -0.24777503539E+02  0.27253011399E+02 -0.12660103001E+02  0.38947779396E+02  0.00000000000E+00 0.  1.
         12    1    4    4    0    0 -0.38693549774E+02  0.12214807169E+01  0.74578015335E+02  0.84027157399E+02  0.00000000000E+00 0. -1.
         -5    1    5    5    0  502  0.92150445890E+02  0.22219258330E+02  0.12226360692E+03  0.15477687068E+03  0.47000000000E+01 0.  1.
         13    1    6    6    0    0 -0.50771870416E+02  0.62506167103E+01  0.12431790550E+03  0.13443137529E+03  0.00000000000E+00 0. -1.
        -14    1    6    6    0    0  0.27149800043E+02  0.22166658179E+02  0.11294649473E+03  0.11825981164E+03  0.00000000000E+00 0.  1.
</event>
<event>
12    1  0.1629553E-001  0.1912534E+03  0.7818608E-02  0.1159959E+00
         21   -1    0    0  501  502  0.00000000000E+00  0.00000000000E+00  0.35070764276E+03  0.35070764276E+03  0.00000000000E+00 0.  1.
         21   -1    0    0  502  503 -0.00000000000E+00 -0.00000000000E+00 -0.11418400879E+03  0.11418400879E+03  0.00000000000E+00 0.  1.
         -6    2    1    2    0  503 -0.27494729559E+02 -0.47797822048E+02  0.20831418308E+03  0.28279441332E+03  0.18313189068E+03 0.  0.
        -24    2    3    3    0    0 -0.23663393383E+02 -0.90270446887E+02  0.78563037337E+02  0.14613405762E+03  0.80463048622E+02 0.  0.
          6    2    1    2  501    0  0.27494729559E+02  0.47797822048E+02  0.28209450890E+02  0.18209723824E+03  0.17123971242E+03 0.  0.
         24    2    5    5    0    0  0.75540967080E+01  0.35788660267E+02 -0.49426622763E+02  0.10091042442E+03  0.80012687363E+02 0.  0.
          5    1    5    5  501    0  0.19940632851E+02  0.12009161781E+02  0.77636073653E+02  0.81186813815E+02  0.47000000000E+01 0. -1.
        -13    1    6    6    0    0  0.38577770803E+02  0.13086524382E+02 -0.47277892343E+02  0.62407536603E+02  0.00000000000E+00 0.  1.
         14    1    6    6    0    0 -0.31023674095E+02  0.22702135886E+02 -0.21487304198E+01  0.38502887821E+02  0.00000000000E+00 0. -1.
         -5    1    3    3    0  503 -0.38313361760E+01  0.42472624839E+02  0.12975114574E+03  0.13666035570E+03  0.47000000000E+01 0.  1.
         11    1    4    4    0    0  0.24078099378E+02 -0.89090231784E+01  0.42012463986E+01  0.26014919468E+02  0.00000000000E+00 0. -1.
        -12    1    4    4    0    0 -0.47741492761E+02 -0.81361423709E+02  0.74361790938E+02  0.12011913815E+03  0.00000000000E+00 0.  1.
</event>
<event>
12    1  0.1629553E-001  0.1959150E+03  0.7818608E-02  0.1153902E+00
         21   -1    0    0  501  502  0.00000000000E+00  0.00000000000E+00  0.39943747266E+03  0.39943747266E+03  0.00000000000E+00 0. -1.
         21   -1    0    0  502  503 -0.00000000000E+00 -0.00000000000E+00 -0.99183729961E+02  0.99183729961E+02  0.00000000000E+00 0. -1.
         -6    2    1    2    0  503 -0.51222832830E+01 -0.86087304497E+02  0.95373659595E+02  0.21514539427E+03  0.17249389540E+03 0.  0.
        -24    2    3    3    0    0  0.10586019526E+01 -0.12391868906E+03  0.71400522897E+02  0.16968972044E+03  0.91321434589E+02 0.  0.
          6    2    1    2  501    0  0.51222832830E+01  0.86087304497E+02  0.20488008311E+03  0.28347580835E+03  0.17591311403E+03 0.  0.
         24    2    5    5    0    0  0.40633614643E+02  0.10155244821E+03  0.19144899695E+03  0.24221190887E+03  0.10024918947E+03 0.  0.
          5    1    5    5  501    0 -0.35511331360E+02 -0.15465143715E+02  0.13431086158E+02  0.41263899482E+02  0.47000000000E+01 0. -1.
        -11    1    6    6    0    0  0.22468937030E+01  0.10845395020E+02 -0.11904908913E+02  0.16260319206E+02  0.00000000000E+00 0.  1.
         12    1    6    6    0    0  0.38386720940E+02  0.90707053191E+02  0.20335390586E+03  0.22595158967E+03  0.00000000000E+00 0. -1.
         -5    1    3    3    0  503 -0.61808852356E+01  0.37831384566E+02  0.23973136699E+02  0.45455673833E+02  0.47000000000E+01 0.  1.
         13    1    4    4    0    0 -0.39849162589E+02 -0.65081914731E+02  0.60114373933E+02  0.97146020698E+02  0.00000000000E+00 0. -1.
        -14    1    4    4    0    0  0.40907764542E+02 -0.58836774331E+02  0.11286148963E+02  0.72543699740E+02  0.00000000000E+00 0.  1.
</event>
<event>
12    1  0.1629553E-001  0.2315823E+03  0.7818608E-02  0.1125602E+00
         21   -1    0    0  503  502  0.00000000000E+00  0.00000000000E+00  0.62328200651E+02  0.62328200651E+02  0.00000000000E+00 0. -1.
         21   -1    0    0  501  503 -0.00000000000E+00 -0.00000000000E+00 -0.93607015903E+03  0.93607015903E+03  0.00000000000E+00 0. -1.
          6    2    1    2  501    0  0.14575180444E+03  0.50321628876E+02 -0.57981830130E+03  0.62420394016E+03  0.17223658601E+03 0.  0.
         24    2    3    3    0    0  0.13567774668E+03  0.68307215145E+02 -0.57808983374E+03  0.60298966305E+03  0.79588637930E+02 0.  0.
         -6    2    1    2    0  502 -0.14575180444E+03 -0.50321628876E+02 -0.29392365708E+03  0.37419441952E+03  0.17278452645E+03 0.  0.
        -24    2    5    5    0    0 -0.39577233833E+02 -0.78071951693E+02 -0.13887290565E+03  0.18417877443E+03  0.83513771016E+02 0.  0.
          5    1    3    3  501    0  0.10074057762E+02 -0.17985586269E+02 -0.17284675610E+01  0.21214277111E+02  0.47000000000E+01 0. -1.
        -13    1    4    4    0    0 -0.47264619026E+01  0.20794950285E+02 -0.10798217510E+03  0.11006779520E+03  0.00000000000E+00 0.  1.
         14    1    4    4    0    0  0.14040420858E+03  0.47512264860E+02 -0.47010765864E+03  0.49292186785E+03  0.00000000000E+00 0. -1.
         -5    1    5    5    0  502 -0.10617457061E+03  0.27750322817E+02 -0.15505075143E+03  0.19001564509E+03  0.47000000000E+01 0.  1.
         11    1    6    6    0    0 -0.14004399589E+02 -0.54652180602E+02 -0.13844557237E+03  0.14949970087E+03  0.00000000000E+00 0. -1.
        -12    1    6    6    0    0 -0.25572834245E+02 -0.23419771091E+02 -0.42733327964E+00  0.34679073560E+02  0.00000000000E+00 0.  1.
</event>
<event>
12    1  0.1629553E-001  0.2038709E+03  0.7818608E-02  0.1146555E+00
         21   -1    0    0  501  502  0.00000000000E+00  0.00000000000E+00  0.18807630415E+04  0.18807630415E+04  0.00000000000E+00 0. -1.
         21   -1    0    0  502  503 -0.00000000000E+00 -0.00000000000E+00 -0.44005117788E+02  0.44005117788E+02  0.00000000000E+00 0. -1.
         -6    2    1    2    0  503  0.85706682618E+02  0.67128862028E+02  0.23880721021E+03  0.31386474492E+03  0.17213446748E+03 0.  0.
        -24    2    3    3    0    0  0.37795807072E+02  0.54703075629E+02  0.42534441459E+02  0.11139266804E+03  0.78601515686E+02 0.  0.
          6    2    1    2  501    0 -0.85706682618E+02 -0.67128862028E+02  0.15979507135E+04  0.16109034144E+04  0.17236997437E+03 0.  0.
         24    2    5    5    0    0 -0.12243807858E+03 -0.73799359923E+02  0.13725834085E+04  0.13824166464E+04  0.81566796025E+02 0.  0.
          5    1    5    5  501    0  0.36731395964E+02  0.66704978948E+01  0.22536730499E+03  0.22848676800E+03  0.47000000000E+01 0. -1.
        -11    1    6    6    0    0 -0.37619519822E+02  0.14381202055E+02  0.25582950998E+03  0.25898027998E+03  0.00000000000E+00 0.  1.
         12    1    6    6    0    0 -0.84818558761E+02 -0.88180561978E+02  0.11167538986E+04  0.11234363664E+04  0.00000000000E+00 0. -1.
         -5    1    3    3    0  503  0.47910875546E+02  0.12425786399E+02  0.19627276875E+03  0.20247207688E+03  0.47000000000E+01 0.  1.
         13    1    4    4    0    0 -0.81992994446E+01  0.47993731618E+02  0.45224698863E+00  0.48691183117E+02  0.00000000000E+00 0. -1.
        -14    1    4    4    0    0  0.45995106516E+02  0.67093440109E+01  0.42082194471E+02  0.62701484927E+02  0.00000000000E+00 0.  1.
</event>
<event>
12    1  0.1629553E-001  0.2639604E+03  0.7818608E-02  0.1105263E+00
         21   -1    0    0  503  502  0.00000000000E+00  0.00000000000E+00  0.14640692908E+03  0.14640692908E+03  0.00000000000E+00 0. -1.
         21   -1    0    0  501  503 -0.00000000000E+00 -0.00000000000E+00 -0.69067832453E+03  0.69067832453E+03  0.00000000000E+00 0.  1.
          6    2    1    2  501    0 -0.19841077080E+03  0.23064066885E+02 -0.50751029936E+03  0.57057732129E+03  0.16760963714E+03 0.  0.
         24    2    3    3    0    0 -0.68670570337E+02 -0.31430094117E+01 -0.34492165217E+03  0.36087160211E+03  0.80819807783E+02 0.  0.
         -6    2    1    2    0  502  0.19841077080E+03 -0.23064066885E+02 -0.36761096089E+02  0.26650793232E+03  0.17255814861E+03 0.  0.
        -24    2    5    5    0    0  0.14009341267E+03 -0.39683477785E+02 -0.86743634098E+02  0.18778396403E+03  0.80854291207E+02 0.  0.
          5    1    3    3  501    0 -0.12974020046E+03  0.26207076297E+02 -0.16258864719E+03  0.20970571919E+03  0.47000000000E+01 0. -1.
        -13    1    4    4    0    0 -0.65083920853E+02 -0.29404585863E+02 -0.17690554528E+03  0.19077766739E+03  0.00000000000E+00 0.  1.
         14    1    4    4    0    0 -0.35866494847E+01  0.26261576451E+02 -0.16801610689E+03  0.17009393472E+03  0.00000000000E+00 0. -1.
         -5    1    5    5    0  502  0.58317358134E+02  0.16619410900E+02  0.49982538010E+02  0.78723968296E+02  0.47000000000E+01 0.  1.
         13    1    6    6    0    0  0.46189662349E+02 -0.36781128627E+02  0.12557537160E+01  0.59058557791E+02  0.00000000000E+00 0. -1.
        -14    1    6    6    0    0  0.93903750319E+02 -0.29023491582E+01 -0.87999387814E+02  0.12872540623E+03  0.00000000000E+00 0.  1.
</event>
<event>
12    1  0.1629553E-001  0.2249303E+03  0.7818608E-02  0.1130323E+00
         21   -1    0    0  501  502  0.00000000000E+00  0.00000000000E+00  0.24435052675E+03  0.24435052675E+03  0.00000000000E+00 0. -1.
         21   -1    0    0  502  503 -0.00000000000E+00 -0.00000000000E+00 -0.24864045552E+03  0.24864045552E+03  0.00000000000E+00 0. -1.
         -6    2    1    2    0  503  0.14098032949E+03 -0.33117671392E+02 -0.10333842183E+03  0.24721822735E+03  0.17165601955E+03 0.  0.
        -24    2    3    3    0    0  0.13899409124E+03 -0.80746322910E+02 -0.73223865918E+02  0.19063722289E+03  0.71704185007E+02 0.  0.
          6    2    1    2  501    0 -0.14098032949E+03  0.33117671392E+02  0.99048493058E+02  0.24577275492E+03  0.17210871454E+03 0.  0.
         24    2    5    5    0    0 -0.11436074552E+03  0.32750804879E+02  0.13672812318E+01  0.14441967906E+03  0.81879050465E+02 0.  0.
          5    1    5    5  501    0 -0.26619583967E+02  0.36686651286E+00  0.97681211826E+02  0.10135307586E+03  0.47000000000E+01 0. -1.
        -11    1    6    6    0    0 -0.48024362896E+02  0.54240579053E+02  0.13354950742E+02  0.73666373311E+02  0.00000000000E+00 0.  1.
         12    1    6    6    0    0 -0.66336382627E+02 -0.21489774174E+02 -0.11987669510E+02  0.70753305749E+02  0.00000000000E+00 0. -1.
         -5    1    3    3    0  503  0.19862382472E+01  0.47628651518E+02 -0.30114555916E+02  0.56581004462E+02  0.47000000000E+01 0.  1.
         11    1    4    4    0    0  0.12667217662E+03 -0.41581173906E+02 -0.44591627901E+02  0.14058181828E+03  0.00000000000E+00 0. -1.
        -12    1    4    4    0    0  0.12321914622E+02 -0.39165149004E+02 -0.28632238016E+02  0.50055404606E+02  0.00000000000E+00 0.  1.
</event>
<event>
12    1  0.1629553E-001  0.2060905E+03  0.7818608E-02  0.1145522E+00
         21   -1    0    0  503  502  0.00000000000E+00  0.00000000000E+00  0.27741629971E+03  0.27741629971E+03  0.00000000000E+00 0. -1.
         21   -1    0    0  501  503 -0.00000000000E+00 -0.00000000000E+00 -0.27846789641E+03  0.27846789641E+03  0.00000000000E+00 0. -1.
          6    2    1    2  501    0  0.11479994046E+03  0.33572598254E+02 -0.18920443811E+03  0.27977063350E+03  0.16783069531E+03 0.  0.
         24    2    3    3    0    0  0.10180976281E+03  0.60317022851E+02 -0.20137653457E+03  0.24730128034E+03  0.81252960164E+02 0.  0.
         -6    2    1    2    0  502 -0.11479994046E+03 -0.33572598254E+02  0.18815284141E+03  0.27611356261E+03  0.16288358434E+03 0.  0.
        -24    2    5    5    0    0 -0.81865074029E+02  0.21531272708E+02  0.17505468252E+03  0.21042647265E+03  0.80434274211E+02 0.  0.
          5    1    3    3  501    0  0.12990177654E+02 -0.26744424596E+02  0.12172096463E+02  0.32469353162E+02  0.47000000000E+01 0. -1.
        -13    1    4    4    0    0  0.88438519412E+01  0.10631780401E+01 -0.90526903321E+02  0.90964082415E+02  0.00000000000E+00 0.  1.
         14    1    4    4    0    0  0.92965910864E+02  0.59253844811E+02 -0.11084963125E+03  0.15633719793E+03  0.00000000000E+00 0. -1.
         -5    1    5    5    0  502 -0.32934866430E+02 -0.55103870962E+02  0.13098158883E+02  0.65687089964E+02  0.47000000000E+01 0.  1.
         11    1    6    6    0    0 -0.27629948441E+02  0.25758232691E+02  0.13755525704E+02  0.40200933939E+02  0.00000000000E+00 0. -1.
        -12    1    6    6    0    0 -0.54235125588E+02 -0.42269599828E+01  0.16129915682E+03  0.17022553871E+03  0.00000000000E+00 0.  1.
</event>
<event>
12    1  0.1629553E-001  0.1866501E+03  0.7818608E-02  0.1161571E+00
         21   -1    0    0  503  502  0.00000000000E+00  0.00000000000E+00  0.10443877143E+04  0.10443877143E+04  0.00000000000E+00 0.  1.
         21   -1    0    0  501  503 -0.00000000000E+00 -0.00000000000E+00 -0.35341259884E+02  0.35341259884E+02  0.00000000000E+00 0.  1.
          6    2    1    2  501    0  0.52366082988E+02 -0.46510327006E+02  0.37499924152E+03  0.41877957314E+03  0.17276134571E+03 0.  0.
         24    2    3    3    0    0  0.45026650642E+02 -0.38781662350E+02  0.91411206102E+02  0.13495240151E+03  0.79528142621E+02 0.  0.
         -6    2    1    2    0  502 -0.52366082988E+02  0.46510327006E+02  0.63404721287E+03  0.66094940102E+03  0.17301105570E+03 0.  0.
        -24    2    5    5    0    0  0.17786968507E+02 -0.20757754038E+02  0.21660768856E+03  0.23231868371E+03  0.79409190007E+02 0.  0.
          5    1    3    3  501    0  0.73394323459E+01 -0.77286646560E+01  0.28358803542E+03  0.28382717163E+03  0.47000000000E+01 0. -1.
        -11    1    4    4    0    0 -0.16724087674E+02 -0.21315397413E+02  0.54645846326E+02  0.60993522575E+02  0.00000000000E+00 0.  1.
         12    1    4    4    0    0  0.61750738316E+02 -0.17466264937E+02  0.36765359776E+02  0.73958878932E+02  0.00000000000E+00 0. -1.
         -5    1    5    5    0  502 -0.70153051494E+02  0.67268081045E+02  0.41743952431E+03  0.42863071731E+03  0.47000000000E+01 0.  1.
         11    1    6    6    0    0  0.38935879485E+02 -0.24214016435E+02  0.20005129449E+03  0.20523849963E+03  0.00000000000E+00 0. -1.
        -12    1    6    6    0    0 -0.21148910979E+02  0.34562623964E+01  0.16556394067E+02  0.27080184080E+02  0.00000000000E+00 0.  1.
</event>
<event>
12    1  0.1629553E-001  0.2023717E+03  0.7818608E-02  0.1148962E+00
         21   -1    0    0  501  502  0.00000000000E+00  0.00000000000E+00  0.30143418315E+02  0.30143418315E+02  0.00000000000E+00 0.  1.
         21   -1    0    0  502  503 -0.00000000000E+00 -0.00000000000E+00 -0.24130160078E+04  0.24130160078E+04  0.00000000000E+00 0.  1.
         -6    2    1    2    0  503  0.95529969176E+02 -0.37752104710E+02 -0.20040130808E+04  0.20136377925E+04  0.16768283980E+03 0.  0.
        -24    2    3    3    0    0  0.10635684143E+03 -0.65375042606E+02 -0.12226899609E+04  0.12317374436E+04  0.81367779538E+02 0.  0.
          6    2    1    2  501    0 -0.95529969176E+02  0.37752104710E+02 -0.37885950870E+03  0.42952163368E+03  0.17436487617E+03 0.  0.
         24    2    5    5    0    0 -0.13405162835E+03  0.17235740402E+02 -0.27083609250E+03  0.31291979889E+03  0.79370660345E+02 0.  0.
          5    1    5    5  501    0  0.38521659169E+02  0.20516364308E+02 -0.10802341620E+03  0.11660183479E+03  0.47000000000E+01 0. -1.
        -13    1    6    6    0    0 -0.55091805238E+02 -0.24719529155E+02 -0.66202497618E+02  0.89604312491E+02  0.00000000000E+00 0.  1.
         14    1    6    6    0    0 -0.78959823107E+02  0.41955269557E+02 -0.20463359488E+03  0.22331548640E+03  0.00000000000E+00 0. -1.
         -5    1    3    3    0  503 -0.10826872250E+02  0.27622937896E+02 -0.78132311993E+03  0.78190034889E+03  0.47000000000E+01 0.  1.
         13    1    4    4    0    0  0.61321470514E+02 -0.58003481748E+02 -0.45977476916E+03  0.46745862384E+03  0.00000000000E+00 0. -1.
        -14    1    4    4    0    0  0.45035370911E+02 -0.73715608582E+01 -0.76291519173E+03  0.76427881975E+03  0.00000000000E+00 0.  1.
</event>
<event>
12    1  0.1629553E-001  0.3466446E+03  0.7818608E-02  0.1064449E+00
         21   -1    0    0  501  502  0.00000000000E+00  0.00000000000E+00  0.86982236224E+02  0.86982236224E+02  0.00000000000E+00 0.  1.
         21   -1    0    0  502  503 -0.00000000000E+00 -0.00000000000E+00 -0.13893550981E+04  0.13893550981E+04  0.00000000000E+00 0. -1.
         -6    2    1    2    0  503  0.18650091192E+02 -0.29532096189E+03 -0.54829909344E+03  0.64640377072E+03  0.17217329208E+03 0.  0.
        -24    2    3    3    0    0  0.72364807719E+01 -0.73974946854E+02 -0.10892408088E+03  0.15426880902E+03  0.80060918202E+02 0.  0.
          6    2    1    2  501    0 -0.18650091192E+02  0.29532096189E+03 -0.75407376839E+03  0.82993356355E+03  0.18055518633E+03 0.  0.
         24    2    5    5    0    0  0.28464765952E+01  0.28336782983E+03 -0.54346249184E+03  0.61783882151E+03  0.77896725968E+02 0.  0.
          5    1    5    5  501    0 -0.21496567787E+02  0.11953132054E+02 -0.21061127655E+03  0.21209474204E+03  0.47000000000E+01 0. -1.
        -13    1    6    6    0    0 -0.31713394673E+02  0.10149788536E+03 -0.16128059277E+03  0.19318123547E+03  0.00000000000E+00 0.  1.
         14    1    6    6    0    0  0.34559871268E+02  0.18186994448E+03 -0.38218189906E+03  0.42465758604E+03  0.00000000000E+00 0. -1.
         -5    1    3    3    0  503  0.11413610420E+02 -0.22134601503E+03 -0.43937501256E+03  0.49213496171E+03  0.47000000000E+01 0.  1.
         11    1    4    4    0    0 -0.29001467286E+02 -0.66754466730E+01 -0.15480079847E+02  0.33545186914E+02  0.00000000000E+00 0. -1.
        -12    1    4    4    0    0  0.36237948058E+02 -0.67299500181E+02 -0.93444001037E+02  0.12072362210E+03  0.00000000000E+00 0.  1.
</event>
<event>
12    1  0.1629553E-001  0.3700172E+03  0.7818608E-02  0.1054688E+00
         21   -1    0    0  503  502  0.00000000000E+00  0.00000000000E+00  0.19468150726E+03  0.19468150726E+03  0.00000000000E+00 0. -1.
         21   -1    0    0  501  503 -0.00000000000E+00 -0.00000000000E+00 -0.79091479981E+03  0.79091479981E+03  0.00000000000E+00 0. -1.
          6    2    1    2  501    0  0.13967571137E+03  0.29645187334E+03 -0.46219421931E+03  0.59206102848E+03  0.17181311803E+03 0.  0.
         24    2    3    3    0    0  0.46834465422E+02  0.17688686252E+03 -0.15455315694E+03  0.24916104012E+03  0.68644856381E+02 0.  0.
         -6    2    1    2    0  502 -0.13967571137E+03 -0.29645187334E+03 -0.13403907324E+03  0.39353527859E+03  0.17178627647E+03 0.  0.
        -24    2    5    5    0    0 -0.10305352829E+03 -0.28936292035E+03 -0.78674271341E+02  0.32661152468E+03  0.78323162051E+02 0.  0.
          5    1    3    3  501    0  0.92841245951E+02  0.11956501082E+03 -0.30764106237E+03  0.34289998836E+03  0.47000000000E+01 0. -1.
        -13    1    4    4    0    0  0.11046672927E+02 -0.31731056258E+01 -0.12932618038E+02  0.17301739548E+02  0.00000000000E+00 0.  1.
         14    1    4    4    0    0  0.35787792495E+02  0.18005996815E+03 -0.14162053890E+03  0.23185930057E+03  0.00000000000E+00 0. -1.
         -5    1    5    5    0  502 -0.36622183088E+02 -0.70889529902E+01 -0.55364801897E+02  0.66923753913E+02  0.47000000000E+01 0.  1.
         13    1    6    6    0    0 -0.63492505643E+02 -0.18545198790E+03 -0.88337761494E+02  0.21500534458E+03  0.00000000000E+00 0. -1.
        -14    1    6    6    0    0 -0.39561022642E+02 -0.10391093245E+03  0.96634901527E+01  0.11160618010E+03  0.00000000000E+00 0.  1.
</event>
<event>
12    1  0.1629553E-001  0.2440922E+03  0.7818608E-02  0.1117171E+00
         21   -1    0    0  503  502  0.00000000000E+00  0.00000000000E+00  0.58764179170E+03  0.58764179170E+03  0.00000000000E+00 0.  1.
         21   -1    0    0  501  503 -0.00000000000E+00 -0.00000000000E+00 -0.12513158356E+03  0.12513158356E+03  0.00000000000E+00 0.  1.
          6    2    1    2  501    0  0.14943017438E+02 -0.17181761893E+03  0.38728502743E+03  0.45778891991E+03  0.17273220540E+03 0.  0.
         24    2    3    3    0    0  0.19838851177E+02 -0.18475138174E+03  0.26293674367E+03  0.33258573672E+03  0.83371985845E+02 0.  0.
         -6    2    1    2    0  502 -0.14943017438E+02  0.17181761893E+03  0.75225180713E+02  0.25498445536E+03  0.17208618979E+03 0.  0.
        -24    2    5    5    0    0 -0.66673002777E+02  0.91164574797E+02  0.80473699546E+02  0.15890874635E+03  0.77586753714E+02 0.  0.
          5    1    3    3  501    0 -0.48958337388E+01  0.12933762818E+02  0.12434828375E+03  0.12520318319E+03  0.47000000000E+01 0. -1.
        -13    1    4    4    0    0 -0.16065886753E+01 -0.61179041675E+02  0.15667328321E+03  0.16820218174E+03  0.00000000000E+00 0.  1.
         14    1    4    4    0    0  0.21445439852E+02 -0.12357234007E+03  0.10626346046E+03  0.16438355498E+03  0.00000000000E+00 0. -1.
         -5    1    5    5    0  502  0.51729985339E+02  0.80653044128E+02 -0.52485188327E+01  0.96075709002E+02  0.47000000000E+01 0.  1.
         11    1    6    6    0    0 -0.25070959665E+02  0.23318889223E+02  0.70919757388E+02  0.78752368860E+02  0.00000000000E+00 0. -1.
        -12    1    6    6    0    0 -0.41602043112E+02  0.67845685574E+02  0.95539421577E+01  0.80156377493E+02  0.00000000000E+00 0.  1.
</event>
<event>
12    1  0.1629553E-001  0.1934004E+03  0.7818608E-02  0.1155462E+00
         21   -1    0    0  503  502  0.00000000000E+00  0.00000000000E+00  0.89484022146E+03  0.89484022146E+03  0.00000000000E+00 0. -1.
         21   -1    0    0  501  503 -0.00000000000E+00 -0.00000000000E+00 -0.41848596288E+02  0.41848596288E+02  0.00000000000E+00 0. -1.
          6    2    1    2  501    0  0.87079232855E+02  0.16591017555E+02  0.44730096872E+03  0.48732110994E+03  0.17188848976E+03 0.  0.
         24    2    3    3    0    0  0.10692115761E+03  0.18930000382E+02  0.21672257526E+03  0.25583102732E+03  0.81794627278E+02 0.  0.
         -6    2    1    2    0  502 -0.87079232855E+02 -0.16591017555E+02  0.40569065645E+03  0.44936770781E+03  0.17172179080E+03 0.  0.
        -24    2    5    5    0    0 -0.12670265385E+02  0.31909367761E+02  0.10615841030E+03  0.13690868922E+03  0.79345054859E+02 0.  0.
          5    1    3    3  501    0 -0.19841924760E+02 -0.23389828271E+01  0.23057839346E+03  0.23149008262E+03  0.47000000000E+01 0. -1.
        -11    1    4    4    0    0  0.38030063341E+02 -0.31469537228E+02  0.63414728835E+02  0.80361964413E+02  0.00000000000E+00 0.  1.
         12    1    4    4    0    0  0.68891094273E+02  0.50399537611E+02  0.15330784643E+03  0.17546906291E+03  0.00000000000E+00 0. -1.
         -5    1    5    5    0  502 -0.74408967470E+02 -0.48500385316E+02  0.29953224615E+03  0.31245901859E+03  0.47000000000E+01 0.  1.
         11    1    6    6    0    0 -0.61106452553E+01 -0.24337409145E+02  0.13976744080E+02  0.28722793116E+02  0.00000000000E+00 0. -1.
        -12    1    6    6    0    0 -0.65596201296E+01  0.56246776906E+02  0.92181666218E+02  0.10818589610E+03  0.00000000000E+00 0.  1.
</event>
<event>
12    1  0.1629553E-001  0.1878327E+03  0.7818608E-02  0.1160904E+00
         21   -1    0    0  503  502  0.00000000000E+00  0.00000000000E+00  0.62608836876E+02  0.62608836876E+02  0.00000000000E+00 0. -1.
         21   -1    0    0  501  503 -0.00000000000E+00 -0.00000000000E+00 -0.76566839118E+03  0.76566839118E+03  0.00000000000E+00 0. -1.
          6    2    1    2  501    0 -0.70280008894E+02 -0.22039356486E+02 -0.56894898057E+03  0.59915279601E+03  0.17278922881E+03 0.  0.
         24    2    3    3    0    0 -0.25381699639E+02 -0.30044837305E+02 -0.12989958133E+03  0.15771603852E+03  0.80333832535E+02 0.  0.
         -6    2    1    2    0  502  0.70280008894E+02  0.22039356486E+02 -0.13411057374E+03  0.22912443205E+03  0.17055012896E+03 0.  0.
        -24    2    5    5    0    0 -0.56985446264E+01 -0.34655698947E+02 -0.63472138703E+02  0.11080728025E+03  0.83761865335E+02 0.  0.
          5    1    3    3  501    0 -0.44898309255E+02  0.80054808194E+01 -0.43904939924E+03  0.44143675749E+03  0.47000000000E+01 0. -1.
        -11    1    4    4    0    0 -0.20340083932E+02 -0.39061402829E+02 -0.13782856233E+03  0.14469355479E+03  0.00000000000E+00 0.  1.
         12    1    4    4    0    0 -0.50416157071E+01  0.90165655233E+01  0.79289809937E+01  0.13022483725E+02  0.00000000000E+00 0. -1.
         -5    1    5    5    0  502  0.75978553520E+02  0.56695055432E+02 -0.70638435032E+02  0.11831715180E+03  0.47000000000E+01 0.  1.
         11    1    6    6    0    0  0.37268142970E+02 -0.14039072978E+02 -0.14257668897E+02  0.42300013864E+02  0.00000000000E+00 0. -1.
        -12    1    6    6    0    0 -0.42966687596E+02 -0.20616625969E+02 -0.49214469806E+02  0.68507266386E+02  0.00000000000E+00 0.  1.
</event>
<event>
12    1  0.1629553E-001  0.1748164E+03  0.7818608E-02  0.1172935E+00
         21   -1    0    0  501  502  0.00000000000E+00  0.00000000000E+00  0.41605297465E+03  0.41605297465E+03  0.00000000000E+00 0.  1.
         21   -1    0    0  502  503 -0.00000000000E+00 -0.00000000000E+00 -0.87369513895E+02  0.87369513895E+02  0.00000000000E+00 0.  1.
         -6    2    1    2    0  503 -0.29764685299E+02  0.22611164093E+01  0.63801157567E+02  0.18609507351E+03  0.17224906252E+03 0.  0.
        -24    2    3    3    0    0  0.31909562127E+02  0.88682081061E+01  0.90427148784E+02  0.11843119937E+03  0.68934856756E+02 0.  0.
          6    2    1    2  501    0  0.29764685299E+02 -0.22611164093E+01  0.26488230319E+03  0.31732741503E+03  0.17217143970E+03 0.  0.
         24    2    5    5    0    0  0.25428756782E+02  0.25449848597E+02  0.27341551377E+03  0.28763560571E+03  0.81755012325E+02 0.  0.
          5    1    5    5  501    0  0.43359285173E+01 -0.27710965006E+02 -0.85332105811E+01  0.29691809317E+02  0.47000000000E+01 0. -1.
        -13    1    6    6    0    0  0.55101413274E+02  0.20403796411E+02  0.19421377028E+03  0.20290753860E+03  0.00000000000E+00 0.  1.
         14    1    6    6    0    0 -0.29672656492E+02  0.50460521859E+01  0.79201743485E+02  0.84728067115E+02  0.00000000000E+00 0. -1.
         -5    1    3    3    0  503 -0.61674247426E+02 -0.66070916968E+01 -0.26625991217E+02  0.67663874147E+02  0.47000000000E+01 0.  1.
         11    1    4    4    0    0 -0.21836084344E+02  0.54224202229E+01  0.23647059400E+02  0.32640475469E+02  0.00000000000E+00 0. -1.
        -12    1    4    4    0    0  0.53745646471E+02  0.34457878832E+01  0.66780089384E+02  0.85790723897E+02  0.00000000000E+00 0.  1.
</event>
<event>
12    1  0.1629553E-001  0.1945310E+03  0.7818608E-02  0.1155611E+00
         21   -1    0    0  503  502  0.00000000000E+00  0.00000000000E+00  0.16673719513E+04  0.16673719513E+04  0.00000000000E+00 0.  1.
         21   -1    0    0  501  503 -0.00000000000E+00 -0.00000000000E+00 -0.45333101422E+02  0.45333101422E+02  0.00000000000E+00 0.  1.
          6    2    1    2  501    0 -0.23061572907E+02 -0.75418563939E+02  0.19232679387E+03  0.26981944991E+03  0.17202657928E+03 0.  0.
         24    2    3    3    0    0 -0.68570841617E+02 -0.91274767811E+01  0.13496819964E+03  0.17093719616E+03  0.78853274911E+02 0.  0.
         -6    2    1    2    0  502  0.23061572907E+02  0.75418563939E+02  0.14297120560E+04  0.14428856029E+04  0.17782717391E+03 0.  0.
        -24    2    5    5    0    0 -0.59893012077E+01 -0.17938624910E+02  0.31475060958E+03  0.32363557042E+03  0.72899727135E+02 0.  0.
          5    1    3    3  501    0  0.45509268710E+02 -0.66291087158E+02  0.57358594237E+02  0.98882253756E+02  0.47000000000E+01 0. -1.
        -11    1    4    4    0    0 -0.66994892100E+02  0.19456077679E+02  0.65049186540E+02  0.95384753476E+02  0.00000000000E+00 0.  1.
         12    1    4    4    0    0 -0.15759495163E+01 -0.28583554460E+02  0.69919013098E+02  0.75552442681E+02  0.00000000000E+00 0. -1.
         -5    1    5    5    0  502  0.29050874115E+02  0.93357188849E+02  0.11149614465E+04  0.11192500324E+04  0.47000000000E+01 0.  1.
         13    1    6    6    0    0  0.30445913852E+02 -0.21859536007E+02  0.13048074263E+03  0.13575719938E+03  0.00000000000E+00 0. -1.
        -14    1    6    6    0    0 -0.36435215060E+02  0.39209110973E+01  0.18426986695E+03  0.18787837105E+03  0.00000000000E+00 0.  1.
</event>
<event>
12    1  0.1629553E-001  0.1766908E+03  0.7818608E-02  0.1171676E+00
         21   -1    0    0  503  502  0.00000000000E+00  0.00000000000E+00  0.37197217747E+03  0.37197217747E+03  0.00000000000E+00 0.  1.
         21   -1    0    0  501  503 -0.00000000000E+00 -0.00000000000E+00 -0.10197528561E+03  0.10197528561E+03  0.00000000000E+00 0.  1.
          6    2    1    2  501    0  0.25135446622E+02 -0.91163613623E+01  0.32853612767E+02  0.17971918244E+03  0.17465602178E+03 0.  0.
         24    2    3    3    0    0  0.60657530108E+02 -0.45289266642E+02 -0.13274936442E+02  0.11101524846E+03  0.80110597441E+02 0.  0.
         -6    2    1    2    0  502 -0.25135446622E+02  0.91163613623E+01  0.23714327909E+03  0.29422828065E+03  0.17210010921E+03 0.  0.
        -24    2    5    5    0    0  0.16645286808E+01  0.12690533541E+02  0.33167336551E+02  0.88414557782E+02  0.80952093961E+02 0.  0.
          5    1    3    3  501    0 -0.35522083486E+02  0.36172905280E+02  0.46128549209E+02  0.68703933975E+02  0.47000000000E+01 0. -1.
        -11    1    4    4    0    0 -0.88738700807E+01  0.14307701074E+02  0.51429729744E+01  0.17604148694E+02  0.00000000000E+00 0.  1.
         12    1    4    4    0    0  0.69531400189E+02 -0.59596967716E+02 -0.18417909416E+02  0.93411099771E+02  0.00000000000E+00 0. -1.
         -5    1    5    5    0  502 -0.26799975303E+02 -0.35741721786E+01  0.20397594254E+03  0.20581372286E+03  0.47000000000E+01 0.  1.
         13    1    6    6    0    0  0.38285689271E+02 -0.66587187252E+01  0.24973647465E+02  0.46193241992E+02  0.00000000000E+00 0. -1.
        -14    1    6    6    0    0 -0.36621160590E+02  0.19349252266E+02  0.81936890857E+01  0.42221315790E+02  0.00000000000E+00 0.  1.
</event>
<event>
12    1  0.1629553E-001  0.1815360E+03  0.7818608E-02  0.1166438E+00
         21   -1    0    0  501  502  0.00000000000E+00  0.00000000000E+00  0.21543239662E+03  0.21543239662E+03  0.00000000000E+00 0.  1.
         21   -1    0    0  502  503 -0.00000000000E+00 -0.00000000000E+00 -0.16388544635E+03  0.16388544635E+03  0.00000000000E+00 0.  1.
         -6    2    1    2    0  503 -0.42998121366E+02 -0.37242883819E+02 -0.24082625361E+02  0.18265784102E+03  0.17189544265E+03 0.  0.
        -24    2    3    3    0    0  0.35387377698E+02  0.99477419211E+01 -0.37061896970E+01  0.88804067775E+02  0.80753963009E+02 0.  0.
          6    2    1    2  501    0  0.42998121366E+02  0.37242883819E+02  0.75629575635E+02  0.19666000196E+03  0.17239330852E+03 0.  0.
         24    2    5    5    0    0 -0.36906164102E+02 -0.11189383217E+02  0.29765856863E+02  0.92468111554E+02  0.78594390220E+02 0.  0.
          5    1    5    5  501    0  0.79904285467E+02  0.48432267037E+02  0.45863718772E+02  0.10419189040E+03  0.47000000000E+01 0. -1.
        -11    1    6    6    0    0  0.19279996894E+02 -0.56205532215E+01 -0.10934383959E+02  0.22866343200E+02  0.00000000000E+00 0.  1.
         12    1    6    6    0    0 -0.56186160996E+02 -0.55688299959E+01  0.40700240823E+02  0.69601768354E+02  0.00000000000E+00 0. -1.
         -5    1    3    3    0  503 -0.78385499064E+02 -0.47190625740E+02 -0.20376435664E+02  0.93853773241E+02  0.47000000000E+01 0.  1.
         11    1    4    4    0    0  0.54082506797E+02 -0.14342067808E+02  0.68863848227E+01  0.56374060935E+02  0.00000000000E+00 0. -1.
        -12    1    4    4    0    0 -0.18695129099E+02  0.24289809729E+02 -0.10592574520E+02  0.32430006840E+02  0.00000000000E+00 0.  1.
</event>
<event>
12    1  0.1629553E-001  0.1955679E+03  0.7818608E-02  0.1154707E+00
         21   -1    0    0  503  502  0.00000000000E+00  0.00000000000E+00  0.47707793676E+02  0.47707793676E+02  0.00000000000E+00 0.  1.
         21   -1    0    0  501  503 -0.00000000000E+00 -0.00000000000E+00 -0.79185768670E+03  0.79185768670E+03  0.00000000000E+00 0.  1.
          6    2    1    2  501    0 -0.69557339941E+02  0.36286121258E+02 -0.42849569919E+03  0.47101525637E+03  0.17914212619E+03 0.  0.
         24    2    3    3    0    0 -0.72550218849E+02  0.64316120101E+02 -0.17475196957E+03  0.21566724193E+03  0.81080273883E+02 0.  0.
         -6    2    1    2    0  502  0.69557339941E+02 -0.36286121258E+02 -0.31565419384E+03  0.36855022401E+03  0.17331125581E+03 0.  0.
        -24    2    5    5    0    0  0.33859839982E+02  0.43504610102E+02 -0.21405547320E+03  0.23444108059E+03  0.78126402670E+02 0.  0.
          5    1    3    3  501    0  0.29928789081E+01 -0.28029998843E+02 -0.25374372962E+03  0.25534801444E+03  0.47000000000E+01 0. -1.
        -11    1    4    4    0    0 -0.77742256230E+02  0.44359119271E+02 -0.84511830980E+02  0.12310093193E+03  0.00000000000E+00 0.  1.
         12    1    4    4    0    0  0.51920373810E+01  0.19957000829E+02 -0.90240138591E+02  0.92566310000E+02  0.00000000000E+00 0. -1.
         -5    1    5    5    0  502  0.35697499959E+02 -0.79790731360E+02 -0.10159872064E+03  0.13410914342E+03  0.47000000000E+01 0.  1.
         11    1    6    6    0    0 -0.69603753503E+01  0.68596039755E+01 -0.14910600112E+03  0.14942590325E+03  0.00000000000E+00 0. -1.
        -12    1    6    6    0    0  0.40820215332E+02  0.36645006127E+02 -0.64949472085E+02  0.85015177339E+02  0.00000000000E+00 0.  1.
</event>
<event>
12    1  0.1629553E-001  0.3847486E+03  0.7818608E-02  0.1049396E+00
         21   -1    0    0  501  502  0.00000000000E+00  0.00000000000E+00  0.12729056375E+04  0.12729056375E+04  0.00000000000E+00 0.  1.
         21   -1    0    0  502  503 -0.00000000000E+00 -0.00000000000E+00 -0.32170165700E+03  0.32170165700E+03  0.00000000000E+00 0.  1.
         -6    2    1    2    0  503  0.25655325021E+03  0.22631023517E+03 -0.16204015568E+03  0.41747878094E+03  0.17605575182E+03 0.  0.
        -24    2    3    3    0    0  0.59416164569E+02  0.25040317649E+02 -0.26001856946E+02  0.10458723591E+03  0.78135108817E+02 0.  0.
          6    2    1    2  501    0 -0.25655325021E+03 -0.22631023517E+03  0.11132441362E+04  0.11771285136E+04  0.17112316604E+03 0.  0.
         24    2    5    5    0    0 -0.25930457920E+03 -0.16615178463E+03  0.86560986052E+03  0.92223356762E+03  0.79931484942E+02 0.  0.
          5    1    5    5  501    0  0.27513289934E+01 -0.60158450537E+02  0.24763427567E+03  0.25489494595E+03  0.47000000000E+01 0. -1.
        -13    1    6    6    0    0 -0.22491450982E+03 -0.11781613574E+03  0.75746831046E+03  0.79889011755E+03  0.00000000000E+00 0.  1.
         14    1    6    6    0    0 -0.34390069378E+02 -0.48335648891E+02  0.10814155006E+03  0.12334345007E+03  0.00000000000E+00 0. -1.
         -5    1    3    3    0  503  0.19713708564E+03  0.20126991752E+03 -0.13603829873E+03  0.31289154503E+03  0.47000000000E+01 0.  1.
         11    1    4    4    0    0  0.55251878676E+02 -0.12293164618E+02 -0.34207347735E+02  0.66136484883E+02  0.00000000000E+00 0. -1.
        -12    1    4    4    0    0  0.41642858932E+01  0.37333482268E+02  0.82054907892E+01  0.38450751024E+02  0.00000000000E+00 0.  1.
</event>
<event>
12    1  0.1629553E-001  0.1908838E+03  0.7818608E-02  0.1158524E+00
         21   -1    0    0  501  502  0.00000000000E+00  0.00000000000E+00  0.19559905452E+03  0.19559905452E+03  0.00000000000E+00 0. -1.
         21   -1    0    0  502  503 -0.00000000000E+00 -0.00000000000E+00 -0.18836166333E+03  0.18836166333E+03  0.00000000000E+00 0. -1.
         -6    2    1    2    0  503  0.49262066098E+02  0.56360577749E+02 -0.29894813379E+02  0.19321055764E+03  0.17559428760E+03 0.  0.
        -24    2    3    3    0    0  0.82473273210E+02 -0.16417746390E+02 -0.24020157562E+02  0.11285963777E+03  0.71336853581E+02 0.  0.
          6    2    1    2  501    0 -0.49262066098E+02 -0.56360577749E+02  0.37132204568E+02  0.19075016022E+03  0.17147465447E+03 0.  0.
         24    2    5    5    0    0 -0.27302869768E+02  0.71266126009E+01  0.75420848752E+02  0.11328442640E+03  0.79679492555E+02 0.  0.
          5    1    5    5  501    0 -0.21959196330E+02 -0.63487190350E+02 -0.38288644184E+02  0.77465733815E+02  0.47000000000E+01 0. -1.
        -11    1    6    6    0    0  0.82920415822E+01  0.36366728588E+02  0.24539359345E+02  0.44648371290E+02  0.00000000000E+00 0.  1.
         12    1    6    6    0    0 -0.35594911350E+02 -0.29240115987E+02  0.50881489407E+02  0.68636055111E+02  0.00000000000E+00 0. -1.
         -5    1    3    3    0  503 -0.33211207111E+02  0.72778324139E+02 -0.58746558166E+01  0.80350919865E+02  0.47000000000E+01 0.  1.
         13    1    4    4    0    0  0.53513422252E+02  0.13846682630E+02  0.13193664739E+02  0.56828599932E+02  0.00000000000E+00 0. -1.
        -14    1    4    4    0    0  0.28959850957E+02 -0.30264429020E+02 -0.37213822302E+02  0.56031037842E+02  0.00000000000E+00 0.  1.
</event>
<event>
12    1  0.1629553E-001  0.4668648E+03  0.7818608E-02  0.1022833E+00
         21   -1    0    0  503  502  0.00000000000E+00  0.00000000000E+00  0.22925416556E+03  0.22925416556E+03  0.00000000000E+00 0.  1.
         21   -1    0    0  501  503 -0.00000000000E+00 -0.00000000000E+00 -0.98033702587E+03  0.98033702587E+03  0.00000000000E+00 0. -1.
          6    2    1    2  501    0 -0.43359203566E+03  0.23063900949E+02 -0.26910188465E+03  0.53857074033E+03  0.17061248813E+03 0.  0.
         24    2    3    3    0    0 -0.21441608384E+03 -0.19260545104E+02 -0.91596500794E+02  0.25333450861E+03  0.97176276360E+02 0.  0.
         -6    2    1    2    0  502  0.43359203566E+03 -0.23063900949E+02 -0.48198097566E+03  0.67102045109E+03  0.17154820890E+03 0.  0.
        -24    2    5    5    0    0  0.38097151713E+03  0.16144989301E+02 -0.45827431159E+03  0.60108939958E+03  0.76766946530E+02 0.  0.
          5    1    3    3  501    0 -0.21917595181E+03  0.42324446052E+02 -0.17750538386E+03  0.28523623172E+03  0.47000000000E+01 0. -1.
        -13    1    4    4    0    0 -0.17353493574E+03  0.15795434039E+02 -0.40067008762E+02  0.17879942632E+03  0.00000000000E+00 0.  1.
         14    1    4    4    0    0 -0.40881148100E+02 -0.35055979143E+02 -0.51529492032E+02  0.74535082294E+02  0.00000000000E+00 0. -1.
         -5    1    5    5    0  502  0.52620518527E+02 -0.39208890250E+02 -0.23706664067E+02  0.69931051514E+02  0.47000000000E+01 0.  1.
         11    1    6    6    0    0  0.19640748166E+03  0.11566646576E+02 -0.17706601975E+03  0.26469239036E+03  0.00000000000E+00 0. -1.
        -12    1    6    6    0    0  0.18456403547E+03  0.45783427253E+01 -0.28120829184E+03  0.33639700922E+03  0.00000000000E+00 0.  1.
</event>
<event>
12    1  0.1629553E-001  0.2178562E+03  0.7818608E-02  0.1135589E+00
         21   -1    0    0  501  502  0.00000000000E+00  0.00000000000E+00  0.21992809273E+03  0.21992809273E+03  0.00000000000E+00 0. -1.
         21   -1    0    0  502  503 -0.00000000000E+00 -0.00000000000E+00 -0.35610624388E+03  0.35610624388E+03  0.00000000000E+00 0.  1.
         -6    2    1    2    0  503  0.10352077261E+03  0.83873501396E+02 -0.24915257299E+03  0.33062742497E+03  0.17171538928E+03 0.  0.
        -24    2    3    3    0    0  0.72186928817E+01  0.82191370436E+02 -0.17240200352E+03  0.20738108613E+03  0.80479395891E+02 0.  0.
          6    2    1    2  501    0 -0.10352077261E+03 -0.83873501396E+02  0.11297442184E+03  0.24540691164E+03  0.17236594122E+03 0.  0.
         24    2    5    5    0    0 -0.52848968813E+02 -0.32372631267E+02  0.13574614412E+03  0.16950821165E+03  0.80405331990E+02 0.  0.
          5    1    5    5  501    0 -0.50671803800E+02 -0.51500870129E+02 -0.22771722285E+02  0.75898699991E+02  0.47000000000E+01 0. -1.
        -13    1    6    6    0    0 -0.14918716417E+02  0.16991248638E+02  0.28968026403E+01  0.22796098248E+02  0.00000000000E+00 0.  1.
         14    1    6    6    0    0 -0.37930252396E+02 -0.49363879905E+02  0.13284934148E+03  0.14671211340E+03  0.00000000000E+00 0. -1.
         -5    1    3    3    0  503  0.96302079732E+02  0.16821309601E+01 -0.76750569462E+02  0.12324633884E+03  0.47000000000E+01 0.  1.
         11    1    4    4    0    0  0.18421592056E+02  0.50160347588E+02 -0.30604204625E+02  0.61579484122E+02  0.00000000000E+00 0. -1.
        -12    1    4    4    0    0 -0.11202899174E+02  0.32031022849E+02 -0.14179779890E+03  0.14580160201E+03  0.00000000000E+00 0.  1.
</event>
<event>
12    1  0.1629553E-001  0.2516147E+03  0.7818608E-02  0.1112293E+00
         21   -1    0    0  503  502  0.00000000000E+00  0.00000000000E+00  0.51686531390E+03  0.51686531390E+03  0.00000000000E+00 0.  1.
         21   -1    0    0  501  503 -0.00000000000E+00 -0.00000000000E+00 -0.12254518938E+03  0.12254518938E+03  0.00000000000E+00 0.  1.
          6    2    1    2  501    0 -0.27194203315E+02  0.18122879477E+03  0.18958245496E+03  0.31504199666E+03  0.17241389642E+03 0.  0.
         24    2    3    3    0    0 -0.33301816233E+02  0.18059934684E+03  0.21169493240E+03  0.29161656606E+03  0.80624699395E+02 0.  0.
         -6    2    1    2    0  502  0.27194203315E+02 -0.18122879477E+03  0.20473766955E+03  0.32436850663E+03  0.17237753337E+03 0.  0.
        -24    2    5    5    0    0  0.52552565353E+02 -0.18566951992E+03  0.13208659192E+03  0.24714781221E+03  0.80001441005E+02 0.  0.
          5    1    3    3  501    0  0.61076129182E+01  0.62944793555E+00 -0.22112477438E+02  0.23425430598E+02  0.47000000000E+01 0. -1.
        -11    1    4    4    0    0 -0.49915664202E+02  0.57016408346E+02  0.84262927819E+02  0.11332557239E+03  0.00000000000E+00 0.  1.
         12    1    4    4    0    0  0.16613847969E+02  0.12358293849E+03  0.12743200458E+03  0.17829099367E+03  0.00000000000E+00 0. -1.
         -5    1    5    5    0  502 -0.25358362038E+02  0.44407251492E+01  0.72651077631E+02  0.77220694416E+02  0.47000000000E+01 0.  1.
         11    1    6    6    0    0 -0.20720911641E+02 -0.52848430159E+02  0.29009554802E+02  0.63748466799E+02  0.00000000000E+00 0. -1.
        -12    1    6    6    0    0  0.73273476994E+02 -0.13282108976E+03  0.10307703712E+03  0.18339934541E+03  0.00000000000E+00 0.  1.
</event>
<event>
12    1  0.1629553E-001  0.2556530E+03  0.7818608E-02  0.1109923E+00
         21   -1    0    0  503  502  0.00000000000E+00  0.00000000000E+00  0.18118191939E+03  0.18118191939E+03  0.00000000000E+00 0. -1.
         21   -1    0    0  501  503 -0.00000000000E+00 -0.00000000000E+00 -0.72056674749E+03  0.72056674749E+03  0.00000000000E+00 0.  1.
          6    2    1    2  501    0  0.12351151473E+03 -0.14142189937E+03 -0.58911216508E+03  0.64219281501E+03  0.17350279739E+03 0.  0.
         24    2    3    3    0    0  0.25417764335E+02 -0.86976024711E+02 -0.43629833506E+03  0.45255923734E+03  0.79010977100E+02 0.  0.
         -6    2    1    2    0  502 -0.12351151473E+03  0.14142189937E+03  0.49727336979E+02  0.25955585188E+03  0.17216615321E+03 0.  0.
        -24    2    5    5    0    0 -0.11383830990E+03  0.15866537957E+03  0.79559260828E+02  0.22345956146E+03  0.73963748885E+02 0.  0.
          5    1    3    3  501    0  0.98093750394E+02 -0.54445874658E+02 -0.15281383002E+03  0.18963357767E+03  0.47000000000E+01 0. -1.
        -11    1    4    4    0    0 -0.12195298170E+02 -0.64294807851E+02 -0.16120579668E+03  0.17398234536E+03  0.00000000000E+00 0.  1.
         12    1    4    4    0    0  0.37613062505E+02 -0.22681216860E+02 -0.27509253838E+03  0.27857689197E+03  0.00000000000E+00 0. -1.
         -5    1    5    5    0  502 -0.96732048317E+01 -0.17243480206E+02 -0.29831923850E+02  0.36096290417E+02  0.47000000000E+01 0.  1.
         13    1    6    6    0    0 -0.51111427742E+02  0.92018441938E+02  0.79545335908E+02  0.13193647019E+03  0.00000000000E+00 0. -1.
        -14    1    6    6    0    0 -0.62726882155E+02  0.66646937637E+02  0.13924920569E-01  0.91523091267E+02  0.00000000000E+00 0.  1.
</event>
<event>
12    1  0.1629553E-001  0.1864053E+03  0.7818608E-02  0.1161949E+00
         21   -1    0    0  501  502  0.00000000000E+00  0.00000000000E+00  0.57581979502E+03  0.57581979502E+03  0.00000000000E+00 0.  1.
         21   -1    0    0  502  503 -0.00000000000E+00 -0.00000000000E+00 -0.81425488523E+02  0.81425488523E+02  0.00000000000E+00 0.  1.
         -6    2    1    2    0  503  0.65242842165E+02 -0.21611557190E+02  0.78417583995E+02  0.20141246032E+03  0.17231939483E+03 0.  0.
        -24    2    3    3    0    0 -0.11797388902E+02 -0.12253678398E+02  0.89965649076E+02  0.12281083880E+03  0.81849576021E+02 0.  0.
          6    2    1    2  501    0 -0.65242842165E+02  0.21611557190E+02  0.41597672250E+03  0.45583282322E+03  0.17327215935E+03 0.  0.
         24    2    5    5    0    0 -0.49604811709E+02 -0.43318298903E+02  0.33400831962E+03  0.34999642457E+03  0.81233166076E+02 0.  0.
          5    1    5    5  501    0 -0.15638030456E+02  0.64929856093E+02  0.81968402882E+02  0.10583639865E+03  0.47000000000E+01 0. -1.
        -11    1    6    6    0    0 -0.71938102362E+02 -0.27668630743E+02  0.25654153410E+03  0.26786974897E+03  0.00000000000E+00 0.  1.
         12    1    6    6    0    0  0.22333290653E+02 -0.15649668160E+02  0.77466785524E+02  0.82126675595E+02  0.00000000000E+00 0. -1.
         -5    1    3    3    0  503  0.77040231067E+02 -0.93578787914E+01 -0.11548065081E+02  0.78601621519E+02  0.47000000000E+01 0.  1.
         13    1    4    4    0    0 -0.13307152146E+02 -0.12152507027E+02 -0.11471397754E+02  0.21362506681E+02  0.00000000000E+00 0. -1.
        -14    1    4    4    0    0  0.15097632442E+01 -0.10117137104E+00  0.10143704683E+03  0.10144833212E+03  0.00000000000E+00 0.  1.
</event>
<event>
12    1  0.1629553E-001  0.2421577E+03  0.7818608E-02  0.1118416E+00
         21   -1    0    0  503  502  0.00000000000E+00  0.00000000000E+00  0.10394517895E+04  0.10394517895E+04  0.00000000000E+00 0. -1.
         21   -1    0    0  501  503 -0.00000000000E+00 -0.00000000000E+00 -0.76733230652E+02  0.76733230652E+02  0.00000000000E+00 0. -1.
          6    2    1    2  501    0 -0.15350675579E+03 -0.66379230332E+02  0.19342856798E+03  0.30968179809E+03  0.17469309908E+03 0.  0.
         24    2    3    3    0    0 -0.76546828457E+02 -0.99155231337E+02  0.88795526730E+02  0.17563978983E+03  0.85284895243E+02 0.  0.
         -6    2    1    2    0  502  0.15350675579E+03  0.66379230332E+02  0.76928999083E+03  0.80650322202E+03  0.17512804132E+03 0.  0.
        -24    2    5    5    0    0  0.10678723900E+03 -0.26877163998E+02  0.39097120997E+03  0.41404092029E+03  0.80283873173E+02 0.  0.
          5    1    3    3  501    0 -0.76959927329E+02  0.32776001005E+02  0.10463304125E+03  0.13404200826E+03  0.47000000000E+01 0. -1.
        -11    1    4    4    0    0  0.18782918949E+02 -0.12796591694E+02  0.10316791577E+02  0.24959707363E+02  0.00000000000E+00 0.  1.
         12    1    4    4    0    0 -0.95329747406E+02 -0.86358639643E+02  0.78478735153E+02  0.15068008247E+03  0.00000000000E+00 0. -1.
         -5    1    5    5    0  502  0.46719516789E+02  0.93256394330E+02  0.37831878086E+03  0.39246230174E+03  0.47000000000E+01 0.  1.
         11    1    6    6    0    0  0.81111265172E+02  0.93446692522E+01  0.16920820597E+03  0.18787702666E+03  0.00000000000E+00 0. -1.
        -12    1    6    6    0    0  0.25675973825E+02 -0.36221833250E+02  0.22176300400E+03  0.22616389362E+03  0.00000000000E+00 0.  1.
</event>
<event>
12    1  0.1629553E-001  0.3444406E+03  0.7818608E-02  0.1064956E+00
         21   -1    0    0  503  502  0.00000000000E+00  0.00000000000E+00  0.86068549279E+03  0.86068549279E+03  0.00000000000E+00 0.  1.
         21   -1    0    0  501  503 -0.00000000000E+00 -0.00000000000E+00 -0.20933727365E+03  0.20933727365E+03  0.00000000000E+00 0.  1.
          6    2    1    2  501    0 -0.14533581451E+02 -0.29787474948E+03  0.12606719164E+02  0.34432996416E+03  0.17164965332E+03 0.  0.
         24    2    3    3    0    0  0.91382680515E+01 -0.30005008672E+03  0.33444249929E+02  0.31237090849E+03  0.79646118121E+02 0.  0.
         -6    2    1    2    0  502  0.14533581451E+02  0.29787474948E+03  0.63874149998E+03  0.72569280228E+03  0.17233324727E+03 0.  0.
        -24    2    5    5    0    0  0.22820965618E+01  0.95219540284E+02  0.14231588194E+03  0.18933497681E+03  0.80758617959E+02 0.  0.
          5    1    3    3  501    0 -0.23671849502E+02  0.21753372456E+01 -0.20837530766E+02  0.31959055671E+02  0.47000000000E+01 0. -1.
        -11    1    4    4    0    0 -0.18606232726E+02 -0.81908489205E+02 -0.19411239347E+02  0.86208982786E+02  0.00000000000E+00 0.  1.
         12    1    4    4    0    0  0.27744500777E+02 -0.21814159752E+03  0.52855489276E+02  0.22616192570E+03  0.00000000000E+00 0. -1.
         -5    1    5    5    0  502  0.12251484889E+02  0.20265520919E+03  0.49642561804E+03  0.53635782546E+03  0.47000000000E+01 0.  1.
         11    1    6    6    0    0 -0.10281897429E+02 -0.66961310797E+01  0.49230222140E+02  0.50736282462E+02  0.00000000000E+00 0. -1.
        -12    1    6    6    0    0  0.12563993991E+02  0.10191567136E+03  0.93085659805E+02  0.13859869435E+03  0.00000000000E+00 0.  1.
</event>
<event>
12    1  0.1629553E-001  0.1801970E+03  0.7818608E-02  0.1167747E+00
         21   -1    0    0  501  502  0.00000000000E+00  0.00000000000E+00  0.99293663470E+03  0.99293663470E+03  0.00000000000E+00 0. -1.
         21   -1    0    0  502  503 -0.00000000000E+00 -0.00000000000E+00 -0.41362841152E+02  0.41362841152E+02  0.00000000000E+00 0. -1.
         -6    2    1    2    0  503  0.41213942225E+02 -0.30792560735E+02  0.23719756432E+03  0.29754690205E+03  0.17211828366E+03 0.  0.
        -24    2    3    3    0    0 -0.12227096794E+02 -0.74840125636E+02  0.14868712723E+03  0.18506436964E+03  0.79940057564E+02 0.  0.
          6    2    1    2  501    0 -0.41213942225E+02  0.30792560735E+02  0.71437622922E+03  0.73675257379E+03  0.17269680740E+03 0.  0.
         24    2    5    5    0    0 -0.29706737437E+02  0.40821704100E+02  0.18232425137E+03  0.20446092759E+03  0.77545061094E+02 0.  0.
          5    1    5    5  501    0 -0.11507204788E+02 -0.10029143365E+02  0.53205197785E+03  0.53229164620E+03  0.47000000000E+01 0. -1.
        -11    1    6    6    0    0 -0.22112387765E+02 -0.45487320802E+01  0.14045642245E+03  0.14225911311E+03  0.00000000000E+00 0.  1.
         12    1    6    6    0    0 -0.75943496727E+01  0.45370436180E+02  0.41867828916E+02  0.62201814478E+02  0.00000000000E+00 0. -1.
         -5    1    3    3    0  503  0.53441039019E+02  0.44047564900E+02  0.88510437091E+02  0.11248253242E+03  0.47000000000E+01 0.  1.
         11    1    4    4    0    0  0.10103761090E+02 -0.62631286075E+02  0.43697290699E+02  0.77033870459E+02  0.00000000000E+00 0. -1.
        -12    1    4    4    0    0 -0.22330857884E+02 -0.12208839561E+02  0.10498983653E+03  0.10803049918E+03  0.00000000000E+00 0.  1.
</event>
<event>
12    1  0.1629553E-001  0.1977662E+03  0.7818608E-02  0.1151645E+00
         21   -1    0    0  503  502  0.00000000000E+00  0.00000000000E+00  0.53210043100E+03  0.53210043100E+03  0.00000000000E+00 0. -1.
         21   -1    0    0  501  503 -0.00000000000E+00 -0.00000000000E+00 -0.21055177089E+03  0.21055177089E+03  0.00000000000E+00 0.  1.
          6    2    1    2  501    0  0.21760618795E+01  0.98091281161E+02 -0.13882547455E+03  0.24159751302E+03  0.17166890001E+03 0.  0.
         24    2    3    3    0    0 -0.11422022985E+01  0.55793267841E+02 -0.16449814274E+03  0.19178477669E+03  0.81286950013E+02 0.  0.
         -6    2    1    2    0  502 -0.21760618795E+01 -0.98091281161E+02  0.46037413466E+03  0.50105468887E+03  0.17171145183E+03 0.  0.
        -24    2    5    5    0    0  0.30614202915E+02  0.77393533181E+01  0.20015566845E+03  0.21819241706E+03  0.80922878337E+02 0.  0.
          5    1    3    3  501    0  0.33182641780E+01  0.42298013320E+02  0.25672668198E+02  0.49812736327E+02  0.47000000000E+01 0. -1.
        -13    1    4    4    0    0  0.22594814728E+02 -0.10569634393E+02 -0.66893320110E+02  0.71392990546E+02  0.00000000000E+00 0.  1.
         14    1    4    4    0    0 -0.23737017026E+02  0.66362902234E+02 -0.97604822633E+02  0.12039178615E+03  0.00000000000E+00 0. -1.
         -5    1    5    5    0  502 -0.32790264795E+02 -0.10583063448E+03  0.26021846621E+03  0.28286227181E+03  0.47000000000E+01 0.  1.
         11    1    6    6    0    0 -0.11962775367E+02  0.15044453095E+02  0.15314921420E+03  0.15435065718E+03  0.00000000000E+00 0. -1.
        -12    1    6    6    0    0  0.42576978282E+02 -0.73050997768E+01  0.47006454252E+02  0.63841759873E+02  0.00000000000E+00 0.  1.
</event>
<event>
12    1  0.1629553E-001  0.2801621E+03  0.7818608E-02  0.1095667E+00
         21   -1    0    0  501  502  0.00000000000E+00  0.00000000000E+00  0.89420339094E+03  0.89420339094E+03  0.00000000000E+00 0. -1.
         21   -1    0    0  502  503 -0.00000000000E+00 -0.00000000000E+00 -0.13875207384E+03  0.13875207384E+03  0.00000000000E+00 0.  1.
         -6    2    1    2    0  503 -0.16643252744E+03  0.14417992013E+03  0.69145261559E+03  0.74605463801E+03  0.17321422497E+03 0.  0.
        -24    2    3    3    0    0 -0.45621650331E+02  0.11722081068E+03  0.28601384438E+03  0.32211508004E+03  0.78308059462E+02 0.  0.
          6    2    1    2  501    0  0.16643252744E+03 -0.14417992013E+03  0.63998701510E+02  0.28690082677E+03  0.17241988008E+03 0.  0.
         24    2    5    5    0    0  0.18740360573E+03 -0.10829497504E+03  0.76650971052E+02  0.24320088017E+03  0.80146014801E+02 0.  0.
          5    1    5    5  501    0 -0.20971078295E+02 -0.35884945081E+02 -0.12652269542E+02  0.43699946601E+02  0.47000000000E+01 0. -1.
        -11    1    6    6    0    0  0.16090184417E+03 -0.10756744611E+03  0.39460268559E+02  0.19752790110E+03  0.00000000000E+00 0.  1.
         12    1    6    6    0    0  0.26501761569E+02 -0.72752892964E+00  0.37190702493E+02  0.45672979064E+02  0.00000000000E+00 0. -1.
         -5    1    3    3    0  503 -0.12081087711E+03  0.26959109443E+02  0.40543877121E+03  0.42393955797E+03  0.47000000000E+01 0.  1.
         11    1    4    4    0    0 -0.57236641235E+02  0.10389763935E+03  0.27887156011E+03  0.30305131512E+03  0.00000000000E+00 0. -1.
        -12    1    4    4    0    0  0.11614990903E+02  0.13323171336E+02  0.71422842697E+01  0.19063764914E+02  0.00000000000E+00 0.  1.
</event>
<event>
12    1  0.1629553E-001  0.2007515E+03  0.7818608E-02  0.1149237E+00
         21   -1    0    0  503  502  0.00000000000E+00  0.00000000000E+00  0.68180768807E+03  0.68180768807E+03  0.00000000000E+00 0.  1.
         21   -1    0    0  501  503 -0.00000000000E+00 -0.00000000000E+00 -0.67271115668E+02  0.67271115668E+02  0.00000000000E+00 0.  1.
          6    2    1    2  501    0 -0.37608009739E+02  0.96408927988E+02  0.17493994372E+03  0.26581244626E+03  0.17129865408E+03 0.  0.
         24    2    3    3    0    0 -0.85481738371E+02  0.47139758648E+02  0.14077881147E+03  0.18894621247E+03  0.79703908367E+02 0.  0.
         -6    2    1    2    0  502  0.37608009739E+02 -0.96408927988E+02  0.43959662868E+03  0.48326635747E+03  0.17202363943E+03 0.  0.
        -24    2    5    5    0    0 -0.27267189255E+02 -0.22524855143E+02  0.11734337284E+03  0.14631398908E+03  0.79921508633E+02 0.  0.
          5    1    3    3  501    0  0.47873728632E+02  0.49269169340E+02  0.34161132248E+02  0.76866233790E+02  0.47000000000E+01 0. -1.
        -11    1    4    4    0    0 -0.40193724729E+02  0.11351545154E+02  0.12087804186E+03  0.12789016416E+03  0.00000000000E+00 0.  1.
         12    1    4    4    0    0 -0.45288013641E+02  0.35788213494E+02  0.19900769611E+02  0.61056048314E+02  0.00000000000E+00 0. -1.
         -5    1    5    5    0  502  0.64875198993E+02 -0.73884072845E+02  0.32225325584E+03  0.33695236839E+03  0.47000000000E+01 0.  1.
         13    1    6    6    0    0 -0.45137197126E+01 -0.44115126663E+02  0.10235881032E+03  0.11155197944E+03  0.00000000000E+00 0. -1.
        -14    1    6    6    0    0 -0.22753469542E+02  0.21590271520E+02  0.14984562519E+02  0.34762009642E+02  0.00000000000E+00 0.  1.
</event>
<event>
12    1  0.1629553E-001  0.1818575E+03  0.7818608E-02  0.1166176E+00
         21   -1    0    0  503  502  0.00000000000E+00  0.00000000000E+00  0.12754341489E+04  0.12754341489E+04  0.00000000000E+00 0.  1.
         21   -1    0    0  501  503 -0.00000000000E+00 -0.00000000000E+00 -0.26421113090E+02  0.26421113090E+02  0.00000000000E+00 0.  1.
          6    2    1    2  501    0  0.51268063410E+02  0.18202156095E+02  0.72029764478E+03  0.74273800030E+03  0.17283317737E+03 0.  0.
         24    2    3    3    0    0  0.24457360195E+02  0.46061575821E+02  0.20238234574E+03  0.22336019171E+03  0.78811992352E+02 0.  0.
         -6    2    1    2    0  502 -0.51268063410E+02 -0.18202156095E+02  0.52871539106E+03  0.55911726172E+03  0.17352929090E+03 0.  0.
        -24    2    5    5    0    0 -0.58974508262E+02  0.54459811066E+02  0.34831732164E+03  0.36442595679E+03  0.70975050440E+02 0.  0.
          5    1    3    3  501    0  0.26810703215E+02 -0.27859419726E+02  0.51791529904E+03  0.51937780859E+03  0.47000000000E+01 0. -1.
        -13    1    4    4    0    0 -0.67723304235E+00  0.30144605161E+02  0.18784172102E+03  0.19024633510E+03  0.00000000000E+00 0.  1.
         14    1    4    4    0    0  0.25134593238E+02  0.15916970660E+02  0.14540624725E+02  0.33113856611E+02  0.00000000000E+00 0. -1.
         -5    1    5    5    0  502  0.77064448517E+01 -0.72661967161E+02  0.18039806942E+03  0.19469130493E+03  0.47000000000E+01 0.  1.
         13    1    6    6    0    0 -0.45217392682E+01  0.97507831929E+01  0.19932749149E+03  0.19961706531E+03  0.00000000000E+00 0. -1.
        -14    1    6    6    0    0 -0.54452768993E+02  0.44709027873E+02  0.14898983015E+03  0.16480889148E+03  0.00000000000E+00 0.  1.
</event>
<event>
12    1  0.1629553E-001  0.1934505E+03  0.7818608E-02  0.1155663E+00
         21   -1    0    0  503  502  0.00000000000E+00  0.00000000000E+00  0.28813987850E+03  0.28813987850E+03  0.00000000000E+00 0.  1.
         21   -1    0    0  501  503 -0.00000000000E+00 -0.00000000000E+00 -0.13553713363E+03  0.13553713363E+03  0.00000000000E+00 0.  1.
          6    2    1    2  501    0 -0.82273460256E+01 -0.84848104726E+02  0.30149757215E+02  0.19578584546E+03  0.17365540396E+03 0.  0.
         24    2    3    3    0    0  0.87960214608E+01 -0.12511948504E+03  0.30493885175E+02  0.15181099427E+03  0.79902724722E+02 0.  0.
         -6    2    1    2    0  502  0.82273460256E+01  0.84848104726E+02  0.12245298765E+03  0.22789116667E+03  0.17225782874E+03 0.  0.
        -24    2    5    5    0    0  0.71709809649E+02  0.37082947415E+02  0.75713855877E+02  0.13559723469E+03  0.78336328065E+02 0.  0.
          5    1    3    3  501    0 -0.17023367486E+02  0.40271380315E+02 -0.34412795988E+00  0.43974851189E+02  0.47000000000E+01 0. -1.
        -13    1    4    4    0    0 -0.74090527537E+01 -0.12762975214E+03  0.38564079455E+02  0.13353439976E+03  0.00000000000E+00 0.  1.
         14    1    4    4    0    0  0.16205074215E+02  0.25102671019E+01 -0.80701942809E+01  0.18276594512E+02  0.00000000000E+00 0. -1.
         -5    1    5    5    0  502 -0.63482463623E+02  0.47765157311E+02  0.46739131775E+02  0.92293931977E+02  0.47000000000E+01 0.  1.
         13    1    6    6    0    0  0.49352559488E+02  0.11741819259E+02 -0.20879372636E+01  0.50773072878E+02  0.00000000000E+00 0. -1.
        -14    1    6    6    0    0  0.22357250161E+02  0.25341128156E+02  0.77801793141E+02  0.84824161811E+02  0.00000000000E+00 0.  1.
</event>
<event>
12    1  0.1629553E-001  0.2045868E+03  0.7818608E-02  0.1146067E+00
         21   -1    0    0  503  502  0.00000000000E+00  0.00000000000E+00  0.60350621562E+02  0.60350621562E+02  0.00000000000E+00 0.  1.
         21   -1    0    0  501  503 -0.00000000000E+00 -0.00000000000E+00 -0.70806311076E+03  0.70806311076E+03  0.00000000000E+00 0. -1.
          6    2    1    2  501    0 -0.94261687746E+02  0.39079643463E+02 -0.38259365016E+03  0.43353501677E+03  0.17652825643E+03 0.  0.
         24    2    3    3    0    0 -0.60727284857E+02  0.25118539875E+02 -0.85584694001E+02  0.13427613449E+03  0.79916182804E+02 0.  0.
         -6    2    1    2    0  502  0.94261687746E+02 -0.39079643463E+02 -0.26511883904E+03  0.33487871555E+03  0.17732250563E+03 0.  0.
        -24    2    5    5    0    0  0.56856287180E+02 -0.18429789723E+02 -0.27360134675E+03  0.29106520864E+03  0.79302989821E+02 0.  0.
          5    1    3    3  501    0 -0.33534402890E+02  0.13961103588E+02 -0.29700895616E+03  0.29925888229E+03  0.47000000000E+01 0. -1.
        -11    1    4    4    0    0 -0.56863606298E+02  0.51544477689E+02 -0.62613739321E+02  0.99049398045E+02  0.00000000000E+00 0.  1.
         12    1    4    4    0    0 -0.38636785590E+01 -0.26425937814E+02 -0.22970954681E+02  0.35226736441E+02  0.00000000000E+00 0. -1.
         -5    1    5    5    0  502  0.37405400566E+02 -0.20649853739E+02  0.84825077078E+01  0.43813506912E+02  0.47000000000E+01 0.  1.
         11    1    6    6    0    0  0.41332029801E+02 -0.28062524070E+02 -0.66578960352E+02  0.83238211816E+02  0.00000000000E+00 0. -1.
        -12    1    6    6    0    0  0.15524257380E+02  0.96327343468E+01 -0.20702238640E+03  0.20782699682E+03  0.00000000000E+00 0.  1.
</event>
<event>
12    1  0.1629553E-001  0.3451113E+03  0.7818608E-02  0.1064967E+00
         21   -1    0    0  503  502  0.00000000000E+00  0.00000000000E+00  0.10496020726E+03  0.10496020726E+03  0.00000000000E+00 0. -1.
         21   -1    0    0  501  503 -0.00000000000E+00 -0.00000000000E+00 -0.14423320533E+04  0.14423320533E+04  0.00000000000E+00 0.  1.
          6    2    1    2  501    0 -0.13783290715E+03  0.26264120166E+03 -0.10294879550E+04  0.10848051486E+04  0.17023057809E+03 0.  0.
         24    2    3    3    0    0 -0.25164290455E+02  0.43984487738E+02 -0.32602886945E+03  0.33956575696E+03  0.80263334768E+02 0.  0.
         -6    2    1    2    0  502  0.13783290715E+03 -0.26264120166E+03 -0.30788389100E+03  0.46248711198E+03  0.17641861383E+03 0.  0.
        -24    2    5    5    0    0  0.46005979505E+01 -0.13703441326E+03 -0.12417845967E+03  0.20306913071E+03  0.83768646172E+02 0.  0.
          5    1    3    3  501    0 -0.11266861670E+03  0.21865671393E+03 -0.70345908560E+03  0.74523939163E+03  0.47000000000E+01 0. -1.
        -13    1    4    4    0    0 -0.51962427348E+02  0.12373715014E+02 -0.17734360623E+03  0.18521327530E+03  0.00000000000E+00 0.  1.
         14    1    4    4    0    0  0.26798136893E+02  0.31610772724E+02 -0.14868526322E+03  0.15435248166E+03  0.00000000000E+00 0. -1.
         -5    1    5    5    0  502  0.13323230920E+03 -0.12560678840E+03 -0.18370543133E+03  0.25941798127E+03  0.47000000000E+01 0.  1.
         11    1    6    6    0    0  0.32553305203E+02 -0.68978228473E+02 -0.26423660526E+02  0.80721270546E+02  0.00000000000E+00 0. -1.
        -12    1    6    6    0    0 -0.27952707253E+02 -0.68056184786E+02 -0.97754799146E+02  0.12234786016E+03  0.00000000000E+00 0.  1.
</event>
<event>
12    1  0.1629553E-001  0.2050299E+03  0.7818608E-02  0.1147620E+00
         21   -1    0    0  503  502  0.00000000000E+00  0.00000000000E+00  0.46631595480E+02  0.46631595480E+02  0.00000000000E+00 0.  1.
         21   -1    0    0  501  503 -0.00000000000E+00 -0.00000000000E+00 -0.15009605020E+04  0.15009605020E+04  0.00000000000E+00 0.  1.
          6    2    1    2  501    0 -0.88337261751E+02  0.17832043269E+02 -0.12433799676E+04  0.12601710150E+04  0.18416239981E+03 0.  0.
         24    2    3    3    0    0 -0.12812023724E+03  0.37075235055E+02 -0.82132070774E+03  0.83577839672E+03  0.78539513765E+02 0.  0.
         -6    2    1    2    0  502  0.88337261751E+02 -0.17832043269E+02 -0.21094893893E+03  0.28742108254E+03  0.17317612501E+03 0.  0.
        -24    2    5    5    0    0  0.12768098439E+03 -0.30562557185E+02 -0.16331756225E+03  0.22416894787E+03  0.79640362732E+02 0.  0.
          5    1    3    3  501    0  0.39782975488E+02 -0.19243191786E+02 -0.42205925989E+03  0.42439261825E+03  0.47000000000E+01 0. -1.
        -13    1    4    4    0    0 -0.13645353290E+03  0.25159455684E+02 -0.77154453108E+03  0.78392188915E+03  0.00000000000E+00 0.  1.
         14    1    4    4    0    0  0.83332956638E+01  0.11915779371E+02 -0.49776176663E+02  0.51856507575E+02  0.00000000000E+00 0. -1.
         -5    1    5    5    0  502 -0.39343722637E+02  0.12730513916E+02 -0.47631376681E+02  0.63252134667E+02  0.47000000000E+01 0.  1.
         11    1    6    6    0    0  0.66156872107E+02  0.24810700760E+02 -0.70706502873E+02  0.99958552149E+02  0.00000000000E+00 0. -1.
        -12    1    6    6    0    0  0.61524112282E+02 -0.55373257946E+02 -0.92611059373E+02  0.12421039572E+03  0.00000000000E+00 0.  1.
</event>
<event>
12    1  0.1629553E-001  0.2427863E+03  0.7818608E-02  0.1117974E+00
         21   -1    0    0  501  502  0.00000000000E+00  0.00000000000E+00  0.44735076128E+03  0.44735076128E+03  0.00000000000E+00 0. -1.
         21   -1    0    0  502  503 -0.00000000000E+00 -0.00000000000E+00 -0.13861949251E+03  0.13861949251E+03  0.00000000000E+00 0.  1.
         -6    2    1    2    0  503 -0.16249375849E+03  0.53531125487E+02  0.88804865470E+02  0.25838394403E+03  0.17206439335E+03 0.  0.
        -24    2    3    3    0    0 -0.48526579598E+02  0.30285949889E+02  0.10165268378E+03  0.14126856294E+03  0.79696117025E+02 0.  0.
          6    2    1    2  501    0  0.16249375849E+03 -0.53531125487E+02  0.21992640330E+03  0.32758630977E+03  0.17226538983E+03 0.  0.
         24    2    5    5    0    0  0.12567304257E+03  0.28358172236E+02  0.11903542052E+03  0.19244674261E+03  0.79173340494E+02 0.  0.
          5    1    5    5  501    0  0.36820715921E+02 -0.81889297723E+02  0.10089098278E+03  0.13513956715E+03  0.47000000000E+01 0. -1.
        -11    1    6    6    0    0  0.11313494708E+03 -0.54949076730E+01  0.76623695185E+02  0.13675123738E+03  0.00000000000E+00 0.  1.
         12    1    6    6    0    0  0.12538095486E+02  0.33853079909E+02  0.42411725332E+02  0.55695505235E+02  0.00000000000E+00 0. -1.
         -5    1    3    3    0  503 -0.11396717889E+03  0.23245175598E+02 -0.12847818308E+02  0.11711538109E+03  0.47000000000E+01 0.  1.
         13    1    4    4    0    0  0.13603377768E+02  0.18590732538E+02  0.18285945504E+01  0.23108677613E+02  0.00000000000E+00 0. -1.
        -14    1    4    4    0    0 -0.62129957366E+02  0.11695217350E+02  0.99824089228E+02  0.11815988533E+03  0.00000000000E+00 0.  1.
</event>
<event>
12    1  0.1629553E-001  0.1745999E+03  0.7818608E-02  0.1173743E+00
         21   -1    0    0  503  502  0.00000000000E+00  0.00000000000E+00  0.27250880464E+03  0.27250880464E+03  0.00000000000E+00 0.  1.
         21   -1    0    0  501  503 -0.00000000000E+00 -0.00000000000E+00 -0.19088589628E+03  0.19088589628E+03  0.00000000000E+00 0.  1.
          6    2    1    2  501    0 -0.22566295108E+02  0.30321093444E+01 -0.10953349062E+03  0.20611331084E+03  0.17310886741E+03 0.  0.
         24    2    3    3    0    0 -0.82284955657E+02 -0.44630630857E+01 -0.83700549295E+02  0.14044804693E+03  0.77000903068E+02 0.  0.
         -6    2    1    2    0  502  0.22566295108E+02 -0.30321093444E+01  0.19115639899E+03  0.25728139008E+03  0.17068835181E+03 0.  0.
        -24    2    5    5    0    0 -0.47801026987E+02  0.23790151496E+02  0.98516576449E+02  0.13780243622E+03  0.80206521576E+02 0.  0.
          5    1    3    3  501    0  0.59718660549E+02  0.74951724301E+01 -0.25832941329E+02  0.65665263917E+02  0.47000000000E+01 0. -1.
        -13    1    4    4    0    0 -0.22870758071E+02 -0.47590795503E+01 -0.77225341762E+02  0.80681310247E+02  0.00000000000E+00 0.  1.
         14    1    4    4    0    0 -0.59414197586E+02  0.29601646459E+00 -0.64752075328E+01  0.59766736678E+02  0.00000000000E+00 0. -1.
         -5    1    5    5    0  502  0.70367322095E+02 -0.26822260840E+02  0.92639822540E+02  0.11947895386E+03  0.47000000000E+01 0.  1.
         13    1    6    6    0    0 -0.12756204039E+02 -0.19902146350E+01 -0.12864701124E+02  0.18225867079E+02  0.00000000000E+00 0. -1.
        -14    1    6    6    0    0 -0.35044822948E+02  0.25780366131E+02  0.11138127757E+03  0.11957656914E+03  0.00000000000E+00 0.  1.
</event>
<event>
12    1  0.1629553E-001  0.2007623E+03  0.7818608E-02  0.1149129E+00
         21   -1    0    0  503  502  0.00000000000E+00  0.00000000000E+00  0.56173555363E+03  0.56173555363E+03  0.00000000000E+00 0.  1.
         21   -1    0    0  501  503 -0.00000000000E+00 -0.00000000000E+00 -0.72262884207E+02  0.72262884207E+02  0.00000000000E+00 0. -1.
          6    2    1    2  501    0 -0.99046750610E+02  0.31468276347E+02  0.27267745850E+03  0.33852315162E+03  0.17159375451E+03 0.  0.
         24    2    3    3    0    0 -0.12821222689E+03  0.61169780173E+01  0.25190700762E+03  0.29440042547E+03  0.82089448048E+02 0.  0.
         -6    2    1    2    0  502  0.99046750610E+02 -0.31468276347E+02  0.21679521093E+03  0.29547528622E+03  0.17177010818E+03 0.  0.
        -24    2    5    5    0    0  0.85188053840E+02 -0.35121498575E+02  0.54993140425E+02  0.13297171848E+03  0.78528391319E+02 0.  0.
          5    1    3    3  501    0  0.29165476280E+02  0.25351298330E+02  0.20770450875E+02  0.44122726153E+02  0.47000000000E+01 0. -1.
        -13    1    4    4    0    0 -0.22899491815E+01 -0.39682716307E+01  0.84771752237E+02  0.84895471165E+02  0.00000000000E+00 0.  1.
         14    1    4    4    0    0 -0.12592227771E+03  0.10085249648E+02  0.16713525539E+03  0.20950495430E+03  0.00000000000E+00 0. -1.
         -5    1    5    5    0  502  0.13858696770E+02  0.36532222283E+01  0.16180207050E+03  0.16250356774E+03  0.47000000000E+01 0.  1.
         13    1    6    6    0    0  0.73200816617E+02 -0.56337452132E+02  0.56966099460E+02  0.10852375110E+03  0.00000000000E+00 0. -1.
        -14    1    6    6    0    0  0.11987237223E+02  0.21215953557E+02 -0.19729590354E+01  0.24447967378E+02  0.00000000000E+00 0.  1.
</event>
<event>
12    1  0.1629553E-001  0.1886519E+03  0.7818608E-02  0.1160748E+00
         21   -1    0    0  501  502  0.00000000000E+00  0.00000000000E+00  0.38854394696E+03  0.38854394696E+03  0.00000000000E+00 0. -1.
         21   -1    0    0  502  503 -0.00000000000E+00 -0.00000000000E+00 -0.14395625799E+03  0.14395625799E+03  0.00000000000E+00 0. -1.
         -6    2    1    2    0  503 -0.18870335179E+02  0.72286442275E+02 -0.42591062065E+02  0.18889991379E+03  0.16818965359E+03 0.  0.
        -24    2    3    3    0    0  0.94887157907E+01  0.49510703743E+02  0.37841026257E+02  0.10050092697E+03  0.78276098153E+02 0.  0.
          6    2    1    2  501    0  0.18870335179E+02 -0.72286442275E+02  0.28717875103E+03  0.34360029116E+03  0.17322847847E+03 0.  0.
         24    2    5    5    0    0 -0.13625493352E+02  0.14931199451E+02  0.20482147819E+03  0.21923105746E+03  0.75510422082E+02 0.  0.
          5    1    5    5  501    0  0.32495828530E+02 -0.87217641726E+02  0.82357272845E+02  0.12436923370E+03  0.47000000000E+01 0. -1.
        -11    1    6    6    0    0 -0.43264038767E+02  0.20680310047E+02  0.12294243319E+03  0.13196323030E+03  0.00000000000E+00 0.  1.
         12    1    6    6    0    0  0.29638545415E+02 -0.57491105958E+01  0.81879045000E+02  0.87267827159E+02  0.00000000000E+00 0. -1.
         -5    1    3    3    0  503 -0.28359050969E+02  0.22775738532E+02 -0.80432088322E+02  0.88398986812E+02  0.47000000000E+01 0.  1.
         13    1    4    4    0    0  0.20044178230E+02  0.63568349107E+02  0.97503262672E+01  0.67362993931E+02  0.00000000000E+00 0. -1.
        -14    1    4    4    0    0 -0.10555462439E+02 -0.14057645363E+02  0.28090699990E+02  0.33137933043E+02  0.00000000000E+00 0.  1.
</event>
<event>
12    1  0.1629553E-001  0.1793481E+03  0.7818608E-02  0.1169357E+00
         21   -1    0    0  503  502  0.00000000000E+00  0.00000000000E+00  0.12208918668E+03  0.12208918668E+03  0.00000000000E+00 0.  1.
         21   -1    0    0  501  503 -0.00000000000E+00 -0.00000000000E+00 -0.25930002918E+03  0.25930002918E+03  0.00000000000E+00 0. -1.
          6    2    1    2  501    0  0.25680897101E+02 -0.36654457458E+02 -0.54294629194E+02  0.18380164626E+03  0.16980011979E+03 0.  0.
         24    2    3    3    0    0  0.23719714955E+02 -0.82871294704E+02 -0.67185429233E+02  0.13555120579E+03  0.80187100745E+02 0.  0.
         -6    2    1    2    0  502 -0.25680897101E+02  0.36654457458E+02 -0.82916213306E+02  0.19758756959E+03  0.17367409565E+03 0.  0.
        -24    2    5    5    0    0 -0.59655319614E+02  0.71537777471E+02 -0.36654233956E+02  0.13025727824E+03  0.83348754658E+02 0.  0.
          5    1    3    3  501    0  0.19611821465E+01  0.46216837246E+02  0.12890800038E+02  0.48250440475E+02  0.47000000000E+01 0. -1.
        -11    1    4    4    0    0 -0.97108464602E+01 -0.82207341810E+02 -0.37655443265E+02  0.90941079793E+02  0.00000000000E+00 0.  1.
         12    1    4    4    0    0  0.33430561415E+02 -0.66395289346E+00 -0.29529985968E+02  0.44610125994E+02  0.00000000000E+00 0. -1.
         -5    1    5    5    0  502  0.33974422513E+02 -0.34883320013E+02 -0.46261979350E+02  0.67330291353E+02  0.47000000000E+01 0.  1.
         11    1    6    6    0    0 -0.24489162910E+02 -0.71373443051E+01 -0.35946844972E+02  0.44077618438E+02  0.00000000000E+00 0. -1.
        -12    1    6    6    0    0 -0.35166156704E+02  0.78675121776E+02 -0.70738898411E+00  0.86179659798E+02  0.00000000000E+00 0.  1.
</event>
<event>
12    1  0.1629553E-001  0.2854634E+03  0.7818608E-02  0.1092742E+00
         21   -1    0    0  501  502  0.00000000000E+00  0.00000000000E+00  0.14638442665E+03  0.14638442665E+03  0.00000000000E+00 0.  1.
         21   -1    0    0  502  503 -0.00000000000E+00 -0.00000000000E+00 -0.60870133935E+03  0.60870133935E+03  0.00000000000E+00 0. -1.
         -6    2    1    2    0  503  0.22522020538E+03  0.34712739224E+02 -0.34154003712E+03  0.44512803701E+03  0.17193096638E+03 0.  0.
        -24    2    3    3    0    0  0.20911882138E+03 -0.13317060612E+02 -0.31772743655E+03  0.38895645892E+03  0.80177162837E+02 0.  0.
          6    2    1    2  501    0 -0.22522020538E+03 -0.34712739224E+02 -0.12077687558E+03  0.30995772899E+03  0.17192331114E+03 0.  0.
         24    2    5    5    0    0 -0.15221901537E+03 -0.67996326215E+02 -0.19433426584E+02  0.18061494582E+03  0.66708107190E+02 0.  0.
          5    1    5    5  501    0 -0.73001190009E+02  0.33283586991E+02 -0.10134344899E+03  0.12934278317E+03  0.47000000000E+01 0. -1.
        -11    1    6    6    0    0 -0.59855351513E+02 -0.34289791944E+01  0.16758682118E+02  0.62251702221E+02  0.00000000000E+00 0.  1.
         12    1    6    6    0    0 -0.92363663859E+02 -0.64567347021E+02 -0.36192108703E+02  0.11836324360E+03  0.00000000000E+00 0. -1.
         -5    1    3    3    0  503  0.16101383998E+02  0.48029799836E+02 -0.23812600569E+02  0.56171578087E+02  0.47000000000E+01 0.  1.
         13    1    4    4    0    0  0.17281780993E+03  0.21009461260E+02 -0.23816747026E+03  0.29501040114E+03  0.00000000000E+00 0. -1.
        -14    1    4    4    0    0  0.36301011449E+02 -0.34326521872E+02 -0.79559966292E+02  0.93946057780E+02  0.00000000000E+00 0.  1.
</event>
<event>
12    1  0.1629553E-001  0.1823214E+03  0.7818608E-02  0.1166877E+00
         21   -1    0    0  501  502  0.00000000000E+00  0.00000000000E+00  0.12096111841E+04  0.12096111841E+04  0.00000000000E+00 0.  1.
         21   -1    0    0  502  503 -0.00000000000E+00 -0.00000000000E+00 -0.26691367574E+02  0.26691367574E+02  0.00000000000E+00 0.  1.
         -6    2    1    2    0  503 -0.71151944055E+01  0.32168627568E+02  0.58521773640E+03  0.61296075558E+03  0.17931994396E+03 0.  0.
        -24    2    3    3    0    0 -0.17307268900E+02  0.23221478149E+02  0.59141303228E+03  0.59732740801E+03  0.78688493511E+02 0.  0.
          6    2    1    2  501    0  0.71151944055E+01 -0.32168627568E+02  0.59770208009E+03  0.62334179606E+03  0.17384410134E+03 0.  0.
         24    2    5    5    0    0 -0.22673171580E+02  0.28515346990E+02  0.17878579969E+03  0.19898012070E+03  0.79382167660E+02 0.  0.
          5    1    5    5  501    0  0.29788365986E+02 -0.60683974558E+02  0.41891628041E+03  0.42436167535E+03  0.47000000000E+01 0. -1.
        -11    1    6    6    0    0  0.26994160394E+02  0.16080611574E+02  0.38813961087E+02  0.49937904834E+02  0.00000000000E+00 0.  1.
         12    1    6    6    0    0 -0.49667331975E+02  0.12434735416E+02  0.13997183860E+03  0.14904221587E+03  0.00000000000E+00 0. -1.
         -5    1    3    3    0  503  0.10192074494E+02  0.89471494185E+01 -0.61952958805E+01  0.15633347571E+02  0.47000000000E+01 0.  1.
         13    1    4    4    0    0  0.21328782260E+02  0.13595638914E+02  0.70592338012E+02  0.74986909099E+02  0.00000000000E+00 0. -1.
        -14    1    4    4    0    0 -0.38636051160E+02  0.96258392346E+01  0.52082069426E+03  0.52234049891E+03  0.00000000000E+00 0.  1.
</event>
<event>
12    1  0.1629553E-001  0.2034584E+03  0.7818608E-02  0.1147051E+00
         21   -1    0    0  503  502  0.00000000000E+00  0.00000000000E+00  0.18519419916E+03  0.18519419916E+03  0.00000000000E+00 0.  1.
         21   -1    0    0  501  503 -0.00000000000E+00 -0.00000000000E+00 -0.24398459205E+03  0.24398459205E+03  0.00000000000E+00 0.  1.
          6    2    1    2  501    0 -0.65552704054E+02 -0.84494317626E+02  0.34256716147E+02  0.20632219293E+03  0.17308633099E+03 0.  0.
         24    2    3    3    0    0 -0.13310296285E+02 -0.42060814937E+02  0.82999027388E+02  0.12308894101E+03  0.79471835963E+02 0.  0.
         -6    2    1    2    0  502  0.65552704054E+02  0.84494317626E+02 -0.93047109038E+02  0.22285659828E+03  0.17196177533E+03 0.  0.
        -24    2    5    5    0    0  0.49533242469E+02  0.12318168462E+03 -0.92885466659E+02  0.18072048974E+03  0.80030718864E+02 0.  0.
          5    1    3    3  501    0 -0.52242407769E+02 -0.42433502689E+02 -0.48742311241E+02  0.83233251919E+02  0.47000000000E+01 0. -1.
        -11    1    4    4    0    0 -0.41880991417E+02 -0.37488266646E+01  0.29575806869E+02  0.51408165649E+02  0.00000000000E+00 0.  1.
         12    1    4    4    0    0  0.28570695132E+02 -0.38311988272E+02  0.53423220519E+02  0.71680775361E+02  0.00000000000E+00 0. -1.
         -5    1    5    5    0  502  0.16019461586E+02 -0.38687366990E+02 -0.16164237905E+00  0.42136108534E+02  0.47000000000E+01 0.  1.
         11    1    6    6    0    0  0.40346575135E-01  0.83379588484E+02 -0.23439624156E+02  0.86611623840E+02  0.00000000000E+00 0. -1.
        -12    1    6    6    0    0  0.49492895893E+02  0.39802096132E+02 -0.69445842503E+02  0.94108865902E+02  0.00000000000E+00 0.  1.
</event>
<event>
12    1  0.1629553E-001  0.2097401E+03  0.7818608E-02  0.1142288E+00
         21   -1    0    0  501  502  0.00000000000E+00  0.00000000000E+00  0.18834190653E+03  0.18834190653E+03  0.00000000000E+00 0. -1.
         21   -1    0    0  502  503 -0.00000000000E+00 -0.00000000000E+00 -0.39534626962E+03  0.39534626962E+03  0.00000000000E+00 0. -1.
         -6    2    1    2    0  503 -0.40996383587E+01 -0.12053089609E+03 -0.29221222617E+03  0.35969275257E+03  0.17159949643E+03 0.  0.
        -24    2    3    3    0    0 -0.68340752968E+02 -0.49478011657E+02 -0.16039068206E+03  0.19667605806E+03  0.76405292822E+02 0.  0.
          6    2    1    2  501    0  0.40996383587E+01  0.12053089609E+03  0.85207863083E+02  0.22399542359E+03  0.16843119044E+03 0.  0.
         24    2    5    5    0    0  0.47512397731E+02  0.18780510465E+02  0.18742439715E+02  0.94853830159E+02  0.77690633527E+02 0.  0.
          5    1    5    5  501    0 -0.43412759373E+02  0.10175038563E+03  0.66465423368E+02  0.12914159343E+03  0.47000000000E+01 0. -1.
        -13    1    6    6    0    0  0.35902407681E+02  0.48628616099E+02  0.74915572925E+01  0.60908526593E+02  0.00000000000E+00 0.  1.
         14    1    6    6    0    0  0.11609990050E+02 -0.29848105634E+02  0.11250882423E+02  0.33945303566E+02  0.00000000000E+00 0. -1.
         -5    1    3    3    0  503  0.64241114610E+02 -0.71052884434E+02 -0.13182154412E+03  0.16301669450E+03  0.47000000000E+01 0.  1.
         11    1    4    4    0    0 -0.40858648150E+02 -0.63014092025E+02 -0.14281446975E+03  0.16135729824E+03  0.00000000000E+00 0. -1.
        -12    1    4    4    0    0 -0.27482104818E+02  0.13536080368E+02 -0.17576212302E+02  0.35318759829E+02  0.00000000000E+00 0.  1.
</event>
<event>
12    1  0.1629553E-001  0.2289999E+03  0.7818608E-02  0.1127455E+00
         21   -1    0    0  501  502  0.00000000000E+00  0.00000000000E+00  0.17043918298E+03  0.17043918298E+03  0.00000000000E+00 0.  1.
         21   -1    0    0  502  503 -0.00000000000E+00 -0.00000000000E+00 -0.42071071938E+03  0.42071071938E+03  0.00000000000E+00 0. -1.
         -6    2    1    2    0  503  0.82078540107E+02  0.12562619827E+03 -0.27877691465E+03  0.36038264204E+03  0.17216344590E+03 0.  0.
        -24    2    3    3    0    0  0.82858712260E+02  0.60246387983E+02 -0.26283467373E+03  0.29291877536E+03  0.78893280975E+02 0.  0.
          6    2    1    2  501    0 -0.82078540107E+02 -0.12562619827E+03  0.28505378255E+02  0.23076726032E+03  0.17298018212E+03 0.  0.
         24    2    5    5    0    0 -0.46697483640E+01 -0.12719520010E+03  0.85530505946E+01  0.15067501235E+03  0.80183409709E+02 0.  0.
          5    1    5    5  501    0 -0.77408791743E+02  0.15690018337E+01  0.19952327661E+02  0.80092247970E+02  0.47000000000E+01 0. -1.
        -13    1    6    6    0    0  0.19877251135E+02  0.41344058121E-01 -0.46724741197E+01  0.20419080205E+02  0.00000000000E+00 0.  1.
         14    1    6    6    0    0 -0.24546999499E+02 -0.12723654416E+03  0.13225524714E+02  0.13025593214E+03  0.00000000000E+00 0. -1.
         -5    1    3    3    0  503 -0.78017215326E+00  0.65379810287E+02 -0.15942240921E+02  0.67463866679E+02  0.47000000000E+01 0.  1.
         13    1    4    4    0    0  0.39514165457E+02 -0.44432015313E+01 -0.38076726183E+02  0.55054049700E+02  0.00000000000E+00 0. -1.
        -14    1    4    4    0    0  0.43344546804E+02  0.64689589514E+02 -0.22475794755E+03  0.23786472566E+03  0.00000000000E+00 0.  1.
</event>
<event>
12    1  0.1629553E-001  0.2408635E+03  0.7818608E-02  0.1119337E+00
         21   -1    0    0  501  502  0.00000000000E+00  0.00000000000E+00  0.48378312127E+03  0.48378312127E+03  0.00000000000E+00 0.  1.
         21   -1    0    0  502  503 -0.00000000000E+00 -0.00000000000E+00 -0.13748747565E+03  0.13748747565E+03  0.00000000000E+00 0. -1.
         -6    2    1    2    0  503  0.12580014156E+03  0.11201536818E+03  0.60777406873E+02  0.24772558209E+03  0.17117520998E+03 0.  0.
        -24    2    3    3    0    0  0.30728367963E+02  0.91455045794E+02 -0.15328931867E+02  0.12413094714E+03  0.76584971682E+02 0.  0.
          6    2    1    2  501    0 -0.12580014156E+03 -0.11201536818E+03  0.28551823875E+03  0.37354501483E+03  0.17216879835E+03 0.  0.
         24    2    5    5    0    0 -0.12453753172E+03 -0.40411714983E+02  0.12358674006E+03  0.19642195704E+03  0.78518783579E+02 0.  0.
          5    1    5    5  501    0 -0.12626098416E+01 -0.71603653196E+02  0.16193149869E+03  0.17712305779E+03  0.47000000000E+01 0. -1.
        -13    1    6    6    0    0 -0.60434752789E+02 -0.34226482758E+02  0.11079330987E+03  0.13076302604E+03  0.00000000000E+00 0.  1.
         14    1    6    6    0    0 -0.64102778933E+02 -0.61852322251E+01  0.12793430189E+02  0.65658931005E+02  0.00000000000E+00 0. -1.
         -5    1    3    3    0  503  0.95071773600E+02  0.20560322385E+02  0.76106338740E+02  0.12359463495E+03  0.47000000000E+01 0.  1.
         13    1    4    4    0    0  0.78916959881E+01  0.95231449875E+02  0.14059009265E+01  0.95568218924E+02  0.00000000000E+00 0. -1.
        -14    1    4    4    0    0  0.22836671975E+02 -0.37764040810E+01 -0.16734832793E+02  0.28562728219E+02  0.00000000000E+00 0.  1.
</event>
<event>
12    1  0.1629553E-001  0.1979219E+03  0.7818608E-02  0.1152553E+00
         21   -1    0    0  503  502  0.00000000000E+00  0.00000000000E+00  0.12352194750E+03  0.12352194750E+03  0.00000000000E+00 0.  1.
         21   -1    0    0  501  503 -0.00000000000E+00 -0.00000000000E+00 -0.76466392229E+03  0.76466392229E+03  0.00000000000E+00 0.  1.
          6    2    1    2  501    0  0.82711633403E+01  0.95753865781E+02 -0.66161046022E+03  0.68920839343E+03  0.16745922949E+03 0.  0.
         24    2    3    3    0    0 -0.62640695939E+01  0.21163200362E+02 -0.14175171809E+03  0.16380355700E+03  0.79062861630E+02 0.  0.
         -6    2    1    2    0  502 -0.82711633403E+01 -0.95753865781E+02  0.20468485434E+02  0.19897747636E+03  0.17301983195E+03 0.  0.
        -24    2    5    5    0    0 -0.37924245395E+02  0.82186490310E+01  0.26496778692E+02  0.90589195482E+02  0.77450167698E+02 0.  0.
          5    1    3    3  501    0  0.14535232934E+02  0.74590665419E+02 -0.51985874213E+03  0.52540483642E+03  0.47000000000E+01 0. -1.
        -13    1    4    4    0    0 -0.40863430304E+02  0.45654165201E+00 -0.59262582829E+02  0.71986679949E+02  0.00000000000E+00 0.  1.
         14    1    4    4    0    0  0.34599360710E+02  0.20706658710E+02 -0.82489135256E+02  0.91816877053E+02  0.00000000000E+00 0. -1.
         -5    1    5    5    0  502  0.29653082055E+02 -0.10397251481E+03 -0.60282932581E+01  0.10838828088E+03  0.47000000000E+01 0.  1.
         13    1    6    6    0    0  0.91045006699E+01 -0.12238104378E+02 -0.17359778027E+02  0.23108981465E+02  0.00000000000E+00 0. -1.
        -14    1    6    6    0    0 -0.47028746065E+02  0.20456753409E+02  0.43856556719E+02  0.67480214017E+02  0.00000000000E+00 0.  1.
</event>
<event>
12    1  0.1629553E-001  0.1741432E+03  0.7818608E-02  0.1173756E+00
         21   -1    0    0  501  502  0.00000000000E+00  0.00000000000E+00  0.17724688625E+02  0.17724688625E+02  0.00000000000E+00 0. -1.
         21   -1    0    0  502  503 -0.00000000000E+00 -0.00000000000E+00 -0.22629421294E+04  0.22629421294E+04  0.00000000000E+00 0. -1.
         -6    2    1    2    0  503  0.28437567573E+02  0.74324752527E+01 -0.16874482128E+04  0.16963446763E+04  0.17099664640E+03 0.  0.
        -24    2    3    3    0    0  0.84640071990E+02 -0.23165479599E+01 -0.10898431637E+04  0.10960050644E+04  0.79370470024E+02 0.  0.
          6    2    1    2  501    0 -0.28437567573E+02 -0.74324752527E+01 -0.55776922806E+03  0.58432214179E+03  0.17164473971E+03 0.  0.
         24    2    5    5    0    0  0.44587135666E+02 -0.20570637897E+02 -0.38599635908E+03  0.39715049030E+03  0.79524580560E+02 0.  0.
          5    1    5    5  501    0 -0.73024703239E+02  0.13138162644E+02 -0.17177286898E+03  0.18717165148E+03  0.47000000000E+01 0. -1.
        -11    1    6    6    0    0  0.50464709350E+02 -0.45420562769E+02 -0.28510713504E+03  0.29307984043E+03  0.00000000000E+00 0.  1.
         12    1    6    6    0    0 -0.58775736842E+01  0.24849924872E+02 -0.10088922404E+03  0.10407064988E+03  0.00000000000E+00 0. -1.
         -5    1    3    3    0  503 -0.56202504416E+02  0.97490232126E+01 -0.59760504909E+03  0.60033961193E+03  0.47000000000E+01 0.  1.
         13    1    4    4    0    0  0.42504470021E+02  0.34874994453E+02 -0.69655766691E+03  0.69872417915E+03  0.00000000000E+00 0. -1.
        -14    1    4    4    0    0  0.42135601969E+02 -0.37191542413E+02 -0.39328549677E+03  0.39728088520E+03  0.00000000000E+00 0.  1.
</event>
<event>
12    1  0.1629553E-001  0.1732893E+03  0.7818608E-02  0.1174551E+00
         21   -1    0    0  503  502  0.00000000000E+00  0.00000000000E+00  0.52013657726E+02  0.52013657726E+02  0.00000000000E+00 0. -1.
         21   -1    0    0  501  503 -0.00000000000E+00 -0.00000000000E+00 -0.13383659000E+04  0.13383659000E+04  0.00000000000E+00 0. -1.
          6    2    1    2  501    0 -0.13375834946E+02 -0.13010873391E+02 -0.11675250344E+04  0.11802627175E+04  0.17192201874E+03 0.  0.
         24    2    3    3    0    0 -0.56989233333E+02 -0.47704613466E+01 -0.10523215700E+04  0.10567153131E+04  0.77434077173E+02 0.  0.
         -6    2    1    2    0  502  0.13375834946E+02  0.13010873391E+02 -0.11882720786E+03  0.21011684023E+03  0.17228170372E+03 0.  0.
        -24    2    5    5    0    0 -0.51608624022E+02  0.20821393577E+02 -0.34183850489E+02  0.10301608356E+03  0.79666789405E+02 0.  0.
          5    1    3    3  501    0  0.43613398387E+02 -0.82404120447E+01 -0.11520346438E+03  0.12354740432E+03  0.47000000000E+01 0. -1.
        -13    1    4    4    0    0 -0.44173863558E+02 -0.22483604272E+02 -0.29930948145E+03  0.30338590667E+03  0.00000000000E+00 0.  1.
         14    1    4    4    0    0 -0.12815369775E+02  0.17713142925E+02 -0.75301208856E+03  0.75332940647E+03  0.00000000000E+00 0. -1.
         -5    1    5    5    0  502  0.64984458968E+02 -0.78105201853E+01 -0.84643357370E+02  0.10710075667E+03  0.47000000000E+01 0.  1.
         11    1    6    6    0    0 -0.17281152040E+02  0.41819542773E+02 -0.42326491947E+02  0.61960021740E+02  0.00000000000E+00 0. -1.
        -12    1    6    6    0    0 -0.34327471982E+02 -0.20998149196E+02  0.81426414581E+01  0.41056061821E+02  0.00000000000E+00 0.  1.
</event>
<event>
12    1  0.1629553E-001  0.1936436E+03  0.7818608E-02  0.1155216E+00
         21   -1    0    0  501  502  0.00000000000E+00  0.00000000000E+00  0.63129135890E+03  0.63129135890E+03  0.00000000000E+00 0. -1.
         21   -1    0    0  502  503 -0.00000000000E+00 -0.00000000000E+00 -0.65882563778E+02  0.65882563778E+02  0.00000000000E+00 0.  1.
         -6    2    1    2    0  503  0.28557018424E+02  0.84493135651E+02  0.17334693194E+03  0.25989785972E+03  0.17188119561E+03 0.  0.
        -24    2    3    3    0    0  0.41893001158E+02  0.11367505764E+03  0.90087853776E+02  0.17054688266E+03  0.79330798008E+02 0.  0.
          6    2    1    2  501    0 -0.28557018424E+02 -0.84493135651E+02  0.39206186319E+03  0.43727606296E+03  0.17188152139E+03 0.  0.
         24    2    5    5    0    0 -0.52304281829E+02 -0.36427291513E+02  0.11385297715E+03  0.15390963559E+03  0.81627140430E+02 0.  0.
          5    1    5    5  501    0  0.23747263405E+02 -0.48065844139E+02  0.27820888604E+03  0.28336642737E+03  0.47000000000E+01 0. -1.
        -11    1    6    6    0    0 -0.24850687486E+02  0.13093856332E+02  0.86655697310E+02  0.91094542199E+02  0.00000000000E+00 0.  1.
         12    1    6    6    0    0 -0.27453594343E+02 -0.49521147845E+02  0.27197279844E+02  0.62815093386E+02  0.00000000000E+00 0. -1.
         -5    1    3    3    0  503 -0.13335982734E+02 -0.29181921985E+02  0.83259078160E+02  0.89350977063E+02  0.47000000000E+01 0.  1.
         11    1    4    4    0    0  0.46989883791E+02  0.10084052820E+03  0.10302220461E+03  0.15162597386E+03  0.00000000000E+00 0. -1.
        -12    1    4    4    0    0 -0.50968826327E+01  0.12834529435E+02 -0.12934350832E+02  0.18920908801E+02  0.00000000000E+00 0.  1.
</event>
<event>
12    1  0.1629553E-001  0.1766910E+03  0.7818608E-02  0.1171198E+00
         21   -1    0    0  503  502  0.00000000000E+00  0.00000000000E+00  0.76676741167E+02  0.76676741167E+02  0.00000000000E+00 0. -1.
         21   -1    0    0  501  503 -0.00000000000E+00 -0.00000000000E+00 -0.54023719438E+03  0.54023719438E+03  0.00000000000E+00 0. -1.
          6    2    1    2  501    0 -0.28144832452E+02 -0.28828957648E+02 -0.38538327394E+03  0.42370063582E+03  0.17140221869E+03 0.  0.
         24    2    3    3    0    0  0.30886879548E+02 -0.49694075427E+02 -0.14752491803E+03  0.17769497809E+03  0.79927487999E+02 0.  0.
         -6    2    1    2    0  502  0.28144832452E+02  0.28828957648E+02 -0.78177179275E+02  0.19321329972E+03  0.17203623873E+03 0.  0.
        -24    2    5    5    0    0 -0.62356277361E+01  0.78703692421E+02 -0.51268231675E+02  0.12676266637E+03  0.84895157420E+02 0.  0.
          5    1    3    3  501    0 -0.59031712000E+02  0.20865117779E+02 -0.23785835591E+03  0.24600565774E+03  0.47000000000E+01 0. -1.
        -13    1    4    4    0    0  0.31247052363E+02  0.73784144038E+01 -0.94446513351E+02  0.99754514508E+02  0.00000000000E+00 0.  1.
         14    1    4    4    0    0 -0.36017281559E+00 -0.57072489831E+02 -0.53078404674E+02  0.77940463578E+02  0.00000000000E+00 0. -1.
         -5    1    5    5    0  502  0.34380460188E+02 -0.49874734773E+02 -0.26908947600E+02  0.66450633348E+02  0.47000000000E+01 0.  1.
         11    1    6    6    0    0  0.18817565480E+02  0.67400312890E+02 -0.15992382218E+01  0.69996146403E+02  0.00000000000E+00 0. -1.
        -12    1    6    6    0    0 -0.25053193217E+02  0.11303379531E+02 -0.49668993453E+02  0.56766519972E+02  0.00000000000E+00 0.  1.
</event>
<event>
12    1  0.1629553E-001  0.1793559E+03  0.7818608E-02  0.1168764E+00
         21   -1    0    0  501  502  0.00000000000E+00  0.00000000000E+00  0.10400641043E+04  0.10400641043E+04  0.00000000000E+00 0. -1.
         21   -1    0    0  502  503 -0.00000000000E+00 -0.00000000000E+00 -0.30697158536E+02  0.30697158536E+02  0.00000000000E+00 0. -1.
         -6    2    1    2    0  503 -0.46249097267E+02  0.19583196225E+02  0.49986758234E+03  0.53107075002E+03  0.17218031560E+03 0.  0.
        -24    2    3    3    0    0 -0.58662519705E+02  0.73229176431E+02  0.37020338146E+03  0.39012083254E+03  0.79623594715E+02 0.  0.
          6    2    1    2  501    0  0.46249097267E+02 -0.19583196225E+02  0.50949936345E+03  0.53969051284E+03  0.17074474435E+03 0.  0.
         24    2    5    5    0    0 -0.28601297651E+02  0.17677086058E+01  0.37839167642E+03  0.38714622959E+03  0.76686265232E+02 0.  0.
          5    1    5    5  501    0  0.74850394918E+02 -0.21350904830E+02  0.13110768702E+03  0.15254428325E+03  0.47000000000E+01 0. -1.
        -13    1    6    6    0    0 -0.16103834859E+02 -0.27062527335E+02  0.65461857508E+02  0.72642746860E+02  0.00000000000E+00 0.  1.
         14    1    6    6    0    0 -0.12497462792E+02  0.28830235941E+02  0.31292981891E+03  0.31450348273E+03  0.00000000000E+00 0. -1.
         -5    1    3    3    0  503  0.12413422438E+02 -0.53645980207E+02  0.12966420088E+03  0.14094991749E+03  0.47000000000E+01 0.  1.
         13    1    4    4    0    0 -0.40743773042E+02 -0.58257158938E+01  0.14703453289E+03  0.15268643643E+03  0.00000000000E+00 0. -1.
        -14    1    4    4    0    0 -0.17918746664E+02  0.79054892325E+02  0.22316884857E+03  0.23743439611E+03  0.00000000000E+00 0.  1.
</event>
<event>
12    1  0.1629553E-001  0.2075376E+03  0.7818608E-02  0.1143734E+00
         21   -1    0    0  503  502  0.00000000000E+00  0.00000000000E+00  0.55766505004E+02  0.55766505004E+02  0.00000000000E+00 0. -1.
         21   -1    0    0  501  503 -0.00000000000E+00 -0.00000000000E+00 -0.84837540439E+03  0.84837540439E+03  0.00000000000E+00 0. -1.
          6    2    1    2  501    0 -0.58401124680E+02 -0.99066905423E+02 -0.53403884405E+03  0.57258445593E+03  0.17155328357E+03 0.  0.
         24    2    3    3    0    0 -0.77019650071E+01 -0.29129255968E+02 -0.10342264168E+03  0.13336459829E+03  0.78625946395E+02 0.  0.
         -6    2    1    2    0  502  0.58401124680E+02  0.99066905423E+02 -0.25857005534E+03  0.33155745346E+03  0.17276263577E+03 0.  0.
        -24    2    5    5    0    0  0.27513777347E+02  0.12843690527E+03 -0.23836868715E+03  0.28415692190E+03  0.81685241432E+02 0.  0.
          5    1    3    3  501    0 -0.50699159673E+02 -0.69937649455E+02 -0.43061620237E+03  0.43921985764E+03  0.47000000000E+01 0. -1.
        -11    1    4    4    0    0 -0.32795874950E+02 -0.43434615659E+02 -0.76448967568E+02  0.93843379593E+02  0.00000000000E+00 0.  1.
         12    1    4    4    0    0  0.25093909943E+02  0.14305359691E+02 -0.26973674111E+02  0.39521218695E+02  0.00000000000E+00 0. -1.
         -5    1    5    5    0  502  0.30887347333E+02 -0.29369999848E+02 -0.20201368186E+02  0.47400531568E+02  0.47000000000E+01 0.  1.
         11    1    6    6    0    0 -0.18018776942E+02  0.58154691239E+00 -0.18951541888E+02  0.26156747872E+02  0.00000000000E+00 0. -1.
        -12    1    6    6    0    0  0.45532554289E+02  0.12785535836E+03 -0.21941714526E+03  0.25800017403E+03  0.00000000000E+00 0.  1.
</event>
<event>
12    1  0.1629553E-001  0.1888841E+03  0.7818608E-02  0.1160003E+00
         21   -1    0    0  501  502  0.00000000000E+00  0.00000000000E+00  0.29372726878E+03  0.29372726878E+03  0.00000000000E+00 0. -1.
         21   -1    0    0  502  503 -0.00000000000E+00 -0.00000000000E+00 -0.13048260586E+03  0.13048260586E+03  0.00000000000E+00 0.  1.
         -6    2    1    2    0  503 -0.70548873397E+02 -0.16547919457E+02  0.14227451604E+03  0.23647249430E+03  0.17443114822E+03 0.  0.
        -24    2    3    3    0    0 -0.73858824606E+02 -0.43461763573E+02  0.32229503666E+02  0.12303834807E+03  0.82192720631E+02 0.  0.
          6    2    1    2  501    0  0.70548873397E+02  0.16547919457E+02  0.20970146888E+02  0.18773738034E+03  0.17191451288E+03 0.  0.
         24    2    5    5    0    0  0.78488344777E+02 -0.98281171394E+01 -0.41242983877E+02  0.11953698333E+03  0.79568175250E+02 0.  0.
          5    1    5    5  501    0 -0.79394713792E+01  0.26376036596E+02  0.62213130765E+02  0.68200397007E+02  0.47000000000E+01 0. -1.
        -13    1    6    6    0    0  0.37570915181E+02 -0.43665368799E+02 -0.11717598019E+02  0.58783843045E+02  0.00000000000E+00 0.  1.
         14    1    6    6    0    0  0.40917429596E+02  0.33837251659E+02 -0.29525385858E+02  0.60753140286E+02  0.00000000000E+00 0. -1.
         -5    1    3    3    0  503  0.33099512081E+01  0.26913844116E+02  0.11004501237E+03  0.11343414623E+03  0.47000000000E+01 0.  1.
         13    1    4    4    0    0 -0.27383680267E+02  0.19498997459E+02  0.29515649551E+02  0.44735337434E+02  0.00000000000E+00 0. -1.
        -14    1    4    4    0    0 -0.46475144338E+02 -0.62960761031E+02  0.27138541151E+01  0.78303010639E+02  0.00000000000E+00 0.  1.
</event>
<event>
12    1  0.1629553E-001  0.2118101E+03  0.7818608E-02  0.1140210E+00
         21   -1    0    0  503  502  0.00000000000E+00  0.00000000000E+00  0.24851100630E+03  0.24851100630E+03  0.00000000000E+00 0. -1.
         21   -1    0    0  501  503 -0.00000000000E+00 -0.00000000000E+00 -0.19538729640E+03  0.19538729640E+03  0.00000000000E+00 0.  1.
          6    2    1    2  501    0  0.30644145203E+02 -0.12035118670E+03  0.88367650801E+02  0.22917599786E+03  0.17114124141E+03 0.  0.
         24    2    3    3    0    0 -0.37491906998E+02 -0.10438875702E+03  0.83818704982E+02  0.15889012674E+03  0.76927507353E+02 0.  0.
         -6    2    1    2    0  502 -0.30644145203E+02  0.12035118670E+03 -0.35243940901E+02  0.21472230484E+03  0.17158106262E+03 0.  0.
        -24    2    5    5    0    0  0.20120119307E+02  0.35102375987E+01 -0.33501156416E+02  0.87231343452E+02  0.77909170387E+02 0.  0.
          5    1    3    3  501    0  0.68136052202E+02 -0.15962429680E+02  0.45489458193E+01  0.70285871119E+02  0.47000000000E+01 0. -1.
        -13    1    4    4    0    0 -0.12671811103E+02  0.85424995601E+01  0.24652293562E+02  0.29004907744E+02  0.00000000000E+00 0.  1.
         14    1    4    4    0    0 -0.24820095895E+02 -0.11293125658E+03  0.59166411420E+02  0.12988521899E+03  0.00000000000E+00 0. -1.
         -5    1    5    5    0  502 -0.50764264510E+02  0.11684094910E+03 -0.17427844850E+01  0.12749096139E+03  0.47000000000E+01 0.  1.
         13    1    6    6    0    0  0.17330297098E+02 -0.28861864306E+01  0.23758029080E+02  0.29548489223E+02  0.00000000000E+00 0. -1.
        -14    1    6    6    0    0  0.27898222091E+01  0.63964240294E+01 -0.57259185496E+02  0.57682854229E+02  0.00000000000E+00 0.  1.
</event>
<event>
12    1  0.1629553E-001  0.1880469E+03  0.7818608E-02  0.1160320E+00
         21   -1    0    0  503  502  0.00000000000E+00  0.00000000000E+00  0.27730193292E+03  0.27730193292E+03  0.00000000000E+00 0.  1.
         21   -1    0    0  501  503 -0.00000000000E+00 -0.00000000000E+00 -0.20737135531E+03  0.20737135531E+03  0.00000000000E+00 0.  1.
          6    2    1    2  501    0 -0.39213823314E+02 -0.64436915351E+02 -0.11563030844E+03  0.22075329730E+03  0.17225507262E+03 0.  0.
         24    2    3    3    0    0  0.26015271973E+02 -0.56770274068E+02 -0.11603131805E+03  0.15490602652E+03  0.81442936413E+02 0.  0.
         -6    2    1    2    0  502  0.39213823314E+02  0.64436915351E+02  0.18556088604E+03  0.26391999093E+03  0.17184609156E+03 0.  0.
        -24    2    5    5    0    0  0.28798751942E+02  0.10118874897E+03  0.18276888859E+03  0.22533169949E+03  0.79381213951E+02 0.  0.
          5    1    3    3  501    0 -0.65229095287E+02 -0.76666412835E+01  0.40100961342E+00  0.65847270780E+02  0.47000000000E+01 0. -1.
        -11    1    4    4    0    0 -0.12385366377E+02 -0.42502361328E+02 -0.16449899864E+02  0.47227610825E+02  0.00000000000E+00 0.  1.
         12    1    4    4    0    0  0.38400638350E+02 -0.14267912740E+02 -0.99581418184E+02  0.10767841570E+03  0.00000000000E+00 0. -1.
         -5    1    5    5    0  502  0.10415071371E+02 -0.36751833620E+02  0.27919974541E+01  0.38588291435E+02  0.47000000000E+01 0.  1.
         11    1    6    6    0    0  0.53600867046E+02  0.65154328993E+02  0.14391953444E+03  0.16682617279E+03  0.00000000000E+00 0. -1.
        -12    1    6    6    0    0 -0.24802115103E+02  0.36034419978E+02  0.38849354144E+02  0.58505526698E+02  0.00000000000E+00 0.  1.
</event>
<event>
12    1  0.1629553E-001  0.2181990E+03  0.7818608E-02  0.1138211E+00
         21   -1    0    0  503  502  0.00000000000E+00  0.00000000000E+00  0.10092940371E+04  0.10092940371E+04  0.00000000000E+00 0. -1.
         21   -1    0    0  501  503 -0.00000000000E+00 -0.00000000000E+00 -0.52836595808E+02  0.52836595808E+02  0.00000000000E+00 0. -1.
          6    2    1    2  501    0 -0.11853844905E+03 -0.61758532907E+02  0.71036845864E+03  0.74312458778E+03  0.17246833231E+03 0.  0.
         24    2    3    3    0    0 -0.18374771096E+02 -0.23017769720E+02  0.14793724333E+03  0.17051252795E+03  0.79508768625E+02 0.  0.
         -6    2    1    2    0  502  0.11853844905E+03  0.61758532907E+02  0.24608898264E+03  0.31900604512E+03  0.15277299877E+03 0.  0.
        -24    2    5    5    0    0  0.39666553717E+02  0.70752774969E+02  0.93048370170E+02  0.14653810221E+03  0.78968509919E+02 0.  0.
          5    1    3    3  501    0 -0.10016367795E+03 -0.38740763187E+02  0.56243121531E+03  0.57261205984E+03  0.47000000000E+01 0. -1.
        -11    1    4    4    0    0  0.10869473760E+02 -0.31434394091E+02  0.13206828197E+03  0.13619213521E+03  0.00000000000E+00 0.  1.
         12    1    4    4    0    0 -0.29244244855E+02  0.84166243707E+01  0.15868961361E+02  0.34320392737E+02  0.00000000000E+00 0. -1.
         -5    1    5    5    0  502  0.78871895330E+02 -0.89942420616E+01  0.15304061247E+03  0.17246794290E+03  0.47000000000E+01 0.  1.
         13    1    6    6    0    0  0.50642657536E+02  0.47554098057E+02  0.98272408631E+02  0.12034756874E+03  0.00000000000E+00 0. -1.
        -14    1    6    6    0    0 -0.10976103820E+02  0.23198676912E+02 -0.52240384602E+01  0.26190533468E+02  0.00000000000E+00 0.  1.
</event>
<event>
12    1  0.1629553E-001  0.2081068E+03  0.7818608E-02  0.1144460E+00
         21   -1    0    0  501  502  0.00000000000E+00  0.00000000000E+00  0.15088498430E+03  0.15088498430E+03  0.00000000000E+00 0. -1.
         21   -1    0    0  502  503 -0.00000000000E+00 -0.00000000000E+00 -0.34705727765E+03  0.34705727765E+03  0.00000000000E+00 0. -1.
         -6    2    1    2    0  503 -0.26780941436E+02 -0.10109128549E+03  0.11872950061E+02  0.20844522742E+03  0.17992159144E+03 0.  0.
        -24    2    3    3    0    0  0.58147153718E+01 -0.81969659107E+02  0.74233265702E+02  0.13537668149E+03  0.77868043665E+02 0.  0.
          6    2    1    2  501    0  0.26780941436E+02  0.10109128549E+03 -0.20804524341E+03  0.28949703452E+03  0.17201465886E+03 0.  0.
         24    2    5    5    0    0  0.31457035438E+02  0.42587906251E+02 -0.21000905711E+03  0.23058644293E+03  0.79139299685E+02 0.  0.
          5    1    5    5  501    0 -0.46760940017E+01  0.58503379243E+02  0.19638136998E+01  0.58910591596E+02  0.47000000000E+01 0. -1.
        -11    1    6    6    0    0 -0.97279197813E+01 -0.86626129367E+01 -0.29723136287E+01  0.13360686153E+02  0.00000000000E+00 0.  1.
         12    1    6    6    0    0  0.41184955219E+02  0.51250519187E+02 -0.20703674348E+03  0.21722575677E+03  0.00000000000E+00 0. -1.
         -5    1    3    3    0  503 -0.32595656808E+02 -0.19121626386E+02 -0.62360315641E+02  0.73068545936E+02  0.47000000000E+01 0.  1.
         11    1    4    4    0    0 -0.26383683518E+02 -0.22779495607E+01  0.24487476000E+02  0.36068328088E+02  0.00000000000E+00 0. -1.
        -12    1    4    4    0    0  0.32198398890E+02 -0.79691709546E+02  0.49745789702E+02  0.99308353397E+02  0.00000000000E+00 0.  1.
</event>
<event>
12    1  0.1629553E-001  0.2205862E+03  0.7818608E-02  0.1134031E+00
         21   -1    0    0  501  502  0.00000000000E+00  0.00000000000E+00  0.43065767569E+03  0.43065767569E+03  0.00000000000E+00 0.  1.
         21   -1    0    0  502  503 -0.00000000000E+00 -0.00000000000E+00 -0.23532364988E+03  0.23532364988E+03  0.00000000000E+00 0. -1.
         -6    2    1    2    0  503  0.38730845023E+02 -0.12645002356E+03  0.33964482666E+03  0.40498996974E+03  0.17654625599E+03 0.  0.
        -24    2    3    3    0    0 -0.33048820712E+02 -0.34980020342E+02  0.89742423409E+02  0.12932280984E+03  0.79717377097E+02 0.  0.
          6    2    1    2  501    0 -0.38730845023E+02  0.12645002356E+03 -0.14431080085E+03  0.26099135583E+03  0.17263022263E+03 0.  0.
         24    2    5    5    0    0 -0.33172491031E+02  0.72371749374E+02 -0.62591446686E+01  0.11254707399E+03  0.79306889385E+02 0.  0.
          5    1    5    5  501    0 -0.55583539927E+01  0.54078274181E+02 -0.13805165618E+03  0.14844428184E+03  0.47000000000E+01 0. -1.
        -11    1    6    6    0    0  0.26181413695E+02  0.17787858233E+02 -0.37211467014E+01  0.31870382118E+02  0.00000000000E+00 0.  1.
         12    1    6    6    0    0 -0.59353904726E+02  0.54583891140E+02 -0.25379979672E+01  0.80676691875E+02  0.00000000000E+00 0. -1.
         -5    1    3    3    0  503  0.71779665735E+02 -0.91470003213E+02  0.24990240325E+03  0.27566715991E+03  0.47000000000E+01 0.  1.
         13    1    4    4    0    0 -0.43468543312E+02 -0.54475163536E+02  0.58156574498E+02  0.90770286202E+02  0.00000000000E+00 0. -1.
        -14    1    4    4    0    0  0.10419722599E+02  0.19495143194E+02  0.31585848911E+02  0.38552523634E+02  0.00000000000E+00 0.  1.
</event>
<event>
12    1  0.1629553E-001  0.2663385E+03  0.7818608E-02  0.1103600E+00
         21   -1    0    0  501  502  0.00000000000E+00  0.00000000000E+00  0.10844097215E+04  0.10844097215E+04  0.00000000000E+00 0. -1.
         21   -1    0    0  502  503 -0.00000000000E+00 -0.00000000000E+00 -0.22520199329E+03  0.22520199329E+03  0.00000000000E+00 0.  1.
         -6    2    1    2    0  503 -0.20253129518E+03  0.40232691538E+01 -0.12288925513E+03  0.29204075198E+03  0.17073640377E+03 0.  0.
        -24    2    3    3    0    0 -0.15288119301E+03 -0.61328181176E+02 -0.80211536915E+02  0.19941558080E+03  0.78732955154E+02 0.  0.
          6    2    1    2  501    0  0.20253129518E+03 -0.40232691538E+01  0.98209698335E+03  0.10175709628E+04  0.17291925119E+03 0.  0.
         24    2    5    5    0    0  0.15687115470E+03  0.61891579329E+02  0.61559410610E+03  0.64236959726E+03  0.72411803263E+02 0.  0.
          5    1    5    5  501    0  0.45660140478E+02 -0.65914848483E+02  0.36650287725E+03  0.37520136555E+03  0.47000000000E+01 0. -1.
        -13    1    6    6    0    0  0.63575299051E+02  0.51195744229E+02  0.19454141126E+03  0.21097199712E+03  0.00000000000E+00 0.  1.
         14    1    6    6    0    0  0.93295855653E+02  0.10695835100E+02  0.42105269485E+03  0.43139760014E+03  0.00000000000E+00 0. -1.
         -5    1    3    3    0  503 -0.49650102170E+02  0.65351450329E+02 -0.42677718211E+02  0.92625171187E+02  0.47000000000E+01 0.  1.
         11    1    4    4    0    0 -0.92729118747E+02  0.52006081443E+01 -0.39916532443E+02  0.10108939287E+03  0.00000000000E+00 0. -1.
        -12    1    4    4    0    0 -0.60152074265E+02 -0.66528789320E+02 -0.40295004472E+02  0.98326187926E+02  0.00000000000E+00 0.  1.
</event>
<event>
12    1  0.1629553E-001  0.2085357E+03  0.7818608E-02  0.1142837E+00
         21   -1    0    0  503  502  0.00000000000E+00  0.00000000000E+00  0.13644891436E+03  0.13644891436E+03  0.00000000000E+00 0. -1.
         21   -1    0    0  501  503 -0.00000000000E+00 -0.00000000000E+00 -0.41830914948E+03  0.41830914948E+03  0.00000000000E+00 0.  1.
          6    2    1    2  501    0  0.79384445027E+02  0.85673907064E+02 -0.27669476798E+03  0.34615842366E+03  0.17211551697E+03 0.  0.
         24    2    3    3    0    0  0.11803270808E+03  0.39711544581E+02 -0.20304953297E+03  0.25101675224E+03  0.79193245374E+02 0.  0.
         -6    2    1    2    0  502 -0.79384445027E+02 -0.85673907064E+02 -0.51654671393E+01  0.20859964017E+03  0.17275768974E+03 0.  0.
        -24    2    5    5    0    0 -0.98279082174E+02 -0.11282267526E+03 -0.34309858431E+01  0.17514577114E+03  0.90975466141E+02 0.  0.
          5    1    3    3  501    0 -0.38648263056E+02  0.45962362483E+02 -0.73645235005E+02  0.95141671424E+02  0.47000000000E+01 0. -1.
        -11    1    4    4    0    0  0.19220282725E+02  0.16237702094E+02 -0.11143098299E+03  0.11423636115E+03  0.00000000000E+00 0.  1.
         12    1    4    4    0    0  0.98812425358E+02  0.23473842487E+02 -0.91618549978E+02  0.13678039109E+03  0.00000000000E+00 0. -1.
         -5    1    5    5    0  502  0.18894637147E+02  0.27148768197E+02 -0.17344812962E+01  0.33453869028E+02  0.47000000000E+01 0.  1.
         13    1    6    6    0    0 -0.32787217156E+02 -0.32921739019E+02  0.41676262997E+02  0.62415970763E+02  0.00000000000E+00 0. -1.
        -14    1    6    6    0    0 -0.65491865018E+02 -0.79900936242E+02 -0.45107248840E+02  0.11272980038E+03  0.00000000000E+00 0.  1.
</event>
<event>
12    1  0.1629553E-001  0.2069207E+03  0.7818608E-02  0.1144180E+00
         21   -1    0    0  503  502  0.00000000000E+00  0.00000000000E+00  0.56459053412E+03  0.56459053412E+03  0.00000000000E+00 0. -1.
         21   -1    0    0  501  503 -0.00000000000E+00 -0.00000000000E+00 -0.75615991149E+02  0.75615991149E+02  0.00000000000E+00 0.  1.
          6    2    1    2  501    0 -0.77255523017E+02 -0.83228221354E+02  0.25358207257E+03  0.32729195866E+03  0.17297631633E+03 0.  0.
         24    2    3    3    0    0 -0.19570283216E+02 -0.25887015768E+02  0.34585159974E+02  0.93631224958E+02  0.80731279106E+02 0.  0.
         -6    2    1    2    0  502  0.77255523017E+02  0.83228221354E+02  0.23539247040E+03  0.31291456661E+03  0.17207718677E+03 0.  0.
        -24    2    5    5    0    0  0.75414360155E+02  0.55542417060E+02  0.25198676587E+03  0.28024417815E+03  0.79165544300E+02 0.  0.
          5    1    3    3  501    0 -0.57685239801E+02 -0.57341205586E+02  0.21899691259E+03  0.23366073370E+03  0.47000000000E+01 0. -1.
        -13    1    4    4    0    0 -0.11606654470E+02  0.28678133753E+02  0.19085246894E+02  0.36351016940E+02  0.00000000000E+00 0.  1.
         14    1    4    4    0    0 -0.79636287460E+01 -0.54565149521E+02  0.15499913080E+02  0.57280208018E+02  0.00000000000E+00 0. -1.
         -5    1    5    5    0  502  0.18411628620E+01  0.27685804294E+02 -0.16594295464E+02  0.32670388459E+02  0.47000000000E+01 0.  1.
         11    1    6    6    0    0  0.27016239135E+02 -0.55390777887E+01  0.14660779221E+03  0.14917909806E+03  0.00000000000E+00 0. -1.
        -12    1    6    6    0    0  0.48398121020E+02  0.61081494849E+02  0.10537897366E+03  0.13106508009E+03  0.00000000000E+00 0.  1.
</event>
<event>
12    1  0.1629553E-001  0.3869176E+03  0.7818608E-02  0.1048658E+00
         21   -1    0    0  503  502  0.00000000000E+00  0.00000000000E+00  0.17529801711E+03  0.17529801711E+03  0.00000000000E+00 0.  1.
         21   -1    0    0  501  503 -0.00000000000E+00 -0.00000000000E+00 -0.99667478078E+03  0.99667478078E+03  0.00000000000E+00 0.  1.
          6    2    1    2  501    0  0.13936498542E+03  0.31728847953E+03 -0.63836732765E+03  0.74647042186E+03  0.17207750374E+03 0.  0.
         24    2    3    3    0    0  0.10350893401E+03  0.22071642813E+03 -0.31017643553E+03  0.40246000166E+03  0.79591398479E+02 0.  0.
         -6    2    1    2    0  502 -0.13936498542E+03 -0.31728847953E+03 -0.18300943602E+03  0.42550237603E+03  0.16572640083E+03 0.  0.
        -24    2    5    5    0    0 -0.56806780197E+02 -0.23547458077E+03 -0.74387029021E+02  0.26634745596E+03  0.82050281820E+02 0.  0.
          5    1    3    3  501    0  0.35856051406E+02  0.96572051398E+02 -0.32819089212E+03  0.34401042019E+03  0.47000000000E+01 0. -1.
        -13    1    4    4    0    0  0.27138401259E+01  0.49367740474E+02 -0.26602247144E+02  0.56144619340E+02  0.00000000000E+00 0.  1.
         14    1    4    4    0    0  0.10079509389E+03  0.17134868765E+03 -0.28357418839E+03  0.34631538232E+03  0.00000000000E+00 0. -1.
         -5    1    5    5    0  502 -0.82558205221E+02 -0.81813898760E+02 -0.10862240700E+03  0.15915492007E+03  0.47000000000E+01 0.  1.
         11    1    6    6    0    0 -0.11177762559E+02 -0.33135019362E+02 -0.44792244143E+02  0.56826200113E+02  0.00000000000E+00 0. -1.
        -12    1    6    6    0    0 -0.45629017638E+02 -0.20233956140E+03 -0.29594784879E+02  0.20952125585E+03  0.00000000000E+00 0.  1.
</event>
<event>
12    1  0.1629553E-001  0.1918950E+03  0.7818608E-02  0.1156770E+00
         21   -1    0    0  503  502  0.00000000000E+00  0.00000000000E+00  0.11436126857E+03  0.11436126857E+03  0.00000000000E+00 0.  1.
         21   -1    0    0  501  503 -0.00000000000E+00 -0.00000000000E+00 -0.42884193565E+03  0.42884193565E+03  0.00000000000E+00 0.  1.
          6    2    1    2  501    0 -0.74750477346E+02 -0.36527930780E+02 -0.29283296555E+03  0.35009097664E+03  0.17288904714E+03 0.  0.
         24    2    3    3    0    0 -0.55695535336E+02  0.42163186466E+02 -0.20271356569E+03  0.22885163080E+03  0.80003451523E+02 0.  0.
         -6    2    1    2    0  502  0.74750477346E+02  0.36527930780E+02 -0.21647701532E+02  0.19311222758E+03  0.17292132855E+03 0.  0.
        -24    2    5    5    0    0  0.80378178610E+02  0.35666965270E+02 -0.74786314148E+02  0.13946323473E+03  0.78257376964E+02 0.  0.
          5    1    3    3  501    0 -0.19054942010E+02 -0.78691117246E+02 -0.90119399865E+02  0.12123934584E+03  0.47000000000E+01 0. -1.
        -11    1    4    4    0    0 -0.91923007934E+01  0.12530728799E+02 -0.15545327360E+03  0.15622815953E+03  0.00000000000E+00 0.  1.
         12    1    4    4    0    0 -0.46503234543E+02  0.29632457667E+02 -0.47260292087E+02  0.72623471264E+02  0.00000000000E+00 0. -1.
         -5    1    5    5    0  502 -0.56277012640E+01  0.86096550995E+00  0.53138612616E+02  0.53648992851E+02  0.47000000000E+01 0.  1.
         13    1    6    6    0    0 -0.15398294581E+02  0.53314611776E+01 -0.46762968547E+01  0.16952867208E+02  0.00000000000E+00 0. -1.
        -14    1    6    6    0    0  0.95776473191E+02  0.30335504092E+02 -0.70110017294E+02  0.12251036752E+03  0.00000000000E+00 0.  1.
</event>
<event>
12    1  0.1629553E-001  0.2706680E+03  0.7818608E-02  0.1100950E+00
         21   -1    0    0  503  502  0.00000000000E+00  0.00000000000E+00  0.38856427083E+02  0.38856427083E+02  0.00000000000E+00 0. -1.
         21   -1    0    0  501  503 -0.00000000000E+00 -0.00000000000E+00 -0.19081343170E+04  0.19081343170E+04  0.00000000000E+00 0. -1.
          6    2    1    2  501    0  0.55283678139E+02  0.20158223991E+03 -0.82204331747E+03  0.86534320513E+03  0.17138250307E+03 0.  0.
         24    2    3    3    0    0  0.14534358236E+02  0.34974383851E+02 -0.39612921088E+03  0.40616611407E+03  0.81351738791E+02 0.  0.
         -6    2    1    2    0  502 -0.55283678139E+02 -0.20158223991E+03 -0.10472345724E+04  0.10816475389E+04  0.17195773978E+03 0.  0.
        -24    2    5    5    0    0 -0.17775784865E+02 -0.14384572445E+03 -0.43096458809E+03  0.46152567118E+03  0.79170057436E+02 0.  0.
          5    1    3    3  501    0  0.40749319903E+02  0.16660785606E+03 -0.42591410659E+03  0.45917709107E+03  0.47000000000E+01 0. -1.
        -11    1    4    4    0    0  0.16870497600E+02  0.23938178575E+02 -0.38566298726E+02  0.48425297935E+02  0.00000000000E+00 0.  1.
         12    1    4    4    0    0 -0.23361393644E+01  0.11036205276E+02 -0.35756291216E+03  0.35774081613E+03  0.00000000000E+00 0. -1.
         -5    1    5    5    0  502 -0.37507893274E+02 -0.57736515459E+02 -0.61626998431E+03  0.62012186773E+03  0.47000000000E+01 0.  1.
         13    1    6    6    0    0 -0.26364054837E+02 -0.31114953714E+02 -0.20311509020E+03  0.20716887700E+03  0.00000000000E+00 0. -1.
        -14    1    6    6    0    0  0.85882699717E+01 -0.11273077074E+03 -0.22784949790E+03  0.25435679418E+03  0.00000000000E+00 0.  1.
</event>
<event>
12    1  0.1629553E-001  0.1747626E+03  0.7818608E-02  0.1174316E+00
         21   -1    0    0  501  502  0.00000000000E+00  0.00000000000E+00  0.43728521348E+02  0.43728521348E+02  0.00000000000E+00 0.  1.
         21   -1    0    0  502  503 -0.00000000000E+00 -0.00000000000E+00 -0.14508177571E+04  0.14508177571E+04  0.00000000000E+00 0.  1.
         -6    2    1    2    0  503  0.11856973930E+02  0.26455639159E+02 -0.12440397275E+04  0.12555335346E+04  0.16700037230E+03 0.  0.
        -24    2    3    3    0    0 -0.55416993045E+02  0.21250823469E+02 -0.82268365219E+03  0.82878312874E+03  0.80934802703E+02 0.  0.
          6    2    1    2  501    0 -0.11856973930E+02 -0.26455639159E+02 -0.16304950827E+03  0.23901274382E+03  0.17234111781E+03 0.  0.
         24    2    5    5    0    0  0.50763605819E+01  0.26679488639E+02 -0.32481746657E+02  0.96956029805E+02  0.87222951675E+02 0.  0.
          5    1    5    5  501    0 -0.16933334512E+02 -0.53135127798E+02 -0.13056776161E+03  0.14205671401E+03  0.47000000000E+01 0. -1.
        -13    1    6    6    0    0  0.21714460275E+02  0.32728317969E+00  0.24049256882E+02  0.32403574739E+02  0.00000000000E+00 0.  1.
         14    1    6    6    0    0 -0.16638099693E+02  0.26352205459E+02 -0.56531003539E+02  0.64552455066E+02  0.00000000000E+00 0. -1.
         -5    1    3    3    0  503  0.67273966975E+02  0.52048156893E+01 -0.42135607527E+03  0.42675040586E+03  0.47000000000E+01 0.  1.
         11    1    4    4    0    0 -0.38731818109E+02  0.49200003056E+02 -0.65376534232E+03  0.65675712167E+03  0.00000000000E+00 0. -1.
        -12    1    4    4    0    0 -0.16685174936E+02 -0.27949179587E+02 -0.16891830987E+03  0.17202600707E+03  0.00000000000E+00 0.  1.
</event>
<event>
12    1  0.1629553E-001  0.2745529E+03  0.7818608E-02  0.1098766E+00
         21   -1    0    0  501  502  0.00000000000E+00  0.00000000000E+00  0.49043937838E+03  0.49043937838E+03  0.00000000000E+00 0. -1.
         21   -1    0    0  502  503 -0.00000000000E+00 -0.00000000000E+00 -0.17100739931E+03  0.17100739931E+03  0.00000000000E+00 0. -1.
         -6    2    1    2    0  503  0.11804589012E+03  0.17754099369E+03  0.53840720510E+02  0.27978224607E+03  0.17298452363E+03 0.  0.
        -24    2    3    3    0    0  0.66580637574E+02  0.18738440090E+02  0.37004709643E+02  0.11193569558E+03  0.79850741838E+02 0.  0.
          6    2    1    2  501    0 -0.11804589012E+03 -0.17754099369E+03  0.26559125856E+03  0.38166453162E+03  0.17225986608E+03 0.  0.
         24    2    5    5    0    0 -0.48696803451E+02 -0.90606049679E+02  0.46253872383E+02  0.13570120247E+03  0.75462313359E+02 0.  0.
          5    1    5    5  501    0 -0.69349086668E+02 -0.86934944011E+02  0.21933738617E+03  0.24596332915E+03  0.47000000000E+01 0. -1.
        -13    1    6    6    0    0  0.13951283136E+02 -0.50619319880E+02  0.26417360860E+02  0.58777808747E+02  0.00000000000E+00 0.  1.
         14    1    6    6    0    0 -0.62648086587E+02 -0.39986729799E+02  0.19836511523E+02  0.76923393727E+02  0.00000000000E+00 0. -1.
         -5    1    3    3    0  503  0.51465252545E+02  0.15880255360E+03  0.16836010867E+02  0.16784655049E+03  0.47000000000E+01 0.  1.
         13    1    4    4    0    0  0.68382675645E+02  0.40678418979E+02  0.15306915389E+02  0.81026080725E+02  0.00000000000E+00 0. -1.
        -14    1    4    4    0    0 -0.18020380708E+01 -0.21939978889E+02  0.21697794254E+02  0.30909614853E+02  0.00000000000E+00 0.  1.
</event>
<event>
12    1  0.1629553E-001  0.2019601E+03  0.7818608E-02  0.1148254E+00
         21   -1    0    0  503  502  0.00000000000E+00  0.00000000000E+00  0.11183745817E+03  0.11183745817E+03  0.00000000000E+00 0.  1.
         21   -1    0    0  501  503 -0.00000000000E+00 -0.00000000000E+00 -0.37733651603E+03  0.37733651603E+03  0.00000000000E+00 0. -1.
          6    2    1    2  501    0  0.56184679034E+02 -0.87888609229E+02 -0.85405678438E+02  0.21857927165E+03  0.17205127810E+03 0.  0.
         24    2    3    3    0    0  0.61158624812E+02 -0.34918808908E+02 -0.11576548585E+03  0.15714355086E+03  0.79578560295E+02 0.  0.
         -6    2    1    2    0  502 -0.56184679034E+02  0.87888609229E+02 -0.18009337943E+03  0.27059470254E+03  0.17293565838E+03 0.  0.
        -24    2    5    5    0    0 -0.52982679369E+02  0.12331420072E+03 -0.17507126926E+03  0.23436575107E+03  0.79144169358E+02 0.  0.
          5    1    3    3  501    0 -0.49739457775E+01 -0.52969800321E+02  0.30359807415E+02  0.61435720789E+02  0.47000000000E+01 0. -1.
        -13    1    4    4    0    0  0.18667057783E+02 -0.90458338226E+01  0.91607135052E+01  0.22676084930E+02  0.00000000000E+00 0.  1.
         14    1    4    4    0    0  0.42491567029E+02 -0.25872975086E+02 -0.12492619936E+03  0.13446746593E+03  0.00000000000E+00 0. -1.
         -5    1    5    5    0  502 -0.32019996652E+01 -0.35425591486E+02 -0.50221101614E+01  0.36228951468E+02  0.47000000000E+01 0.  1.
         13    1    6    6    0    0 -0.51779133951E+02  0.71361350874E+02 -0.56000626496E+02  0.10444898889E+03  0.00000000000E+00 0. -1.
        -14    1    6    6    0    0 -0.12035454184E+01  0.51952849841E+02 -0.11907064277E+03  0.12991676219E+03  0.00000000000E+00 0.  1.
</event>
<event>
12    1  0.1629553E-001  0.1779795E+03  0.7818608E-02  0.1170396E+00
         21   -1    0    0  503  502  0.00000000000E+00  0.00000000000E+00  0.71298224126E+03  0.71298224126E+03  0.00000000000E+00 0. -1.
         21   -1    0    0  501  503 -0.00000000000E+00 -0.00000000000E+00 -0.67918573114E+02  0.67918573114E+02  0.00000000000E+00 0. -1.
          6    2    1    2  501    0  0.11376889036E+02 -0.37161919422E+02  0.91353787651E+02  0.20005554463E+03  0.17368438203E+03 0.  0.
         24    2    3    3    0    0 -0.22434603799E+02 -0.10107143549E+02  0.12089444105E+03  0.14742553277E+03  0.80705365601E+02 0.  0.
         -6    2    1    2    0  502 -0.11376889036E+02  0.37161919422E+02  0.55370988049E+03  0.58084526974E+03  0.17110275791E+03 0.  0.
        -24    2    5    5    0    0  0.47130184471E+02 -0.20698225444E+02  0.31858065808E+03  0.33168926390E+03  0.76645034141E+02 0.  0.
          5    1    3    3  501    0  0.33811492834E+02 -0.27054775873E+02 -0.29540653401E+02  0.52630011862E+02  0.47000000000E+01 0. -1.
        -11    1    4    4    0    0  0.25569991578E+02  0.14013537381E+02  0.29959873099E+02  0.41806670465E+02  0.00000000000E+00 0.  1.
         12    1    4    4    0    0 -0.48004595377E+02 -0.24120680930E+02  0.90934567952E+02  0.10561886230E+03  0.00000000000E+00 0. -1.
         -5    1    5    5    0  502 -0.58507073506E+02  0.57860144866E+02  0.23512922241E+03  0.24915600584E+03  0.47000000000E+01 0.  1.
         13    1    6    6    0    0  0.63669569814E+02  0.21232985211E+01  0.20541356711E+03  0.21506523678E+03  0.00000000000E+00 0. -1.
        -14    1    6    6    0    0 -0.16539385344E+02 -0.22821523965E+02  0.11316709097E+03  0.11662402712E+03  0.00000000000E+00 0.  1.
</event>
<event>
12    1  0.1629553E-001  0.2388055E+03  0.7818608E-02  0.1121086E+00
         21   -1    0    0  501  502  0.00000000000E+00  0.00000000000E+00  0.82661369773E+03  0.82661369773E+03  0.00000000000E+00 0. -1.
         21   -1    0    0  502  503 -0.00000000000E+00 -0.00000000000E+00 -0.89333252701E+02  0.89333252701E+02  0.00000000000E+00 0.  1.
         -6    2    1    2    0  503 -0.27876386905E+02 -0.16199241350E+03  0.14386677313E+03  0.27628466357E+03  0.16916539815E+03 0.  0.
        -24    2    3    3    0    0 -0.61624953578E+02 -0.83658361697E+02  0.54933702981E+02  0.15297055086E+03  0.97907718405E+02 0.  0.
          6    2    1    2  501    0  0.27876386905E+02  0.16199241350E+03  0.59341367189E+03  0.63966228686E+03  0.17323227259E+03 0.  0.
         24    2    5    5    0    0 -0.36775894470E+02  0.14794162963E+03  0.42517859115E+03  0.45882403204E+03  0.80644068694E+02 0.  0.
          5    1    5    5  501    0  0.64652281375E+02  0.14050783872E+02  0.16823508075E+03  0.18083825483E+03  0.47000000000E+01 0. -1.
        -13    1    6    6    0    0 -0.46744563145E+02  0.34261399954E+02  0.12897287300E+03  0.14139625059E+03  0.00000000000E+00 0.  1.
         14    1    6    6    0    0  0.99686686753E+01  0.11368022967E+03  0.29620571814E+03  0.31742778145E+03  0.00000000000E+00 0. -1.
         -5    1    3    3    0  503  0.33748566674E+02 -0.78334051803E+02  0.88933070153E+02  0.12331411270E+03  0.47000000000E+01 0.  1.
         11    1    4    4    0    0 -0.60095022843E+01  0.49348005845E+01 -0.21862048014E+02  0.23203782404E+02  0.00000000000E+00 0. -1.
        -12    1    4    4    0    0 -0.55615451294E+02 -0.88593162282E+02  0.76795750995E+02  0.12976676846E+03  0.00000000000E+00 0.  1.
</event>
<event>
12    1  0.1629553E-001  0.1985887E+03  0.7818608E-02  0.1151128E+00
         21   -1    0    0  503  502  0.00000000000E+00  0.00000000000E+00  0.48288855172E+03  0.48288855172E+03  0.00000000000E+00 0. -1.
         21   -1    0    0  501  503 -0.00000000000E+00 -0.00000000000E+00 -0.89524904761E+02  0.89524904761E+02  0.00000000000E+00 0.  1.
          6    2    1    2  501    0 -0.21435695850E+02 -0.95109598514E+02  0.10951309287E+03  0.22599085799E+03  0.17196925771E+03 0.  0.
         24    2    3    3    0    0  0.51465128741E+02 -0.36567012540E+02  0.64674266977E+02  0.12219117155E+03  0.82232084445E+02 0.  0.
         -6    2    1    2    0  502  0.21435695850E+02  0.95109598514E+02  0.28385055408E+03  0.34642259849E+03  0.17300911798E+03 0.  0.
        -24    2    5    5    0    0  0.53278206886E+01  0.12673937916E+03  0.16783184228E+03  0.22500456789E+03  0.79801456041E+02 0.  0.
          5    1    3    3  501    0 -0.72900824591E+02 -0.58542585974E+02  0.44838825898E+02  0.10379968645E+03  0.47000000000E+01 0. -1.
        -13    1    4    4    0    0  0.25679731674E+02  0.62075125462E+01  0.67174628205E+02  0.72183187137E+02  0.00000000000E+00 0.  1.
         14    1    4    4    0    0  0.25785397068E+02 -0.42774525086E+02 -0.25003612281E+01  0.50007984408E+02  0.00000000000E+00 0. -1.
         -5    1    5    5    0  502  0.16107875161E+02 -0.31629780642E+02  0.11601871180E+03  0.12141803060E+03  0.47000000000E+01 0.  1.
         13    1    6    6    0    0 -0.37308899923E+01 -0.92547024471E+01  0.28053900116E+02  0.29775667402E+02  0.00000000000E+00 0. -1.
        -14    1    6    6    0    0  0.90587106810E+01  0.13599408160E+03  0.13977794216E+03  0.19522890049E+03  0.00000000000E+00 0.  1.
</event>
<event>
12    1  0.1629553E-001  0.1747235E+03  0.7818608E-02  0.1173191E+00
         21   -1    0    0  503  502  0.00000000000E+00  0.00000000000E+00  0.28636879231E+03  0.28636879231E+03  0.00000000000E+00 0. -1.
         21   -1    0    0  501  503 -0.00000000000E+00 -0.00000000000E+00 -0.14889246063E+03  0.14889246063E+03  0.00000000000E+00 0. -1.
          6    2    1    2  501    0  0.17830468612E+02  0.24810317647E+02 -0.47945935324E+02  0.18048741345E+03  0.17129920090E+03 0.  0.
         24    2    3    3    0    0  0.52732379723E+02  0.39449257717E+02 -0.80742440919E+01  0.12531238534E+03  0.10630640948E+03 0.  0.
         -6    2    1    2    0  502 -0.17830468612E+02 -0.24810317647E+02  0.18542226701E+03  0.25477383949E+03  0.17203143525E+03 0.  0.
        -24    2    5    5    0    0 -0.17168665046E+02  0.18776390266E+02  0.24684674553E+02  0.88163807624E+02  0.80723032191E+02 0.  0.
          5    1    3    3  501    0 -0.34901911111E+02 -0.14638940070E+02 -0.39871691232E+02  0.55175028113E+02  0.47000000000E+01 0. -1.
        -11    1    4    4    0    0  0.99942127430E+01  0.37332146453E+02  0.43572553243E+02  0.58242088246E+02  0.00000000000E+00 0.  1.
         12    1    4    4    0    0  0.42738166980E+02  0.21171112640E+01 -0.51646797335E+02  0.67070297091E+02  0.00000000000E+00 0. -1.
         -5    1    5    5    0  502 -0.66180356615E+00 -0.43586707914E+02  0.16073759246E+03  0.16661003187E+03  0.47000000000E+01 0.  1.
         13    1    6    6    0    0 -0.32974846701E+02  0.18388540493E+02  0.47330482064E+02  0.60544640298E+02  0.00000000000E+00 0. -1.
        -14    1    6    6    0    0  0.15806181655E+02  0.38784977366E+00 -0.22645807511E+02  0.27619167326E+02  0.00000000000E+00 0.  1.
</event>
<event>
12    1  0.1629553E-001  0.3217865E+03  0.7818608E-02  0.1074888E+00
         21   -1    0    0  503  502  0.00000000000E+00  0.00000000000E+00  0.21017869208E+04  0.21017869208E+04  0.00000000000E+00 0.  1.
         21   -1    0    0  501  503 -0.00000000000E+00 -0.00000000000E+00 -0.49592515888E+02  0.49592515888E+02  0.00000000000E+00 0. -1.
          6    2    1    2  501    0 -0.46971304662E+02  0.26757337684E+03  0.92975201769E+03  0.98386247807E+03  0.17246665158E+03 0.  0.
         24    2    3    3    0    0 -0.39601878037E+02  0.28080421962E+03  0.78768968726E+03  0.84091787560E+03  0.79173932473E+02 0.  0.
         -6    2    1    2    0  502  0.46971304662E+02 -0.26757337684E+03  0.11224423872E+04  0.11675169586E+04  0.17151419931E+03 0.  0.
        -24    2    5    5    0    0  0.85038836164E+02 -0.21319030326E+03  0.98767399086E+03  0.10172130455E+04  0.80874956590E+02 0.  0.
          5    1    3    3  501    0 -0.73694266258E+01 -0.13230842783E+02  0.14206233043E+03  0.14294460248E+03  0.47000000000E+01 0. -1.
        -11    1    4    4    0    0 -0.39869162131E+02  0.13473239965E+03  0.48301543503E+03  0.50303705637E+03  0.00000000000E+00 0.  1.
         12    1    4    4    0    0  0.26728409489E+00  0.14607181997E+03  0.30467425223E+03  0.33788081923E+03  0.00000000000E+00 0. -1.
         -5    1    5    5    0  502 -0.38067531502E+02 -0.54383073581E+02  0.13476839634E+03  0.15030391312E+03  0.47000000000E+01 0.  1.
         11    1    6    6    0    0  0.89792960131E+02 -0.11967843041E+03  0.59282539943E+03  0.61141447203E+03  0.00000000000E+00 0. -1.
        -12    1    6    6    0    0 -0.47541239661E+01 -0.93511872850E+02  0.39484859143E+03  0.40579857345E+03  0.00000000000E+00 0.  1.
</event>
<event>
12    1  0.1629553E-001  0.2177781E+03  0.7818608E-02  0.1135793E+00
         21   -1    0    0  503  502  0.00000000000E+00  0.00000000000E+00  0.94645950028E+03  0.94645950028E+03  0.00000000000E+00 0.  1.
         21   -1    0    0  501  503 -0.00000000000E+00 -0.00000000000E+00 -0.52297095845E+02  0.52297095845E+02  0.00000000000E+00 0. -1.
          6    2    1    2  501    0 -0.44981948244E+02  0.12467434541E+03  0.33706808608E+03  0.40060831143E+03  0.17118719714E+03 0.  0.
         24    2    3    3    0    0  0.29904299584E+02  0.96296680721E+02  0.15663684909E+03  0.20314752229E+03  0.81033915543E+02 0.  0.
         -6    2    1    2    0  502  0.44981948244E+02 -0.12467434541E+03  0.55709431836E+03  0.59814828469E+03  0.17280110783E+03 0.  0.
        -24    2    5    5    0    0  0.19232011841E+02 -0.31455414066E+02  0.11608174624E+03  0.14663194263E+03  0.81649503590E+02 0.  0.
          5    1    3    3  501    0 -0.74886247827E+02  0.28377664686E+02  0.18043123699E+03  0.19746078914E+03  0.47000000000E+01 0. -1.
        -13    1    4    4    0    0  0.32687760535E+02  0.54297601643E+01  0.18996444384E+02  0.38194723241E+02  0.00000000000E+00 0.  1.
         14    1    4    4    0    0 -0.27834609514E+01  0.90866920557E+02  0.13764040471E+03  0.16495279905E+03  0.00000000000E+00 0. -1.
         -5    1    5    5    0  502  0.25749936402E+02 -0.93218931341E+02  0.44101257212E+03  0.45151634206E+03  0.47000000000E+01 0.  1.
         11    1    6    6    0    0  0.18355259910E+02 -0.47925893156E+02  0.30979553107E+02  0.59946138424E+02  0.00000000000E+00 0. -1.
        -12    1    6    6    0    0  0.87675193074E+00  0.16470479090E+02  0.85102193130E+02  0.86685804207E+02  0.00000000000E+00 0.  1.
</event>
<event>
12    1  0.1629553E-001  0.2441745E+03  0.7818608E-02  0.1117144E+00
         21   -1    0    0  501  502  0.00000000000E+00  0.00000000000E+00  0.15436173347E+03  0.15436173347E+03  0.00000000000E+00 0.  1.
         21   -1    0    0  502  503 -0.00000000000E+00 -0.00000000000E+00 -0.40001581625E+03  0.40001581625E+03  0.00000000000E+00 0. -1.
         -6    2    1    2    0  503  0.33850680606E+02  0.16934420098E+03 -0.69448870798E+02  0.25326387253E+03  0.17174433467E+03 0.  0.
        -24    2    3    3    0    0 -0.25348008950E+02  0.12954537522E+03 -0.79143764290E+00  0.15414594023E+03  0.79597856223E+02 0.  0.
          6    2    1    2  501    0 -0.33850680606E+02 -0.16934420098E+03 -0.17620521198E+03  0.30111367719E+03  0.17262051698E+03 0.  0.
         24    2    5    5    0    0 -0.18688246909E+02 -0.65721032491E+02 -0.15990799081E+02  0.10964982018E+03  0.84254808322E+02 0.  0.
          5    1    5    5  501    0 -0.15162433697E+02 -0.10362316849E+03 -0.16021441290E+03  0.19146385702E+03  0.47000000000E+01 0. -1.
        -11    1    6    6    0    0  0.26267206290E+02 -0.49274504254E+02 -0.24591651750E+02  0.61013869174E+02  0.00000000000E+00 0.  1.
         12    1    6    6    0    0 -0.44955453199E+02 -0.16446528236E+02  0.86008526689E+01  0.48635951003E+02  0.00000000000E+00 0. -1.
         -5    1    3    3    0  503  0.59198689555E+02  0.39798825757E+02 -0.68657433155E+02  0.99117932303E+02  0.47000000000E+01 0.  1.
         11    1    4    4    0    0  0.12836960393E+02  0.66850976116E+02 -0.30958395517E+02  0.74781433610E+02  0.00000000000E+00 0. -1.
        -12    1    4    4    0    0 -0.38184969343E+02  0.62694399107E+02  0.30166957874E+02  0.79364506616E+02  0.00000000000E+00 0.  1.
</event>
<event>
12    1  0.1629553E-001  0.2298907E+03  0.7818608E-02  0.1127074E+00
         21   -1    0    0  503  502  0.00000000000E+00  0.00000000000E+00  0.10293353133E+04  0.10293353133E+04  0.00000000000E+00 0. -1.
         21   -1    0    0  501  503 -0.00000000000E+00 -0.00000000000E+00 -0.53668626232E+02  0.53668626232E+02  0.00000000000E+00 0. -1.
          6    2    1    2  501    0 -0.15127058333E+03  0.25128199543E+02  0.61299405175E+03  0.65468423642E+03  0.17127616921E+03 0.  0.
         24    2    3    3    0    0 -0.37114989172E+02  0.61079518992E+02  0.34521288860E+03  0.36133659558E+03  0.79271475242E+02 0.  0.
         -6    2    1    2    0  502  0.15127058333E+03 -0.25128199543E+02  0.36267263527E+03  0.42831970307E+03  0.16855892700E+03 0.  0.
        -24    2    5    5    0    0  0.12346244016E+03  0.46165102774E+02  0.23454022856E+03  0.27900114618E+03  0.73880511046E+02 0.  0.
          5    1    3    3  501    0 -0.11415559416E+03 -0.35951319449E+02  0.26778116316E+03  0.29334764084E+03  0.47000000000E+01 0. -1.
        -13    1    4    4    0    0 -0.59266362685E+02  0.33430789565E+02  0.18154178914E+03  0.19387506452E+03  0.00000000000E+00 0.  1.
         14    1    4    4    0    0  0.22151373513E+02  0.27648729427E+02  0.16367109945E+03  0.16746153106E+03  0.00000000000E+00 0. -1.
         -5    1    5    5    0  502  0.27808143165E+02 -0.71293302317E+02  0.12813240671E+03  0.14931855689E+03  0.47000000000E+01 0.  1.
         11    1    6    6    0    0  0.80309154475E+02 -0.83600123838E+01  0.11139741981E+03  0.13758210363E+03  0.00000000000E+00 0. -1.
        -12    1    6    6    0    0  0.43153285689E+02  0.54525115158E+02  0.12314280876E+03  0.14141904255E+03  0.00000000000E+00 0.  1.
</event>
<event>
12    1  0.1629553E-001  0.1865711E+03  0.7818608E-02  0.1161615E+00
         21   -1    0    0  501  502  0.00000000000E+00  0.00000000000E+00  0.26832016510E+03  0.26832016510E+03  0.00000000000E+00 0. -1.
         21   -1    0    0  502  503 -0.00000000000E+00 -0.00000000000E+00 -0.28380283016E+03  0.28380283016E+03  0.00000000000E+00 0. -1.
         -6    2    1    2    0  503 -0.72047579272E+02  0.10673926848E+01 -0.21119577252E+03  0.28180211172E+03  0.17209527255E+03 0.  0.
        -24    2    3    3    0    0 -0.73004085186E+02 -0.21541053877E+02 -0.54042362273E+02  0.12295834851E+03  0.80028526737E+02 0.  0.
          6    2    1    2  501    0  0.72047579272E+02 -0.10673926848E+01  0.19571310746E+03  0.27032088355E+03  0.17198187883E+03 0.  0.
         24    2    5    5    0    0  0.24227815291E+02  0.43761973335E+02  0.41897850347E+02  0.10305574909E+03  0.79768165415E+02 0.  0.
          5    1    5    5  501    0  0.47819763982E+02 -0.44829366020E+02  0.15381525711E+03  0.16726513446E+03  0.47000000000E+01 0. -1.
        -13    1    6    6    0    0  0.69389603798E+01  0.45924172960E+02  0.61345611442E+02  0.76944544163E+02  0.00000000000E+00 0.  1.
         14    1    6    6    0    0  0.17288854911E+02 -0.21621996246E+01 -0.19447761095E+02  0.26111204931E+02  0.00000000000E+00 0. -1.
         -5    1    3    3    0  503  0.95650591327E+00  0.22608446562E+02 -0.15715341024E+03  0.15884376321E+03  0.47000000000E+01 0.  1.
         11    1    4    4    0    0 -0.71506728995E+02  0.12837759101E+02 -0.21922009705E+02  0.75885406105E+02  0.00000000000E+00 0. -1.
        -12    1    4    4    0    0 -0.14973561911E+01 -0.34378812978E+02 -0.32120352568E+02  0.47072942402E+02  0.00000000000E+00 0.  1.
</event>
<event>
12    1  0.1629553E-001  0.1982766E+03  0.7818608E-02  0.1151504E+00
         21   -1    0    0  501  502  0.00000000000E+00  0.00000000000E+00  0.44230589197E+03  0.44230589197E+03  0.00000000000E+00 0.  1.
         21   -1    0    0  502  503 -0.00000000000E+00 -0.00000000000E+00 -0.99127344638E+02  0.99127344638E+02  0.00000000000E+00 0.  1.
         -6    2    1    2    0  503 -0.78757878491E+02 -0.55938615080E+02  0.26071628625E+03  0.32669242450E+03  0.17153141469E+03 0.  0.
        -24    2    3    3    0    0 -0.97569024477E+02  0.23722786585E+01  0.21884659626E+03  0.25233396511E+03  0.79077525336E+02 0.  0.
          6    2    1    2  501    0  0.78757878491E+02  0.55938615080E+02  0.82462261079E+02  0.21474081211E+03  0.17315212907E+03 0.  0.
         24    2    5    5    0    0  0.10297040629E+03  0.34608084886E+02  0.10682458482E+03  0.17403637944E+03  0.84122204777E+02 0.  0.
          5    1    5    5  501    0 -0.24212527799E+02  0.21330530194E+02 -0.24362323738E+02  0.40704432667E+02  0.47000000000E+01 0. -1.
        -13    1    6    6    0    0  0.43733044549E+01  0.38473604797E+02  0.30112599706E+02  0.49052142858E+02  0.00000000000E+00 0.  1.
         14    1    6    6    0    0  0.98597101835E+02 -0.38655199111E+01  0.76711985111E+02  0.12498423658E+03  0.00000000000E+00 0. -1.
         -5    1    3    3    0  503  0.18811145986E+02 -0.58310893739E+02  0.41869689994E+02  0.74358459385E+02  0.47000000000E+01 0.  1.
         11    1    4    4    0    0 -0.59772659647E+02  0.77138738510E+00  0.46087198453E+02  0.75481095256E+02  0.00000000000E+00 0. -1.
        -12    1    4    4    0    0 -0.37796364829E+02  0.16008912734E+01  0.17275939780E+03  0.17685286986E+03  0.00000000000E+00 0.  1.
</event>
<event>
12    1  0.1629553E-001  0.2424678E+03  0.7818608E-02  0.1118400E+00
         21   -1    0    0  501  502  0.00000000000E+00  0.00000000000E+00  0.42534469633E+03  0.42534469633E+03  0.00000000000E+00 0.  1.
         21   -1    0    0  502  503 -0.00000000000E+00 -0.00000000000E+00 -0.25192250141E+03  0.25192250141E+03  0.00000000000E+00 0.  1.
         -6    2    1    2    0  503  0.13105489185E+03  0.10585565836E+03 -0.14175980741E+03  0.27961112969E+03  0.17235351973E+03 0.  0.
        -24    2    3    3    0    0  0.19415801703E+02  0.42934808855E+02 -0.61084604497E+01  0.92941106163E+02  0.79877185470E+02 0.  0.
          6    2    1    2  501    0 -0.13105489185E+03 -0.10585565836E+03  0.31518200232E+03  0.39765606805E+03  0.17438419878E+03 0.  0.
         24    2    5    5    0    0 -0.12145396228E+03 -0.59721240425E+02  0.31313882374E+03  0.35025536188E+03  0.79405315200E+02 0.  0.
          5    1    5    5  501    0 -0.96009295664E+01 -0.46134417934E+02  0.20431785828E+01  0.47400706169E+02  0.47000000000E+01 0. -1.
        -13    1    6    6    0    0 -0.12080174758E+03 -0.62179645142E+02  0.23039110014E+03  0.26746855799E+03  0.00000000000E+00 0.  1.
         14    1    6    6    0    0 -0.65221469902E+00  0.24584047178E+01  0.82747723601E+02  0.82786803894E+02  0.00000000000E+00 0. -1.
         -5    1    3    3    0  503  0.11163909015E+03  0.62920849503E+02 -0.13565134696E+03  0.18667002352E+03  0.47000000000E+01 0.  1.
         11    1    4    4    0    0  0.36261723174E+02  0.54524046428E+02 -0.19709785531E+02  0.68383183986E+02  0.00000000000E+00 0. -1.
        -12    1    4    4    0    0 -0.16845921471E+02 -0.11589237572E+02  0.13601325081E+02  0.24557922178E+02  0.00000000000E+00 0.  1.
</event>
<event>
12    1  0.1629553E-001  0.2639688E+03  0.7818608E-02  0.1105089E+00
         21   -1    0    0  503  502  0.00000000000E+00  0.00000000000E+00  0.10196050414E+04  0.10196050414E+04  0.00000000000E+00 0. -1.
         21   -1    0    0  501  503 -0.00000000000E+00 -0.00000000000E+00 -0.72403988976E+02  0.72403988976E+02  0.00000000000E+00 0. -1.
          6    2    1    2  501    0 -0.10946503766E+03  0.16562972532E+03  0.60948501668E+03  0.66336974356E+03  0.17079704545E+03 0.  0.
         24    2    3    3    0    0 -0.12201127197E+03  0.65597614958E+02  0.34056650510E+03  0.37613623756E+03  0.79392236611E+02 0.  0.
         -6    2    1    2    0  502  0.10946503766E+03 -0.16562972532E+03  0.33771603570E+03  0.42863928677E+03  0.17396470049E+03 0.  0.
        -24    2    5    5    0    0  0.18383105696E+02 -0.91530998134E+02  0.26436639560E+03  0.29011564473E+03  0.74576363554E+02 0.  0.
          5    1    3    3  501    0  0.12546234307E+02  0.10003211036E+03  0.26891851158E+03  0.28723350600E+03  0.47000000000E+01 0. -1.
        -11    1    4    4    0    0 -0.26878554949E+02  0.25273467041E+02  0.26271255285E+02  0.45292203597E+02  0.00000000000E+00 0.  1.
         12    1    4    4    0    0 -0.95132717017E+02  0.40324147917E+02  0.31429524981E+03  0.33084403396E+03  0.00000000000E+00 0. -1.
         -5    1    5    5    0  502  0.91081931963E+02 -0.74098727185E+02  0.73349640091E+02  0.13852364203E+03  0.47000000000E+01 0.  1.
         11    1    6    6    0    0  0.83134371622E+01 -0.10125208096E+03  0.20092581985E+03  0.22514946639E+03  0.00000000000E+00 0. -1.
        -12    1    6    6    0    0  0.10069668534E+02  0.97210828285E+01  0.63440575758E+02  0.64966178341E+02  0.00000000000E+00 0.  1.
</event>
<event>
12    1  0.1629553E-001  0.1741100E+03  0.7818608E-02  0.1173769E+00
         21   -1    0    0  503  502  0.00000000000E+00  0.00000000000E+00  0.15134898863E+03  0.15134898863E+03  0.00000000000E+00 0. -1.
         21   -1    0    0  501  503 -0.00000000000E+00 -0.00000000000E+00 -0.20598499666E+03  0.20598499666E+03  0.00000000000E+00 0. -1.
          6    2    1    2  501    0 -0.14369030106E+01  0.26987304122E+02 -0.58599950375E+02  0.18317888166E+03  0.17143561249E+03 0.  0.
         24    2    3    3    0    0  0.10888841764E+02 -0.46090977333E+01  0.33641262726E+02  0.84787886194E+02  0.76924901239E+02 0.  0.
         -6    2    1    2    0  502  0.14369030106E+01 -0.26987304122E+02  0.39639423389E+01  0.17415510363E+03  0.17199973258E+03 0.  0.
        -24    2    5    5    0    0 -0.10158378758E+02 -0.52957543568E+02 -0.61486676946E+02  0.10263743126E+03  0.62017229652E+02 0.  0.
          5    1    3    3  501    0 -0.12325744774E+02  0.31596401855E+02 -0.92241213102E+02  0.98390995467E+02  0.47000000000E+01 0. -1.
        -11    1    4    4    0    0  0.39411020848E+02 -0.13841329251E+02  0.29352686711E+01  0.41873938934E+02  0.00000000000E+00 0.  1.
         12    1    4    4    0    0 -0.28522179084E+02  0.92322315174E+01  0.30705994055E+02  0.42913947260E+02  0.00000000000E+00 0. -1.
         -5    1    5    5    0  502  0.11595281769E+02  0.25970239446E+02  0.65450619285E+02  0.71517672369E+02  0.47000000000E+01 0.  1.
         11    1    6    6    0    0  0.13487623321E+02 -0.36975589863E+02 -0.54274286010E+01  0.39731186866E+02  0.00000000000E+00 0. -1.
        -12    1    6    6    0    0 -0.23646002079E+02 -0.15981953705E+02 -0.56059248345E+02  0.62906244393E+02  0.00000000000E+00 0.  1.
</event>
<event>
12    1  0.1629553E-001  0.1756129E+03  0.7818608E-02  0.1172749E+00
         21   -1    0    0  503  502  0.00000000000E+00  0.00000000000E+00  0.79185820312E+02  0.79185820312E+02  0.00000000000E+00 0. -1.
         21   -1    0    0  501  503 -0.00000000000E+00 -0.00000000000E+00 -0.63981867729E+03  0.63981867729E+03  0.00000000000E+00 0. -1.
          6    2    1    2  501    0  0.84713372052E+01 -0.13316369250E+02 -0.50887614348E+03  0.53832593478E+03  0.17490223959E+03 0.  0.
         24    2    3    3    0    0  0.29346005059E+02  0.28798355576E+02 -0.46591339986E+03  0.47447228066E+03  0.79737793123E+02 0.  0.
         -6    2    1    2    0  502 -0.84713372052E+01  0.13316369250E+02 -0.51756713503E+02  0.18067856282E+03  0.17238589393E+03 0.  0.
        -24    2    5    5    0    0  0.63205546969E+02  0.31160458651E+01 -0.29965661782E+02  0.10492526417E+03  0.78145500607E+02 0.  0.
          5    1    3    3  501    0 -0.20874667853E+02 -0.42114724826E+02 -0.42962743620E+02  0.63853654120E+02  0.47000000000E+01 0. -1.
        -13    1    4    4    0    0 -0.22945545999E+02  0.18966234609E+02 -0.89601775736E+02  0.94417659108E+02  0.00000000000E+00 0.  1.
         14    1    4    4    0    0  0.52291551057E+02  0.98321209672E+01 -0.37631162412E+03  0.38005462155E+03  0.00000000000E+00 0. -1.
         -5    1    5    5    0  502 -0.71676884174E+02  0.10200323385E+02 -0.21791051721E+02  0.75753298656E+02  0.47000000000E+01 0.  1.
         13    1    6    6    0    0  0.53228035700E+02 -0.17664286599E+02  0.11716736601E+02  0.57293391609E+02  0.00000000000E+00 0. -1.
        -14    1    6    6    0    0  0.99775112694E+01  0.20780332464E+02 -0.41682398383E+02  0.47631872558E+02  0.00000000000E+00 0.  1.
</event>
<event>
12    1  0.1629553E-001  0.1735462E+03  0.7818608E-02  0.1174888E+00
         21   -1    0    0  501  502  0.00000000000E+00  0.00000000000E+00  0.75526571891E+02  0.75526571891E+02  0.00000000000E+00 0. -1.
         21   -1    0    0  502  503 -0.00000000000E+00 -0.00000000000E+00 -0.42859229716E+03  0.42859229716E+03  0.00000000000E+00 0. -1.
         -6    2    1    2    0  503 -0.96590311111E+01  0.10738450127E+02 -0.10477300639E+03  0.20272064244E+03  0.17294410892E+03 0.  0.
        -24    2    3    3    0    0  0.49391866192E+02  0.20588695551E+02 -0.19727779227E+02  0.98611005663E+02  0.80445598601E+02 0.  0.
          6    2    1    2  501    0  0.96590311111E+01 -0.10738450127E+02 -0.24829271888E+03  0.30139822661E+03  0.17024395896E+03 0.  0.
         24    2    5    5    0    0 -0.27333631341E+02 -0.23829723283E+02 -0.24697125023E+03  0.26185489863E+03  0.79108826212E+02 0.  0.
          5    1    5    5  501    0  0.36992662452E+02  0.13091273156E+02 -0.13214686526E+01  0.39543327977E+02  0.47000000000E+01 0. -1.
        -13    1    6    6    0    0 -0.53716541329E+02 -0.40780464041E+01 -0.14457871239E+03  0.15428901889E+03  0.00000000000E+00 0.  1.
         14    1    6    6    0    0  0.26382909989E+02 -0.19751676879E+02 -0.10239253784E+03  0.10756587974E+03  0.00000000000E+00 0. -1.
         -5    1    3    3    0  503 -0.59050897303E+02 -0.98502454235E+01 -0.85045227161E+02  0.10410963678E+03  0.47000000000E+01 0.  1.
         11    1    4    4    0    0 -0.54300279647E+01  0.29952703079E+02 -0.29214699372E+02  0.42191803527E+02  0.00000000000E+00 0. -1.
        -12    1    4    4    0    0  0.54821894156E+02 -0.93640075287E+01  0.94869201445E+01  0.56419202136E+02  0.00000000000E+00 0.  1.
</event>
<event>
12    1  0.1629553E-001  0.1834838E+03  0.7818608E-02  0.1164617E+00
         21   -1    0    0  503  502  0.00000000000E+00  0.00000000000E+00  0.12900333341E+03  0.12900333341E+03  0.00000000000E+00 0. -1.
         21   -1    0    0  501  503 -0.00000000000E+00 -0.00000000000E+00 -0.26212516924E+03  0.26212516924E+03  0.00000000000E+00 0. -1.
          6    2    1    2  501    0  0.15550548363E+01  0.60203297434E+02 -0.83607265066E+02  0.20108110533E+03  0.17267478371E+03 0.  0.
         24    2    3    3    0    0 -0.38835224209E+02  0.92638492508E+02 -0.73024644700E+02  0.14800099253E+03  0.80508571733E+02 0.  0.
         -6    2    1    2    0  502 -0.15550548363E+01 -0.60203297434E+02 -0.49514570765E+02  0.19004739732E+03  0.17331896980E+03 0.  0.
        -24    2    5    5    0    0 -0.10160703707E+02  0.37006947704E+01  0.31618642961E+02  0.86305092636E+02  0.79573207744E+02 0.  0.
          5    1    3    3  501    0  0.40390279045E+02 -0.32435195073E+02 -0.10582620366E+02  0.53080112798E+02  0.47000000000E+01 0. -1.
        -13    1    4    4    0    0  0.31315985464E+01  0.72569169955E+02 -0.15944972416E+02  0.74366211970E+02  0.00000000000E+00 0.  1.
         14    1    4    4    0    0 -0.41966822756E+02  0.20069322553E+02 -0.57079672284E+02  0.73634780559E+02  0.00000000000E+00 0. -1.
         -5    1    5    5    0  502  0.86056488707E+01 -0.63903992205E+02 -0.81133213726E+02  0.10374230469E+03  0.47000000000E+01 0.  1.
         13    1    6    6    0    0  0.29572915051E+02  0.18597226364E+02  0.28757905564E+01  0.35052593404E+02  0.00000000000E+00 0. -1.
        -14    1    6    6    0    0 -0.39733618758E+02 -0.14896531593E+02  0.28742852404E+02  0.51252499232E+02  0.00000000000E+00 0.  1.
</event>
<event>
12    1  0.1629553E-001  0.2115440E+03  0.7818608E-02  0.1140446E+00
         21   -1    0    0  503  502  0.00000000000E+00  0.00000000000E+00  0.26710867600E+03  0.26710867600E+03  0.00000000000E+00 0.  1.
         21   -1    0    0  501  503 -0.00000000000E+00 -0.00000000000E+00 -0.16716791397E+03  0.16716791397E+03  0.00000000000E+00 0.  1.
          6    2    1    2  501    0 -0.53654308578E+02 -0.11057370955E+03  0.47750514733E+02  0.21686622271E+03  0.17217873510E+03 0.  0.
         24    2    3    3    0    0 -0.77267344930E+02 -0.43530359831E+02 -0.15895435641E+02  0.12133987437E+03  0.81274629614E+02 0.  0.
         -6    2    1    2    0  502  0.53654308578E+02  0.11057370955E+03  0.52190247297E+02  0.21741036725E+03  0.17157539393E+03 0.  0.
        -24    2    5    5    0    0 -0.48108781396E+00 -0.63483196257E+01  0.37670608051E+02  0.87663259487E+02  0.78900188501E+02 0.  0.
          5    1    3    3  501    0  0.23613036352E+02 -0.67043349721E+02  0.63645950374E+02  0.95526348337E+02  0.47000000000E+01 0. -1.
        -11    1    4    4    0    0 -0.72427352961E+01 -0.44501130731E+02 -0.23593431995E+02  0.50886716187E+02  0.00000000000E+00 0.  1.
         12    1    4    4    0    0 -0.70024609634E+02  0.97077090005E+00  0.76979963539E+01  0.70453158186E+02  0.00000000000E+00 0. -1.
         -5    1    5    5    0  502  0.54135396392E+02  0.11692202918E+03  0.14519639246E+02  0.12974710777E+03  0.47000000000E+01 0.  1.
         11    1    6    6    0    0 -0.39008898674E+02  0.17428106699E+01  0.24741438853E+02  0.46226295128E+02  0.00000000000E+00 0. -1.
        -12    1    6    6    0    0  0.38527810860E+02 -0.80911302956E+01  0.12929169198E+02  0.41436964359E+02  0.00000000000E+00 0.  1.
</event>
<event>
12    1  0.1629553E-001  0.1824647E+03  0.7818608E-02  0.1165716E+00
         21   -1    0    0  503  502  0.00000000000E+00  0.00000000000E+00  0.73607670237E+03  0.73607670237E+03  0.00000000000E+00 0.  1.
         21   -1    0    0  501  503 -0.00000000000E+00 -0.00000000000E+00 -0.52514889774E+02  0.52514889774E+02  0.00000000000E+00 0.  1.
          6    2    1    2  501    0 -0.39223263525E+02  0.43464034627E+02  0.49243327108E+03  0.52515131820E+03  0.17281722665E+03 0.  0.
         24    2    3    3    0    0  0.17736576932E+02  0.70695772873E+02  0.21924594634E+03  0.24472415227E+03  0.80676187639E+02 0.  0.
         -6    2    1    2    0  502  0.39223263525E+02 -0.43464034627E+02  0.19112854151E+03  0.26344027395E+03  0.17158983609E+03 0.  0.
        -24    2    5    5    0    0  0.58439737086E+02  0.22477726479E+02  0.65656859161E+02  0.12032206481E+03  0.79032430479E+02 0.  0.
          5    1    3    3  501    0 -0.56959840457E+02 -0.27231738246E+02  0.27318732474E+03  0.28042716593E+03  0.47000000000E+01 0. -1.
        -13    1    4    4    0    0  0.34884529590E+02  0.61642209390E+02  0.21281866960E+03  0.22429551603E+03  0.00000000000E+00 0.  1.
         14    1    4    4    0    0 -0.17147952658E+02  0.90535634827E+01  0.64272767468E+01  0.20428636236E+02  0.00000000000E+00 0. -1.
         -5    1    5    5    0  502 -0.19216473561E+02 -0.65941761106E+02  0.12547168235E+03  0.14311820913E+03  0.47000000000E+01 0.  1.
         11    1    6    6    0    0  0.38069137710E+02  0.33977616760E+02  0.78506802350E+02  0.93632556848E+02  0.00000000000E+00 0. -1.
        -12    1    6    6    0    0  0.20370599376E+02 -0.11499890281E+02 -0.12849943189E+02  0.26689507964E+02  0.00000000000E+00 0.  1.
</event>
<event>
12    1  0.1629553E-001  0.1794732E+03  0.7818608E-02  0.1168418E+00
         21   -1    0    0  501  502  0.00000000000E+00  0.00000000000E+00  0.40320823490E+02  0.40320823490E+02  0.00000000000E+00 0. -1.
         21   -1    0    0  502  503 -0.00000000000E+00 -0.00000000000E+00 -0.82640693291E+03  0.82640693291E+03  0.00000000000E+00 0. -1.
         -6    2    1    2    0  503 -0.34741313939E+02 -0.25665234430E+02 -0.31076563767E+03  0.35865279009E+03  0.17375522764E+03 0.  0.
        -24    2    3    3    0    0 -0.43083130876E+02  0.13877922339E+02 -0.73924416588E+02  0.11834236343E+03  0.80568869425E+02 0.  0.
          6    2    1    2  501    0  0.34741313939E+02  0.25665234430E+02 -0.47532047175E+03  0.50807496631E+03  0.17419804067E+03 0.  0.
         24    2    5    5    0    0  0.26007258965E+02  0.81888324198E+02 -0.38023622366E+03  0.39716769074E+03  0.76029689111E+02 0.  0.
          5    1    5    5  501    0  0.87340549734E+01 -0.56223089767E+02 -0.95084248094E+02  0.11090727557E+03  0.47000000000E+01 0. -1.
        -13    1    6    6    0    0  0.11234705320E+02  0.43334026291E+02 -0.63167746358E+02  0.77422352187E+02  0.00000000000E+00 0.  1.
         14    1    6    6    0    0  0.14772553645E+02  0.38554297907E+02 -0.31706847730E+03  0.31974533855E+03  0.00000000000E+00 0. -1.
         -5    1    3    3    0  503  0.83418169369E+01 -0.39543156769E+02 -0.23684122108E+03  0.24031042666E+03  0.47000000000E+01 0.  1.
         11    1    4    4    0    0 -0.27864320444E+02  0.24504194338E+02 -0.87700388946E+02  0.95227276109E+02  0.00000000000E+00 0. -1.
        -12    1    4    4    0    0 -0.15218810432E+02 -0.10626271999E+02  0.13775972358E+02  0.23115087323E+02  0.00000000000E+00 0.  1.
</event>
<event>
12    1  0.1629553E-001  0.1946713E+03  0.7818608E-02  0.1157937E+00
         21   -1    0    0  503  502  0.00000000000E+00  0.00000000000E+00  0.10846306965E+03  0.10846306965E+03  0.00000000000E+00 0.  1.
         21   -1    0    0  501  503 -0.00000000000E+00 -0.00000000000E+00 -0.94950492840E+03  0.94950492840E+03  0.00000000000E+00 0.  1.
          6    2    1    2  501    0  0.76761911391E+01 -0.47137342646E+02 -0.84454023774E+03  0.86326530141E+03  0.17233082855E+03 0.  0.
         24    2    3    3    0    0  0.30539382993E+02 -0.24201604011E+02 -0.81283849616E+03  0.81770365013E+03  0.80090367923E+02 0.  0.
         -6    2    1    2    0  502 -0.76761911391E+01  0.47137342646E+02  0.34983789933E+01  0.19470269664E+03  0.18872214613E+03 0.  0.
        -24    2    5    5    0    0  0.53546532988E+02 -0.72642008523E+01 -0.29124904114E+02  0.10641839178E+03  0.86928788440E+02 0.  0.
          5    1    3    3  501    0 -0.22863191854E+02 -0.22935738634E+02 -0.31701741579E+02  0.45561651283E+02  0.47000000000E+01 0. -1.
        -11    1    4    4    0    0  0.56915681745E+01 -0.45585579709E+02 -0.64862929926E+03  0.65025410947E+03  0.00000000000E+00 0.  1.
         12    1    4    4    0    0  0.24847814819E+02  0.21383975697E+02 -0.16420919690E+03  0.16744954066E+03  0.00000000000E+00 0. -1.
         -5    1    5    5    0  502 -0.61222724128E+02  0.54401543498E+02  0.32623283107E+02  0.88284304864E+02  0.47000000000E+01 0.  1.
         13    1    6    6    0    0  0.50480414932E+01 -0.17707654913E+02 -0.49479763729E+02  0.52794798835E+02  0.00000000000E+00 0. -1.
        -14    1    6    6    0    0  0.48498491495E+02  0.10443454061E+02  0.20354859615E+02  0.53623592942E+02  0.00000000000E+00 0.  1.
</event>
<event>
12    1  0.1629553E-001  0.1730250E+03  0.7818608E-02  0.1174730E+00
         21   -1    0    0  503  502  0.00000000000E+00  0.00000000000E+00  0.47128939172E+03  0.47128939172E+03  0.00000000000E+00 0. -1.
         21   -1    0    0  501  503 -0.00000000000E+00 -0.00000000000E+00 -0.30795591458E+03  0.30795591458E+03  0.00000000000E+00 0. -1.
          6    2    1    2  501    0 -0.56872288313E+00 -0.18882847488E+02 -0.26545411493E+03  0.31686517366E+03  0.17199059793E+03 0.  0.
         24    2    3    3    0    0  0.39103976866E+02  0.42830050782E+02 -0.17114113800E+03  0.19728493895E+03  0.79174009392E+02 0.  0.
         -6    2    1    2    0  502  0.56872288313E+00  0.18882847488E+02  0.42878759206E+03  0.46238013264E+03  0.17198750704E+03 0.  0.
        -24    2    5    5    0    0 -0.95198842065E+01  0.26130980729E+02  0.43805639372E+03  0.44618395677E+03  0.80082849939E+02 0.  0.
          5    1    3    3  501    0 -0.39672699749E+02 -0.61712898269E+02 -0.94312976927E+02  0.11958023472E+03  0.47000000000E+01 0. -1.
        -11    1    4    4    0    0 -0.10806819051E+02  0.13229930029E+02 -0.54675867698E+00  0.17091440303E+02  0.00000000000E+00 0.  1.
         12    1    4    4    0    0  0.49910795917E+02  0.29600120753E+02 -0.17059437932E+03  0.18019349864E+03  0.00000000000E+00 0. -1.
         -5    1    5    5    0  502  0.10088607090E+02 -0.72481332411E+01 -0.92688016586E+01  0.16196175866E+02  0.47000000000E+01 0.  1.
         11    1    6    6    0    0 -0.88578315292E+00  0.53626449291E+02  0.33096481699E+03  0.33528240449E+03  0.00000000000E+00 0. -1.
        -12    1    6    6    0    0 -0.86341010536E+01 -0.27495468562E+02  0.10709157672E+03  0.11090155228E+03  0.00000000000E+00 0.  1.
</event>
<event>
12    1  0.1629553E-001  0.1889444E+03  0.7818608E-02  0.1159599E+00
         21   -1    0    0  503  502  0.00000000000E+00  0.00000000000E+00  0.10428334085E+03  0.10428334085E+03  0.00000000000E+00 0.  1.
         21   -1    0    0  501  503 -0.00000000000E+00 -0.00000000000E+00 -0.46857959900E+03  0.46857959900E+03  0.00000000000E+00 0.  1.
          6    2    1    2  501    0  0.73593772915E+02 -0.16252391846E+02 -0.33138936364E+03  0.38107436115E+03  0.17239076176E+03 0.  0.
         24    2    3    3    0    0  0.24402091336E+02  0.52249353363E+02 -0.21668606714E+03  0.23862701347E+03  0.81636651551E+02 0.  0.
         -6    2    1    2    0  502 -0.73593772915E+02  0.16252391846E+02 -0.32906894505E+02  0.19178857869E+03  0.17326226236E+03 0.  0.
        -24    2    5    5    0    0  0.28384394128E+02  0.67411118255E+01 -0.28568106250E+02  0.89168278144E+02  0.79269973595E+02 0.  0.
          5    1    3    3  501    0  0.49191681580E+02 -0.68501745208E+02 -0.11470329650E+03  0.14244734768E+03  0.47000000000E+01 0. -1.
        -13    1    4    4    0    0 -0.28357662892E+02  0.33469359840E+02 -0.90461569038E+02  0.10053681199E+03  0.00000000000E+00 0.  1.
         14    1    4    4    0    0  0.52759754228E+02  0.18779993523E+02 -0.12622449810E+03  0.13809020148E+03  0.00000000000E+00 0. -1.
         -5    1    5    5    0  502 -0.10197816704E+03  0.95112800201E+01 -0.43387882551E+01  0.10262030055E+03  0.47000000000E+01 0.  1.
         13    1    6    6    0    0  0.16295497266E+02 -0.34616076365E+02 -0.15112600552E+01  0.38289683742E+02  0.00000000000E+00 0. -1.
        -14    1    6    6    0    0  0.12088896861E+02  0.41357188191E+02 -0.27056846195E+02  0.50878594402E+02  0.00000000000E+00 0.  1.
</event>
<event>
12    1  0.1629553E-001  0.2568908E+03  0.7818608E-02  0.1109187E+00
         21   -1    0    0  503  502  0.00000000000E+00  0.00000000000E+00  0.67034669647E+03  0.67034669647E+03  0.00000000000E+00 0. -1.
         21   -1    0    0  501  503 -0.00000000000E+00 -0.00000000000E+00 -0.14594522798E+03  0.14594522798E+03  0.00000000000E+00 0.  1.
          6    2    1    2  501    0  0.76712041718E+02 -0.17520499869E+03  0.28010684697E+02  0.25736731697E+03  0.16991706352E+03 0.  0.
         24    2    3    3    0    0  0.14895980378E+02 -0.49002679478E+02  0.60266963430E+02  0.11310779967E+03  0.80858608922E+02 0.  0.
         -6    2    1    2    0  502 -0.76712041718E+02  0.17520499869E+03  0.49639078380E+03  0.55892460749E+03  0.17149745684E+03 0.  0.
        -24    2    5    5    0    0 -0.10327853842E+03  0.18576017480E+03  0.44439999717E+03  0.49940719504E+03  0.82115101732E+02 0.  0.
          5    1    3    3  501    0  0.61816061340E+02 -0.12620231921E+03 -0.32256278732E+02  0.14425951730E+03  0.47000000000E+01 0. -1.
        -11    1    4    4    0    0 -0.14856088612E+02 -0.39664149302E+02 -0.31158323582E+01  0.42469477511E+02  0.00000000000E+00 0.  1.
         12    1    4    4    0    0  0.29752068990E+02 -0.93385301753E+01  0.63382795788E+02  0.70638322155E+02  0.00000000000E+00 0. -1.
         -5    1    5    5    0  502  0.26566496705E+02 -0.10555176114E+02  0.51990786626E+02  0.59517412444E+02  0.47000000000E+01 0.  1.
         11    1    6    6    0    0 -0.51242270791E+02  0.15859000582E+03  0.29394228836E+03  0.33790328372E+03  0.00000000000E+00 0. -1.
        -12    1    6    6    0    0 -0.52036267632E+02  0.27170168980E+02  0.15045770881E+03  0.16150391132E+03  0.00000000000E+00 0.  1.
</event>
<event>
12    1  0.1629553E-001  0.1821846E+03  0.7818608E-02  0.1166243E+00
         21   -1    0    0  503  502  0.00000000000E+00  0.00000000000E+00  0.13455627055E+04  0.13455627055E+04  0.00000000000E+00 0.  1.
         21   -1    0    0  501  503 -0.00000000000E+00 -0.00000000000E+00 -0.24386483831E+02  0.24386483831E+02  0.00000000000E+00 0.  1.
          6    2    1    2  501    0  0.26183372877E+02  0.53636617264E+02  0.63607236551E+03  0.66103558052E+03  0.16975726439E+03 0.  0.
         24    2    3    3    0    0 -0.50807703479E+02  0.35004372940E+02  0.25621581948E+03  0.27297904865E+03  0.71163796891E+02 0.  0.
         -6    2    1    2    0  502 -0.26183372877E+02 -0.53636617264E+02  0.68510385615E+03  0.70891360880E+03  0.17213005349E+03 0.  0.
        -24    2    5    5    0    0 -0.38162090165E+02  0.33537536985E+02  0.35731545501E+03  0.36948740363E+03  0.79154883253E+02 0.  0.
          5    1    3    3  501    0  0.76991076355E+02  0.18632244324E+02  0.37985654603E+03  0.38805653187E+03  0.47000000000E+01 0. -1.
        -11    1    4    4    0    0 -0.24882643206E+02  0.11507898958E+02  0.22318428321E+03  0.22486173961E+03  0.00000000000E+00 0.  1.
         12    1    4    4    0    0 -0.25925060273E+02  0.23496473981E+02  0.33031536278E+02  0.48117309033E+02  0.00000000000E+00 0. -1.
         -5    1    5    5    0  502  0.11978717288E+02 -0.87174154248E+02  0.32778840114E+03  0.33942620517E+03  0.47000000000E+01 0.  1.
         11    1    6    6    0    0 -0.10695784886E+02 -0.25420851626E+02  0.13806993180E+03  0.14079746298E+03  0.00000000000E+00 0. -1.
        -12    1    6    6    0    0 -0.27466305279E+02  0.58958388610E+02  0.21924552320E+03  0.22868994066E+03  0.00000000000E+00 0.  1.
</event>
<event>
12    1  0.1629553E-001  0.1920571E+03  0.7818608E-02  0.1159633E+00
         21   -1    0    0  501  502  0.00000000000E+00  0.00000000000E+00  0.13187191696E+04  0.13187191696E+04  0.00000000000E+00 0.  1.
         21   -1    0    0  502  503 -0.00000000000E+00 -0.00000000000E+00 -0.29871691733E+02  0.29871691733E+02  0.00000000000E+00 0.  1.
         -6    2    1    2    0  503 -0.34582552804E+02  0.31846862798E+02  0.90364834575E+03  0.92383238670E+03  0.18621431285E+03 0.  0.
        -24    2    3    3    0    0 -0.50409107809E+01  0.87680090736E+02  0.43854997834E+03  0.45444061075E+03  0.80479662711E+02 0.  0.
          6    2    1    2  501    0  0.34582552804E+02 -0.31846862798E+02  0.38519913210E+03  0.42475847461E+03  0.17271715247E+03 0.  0.
         24    2    5    5    0    0  0.43209562004E+02 -0.78919225571E+02  0.21153185885E+03  0.24455679754E+03  0.83468494048E+02 0.  0.
          5    1    5    5  501    0 -0.86270092000E+01  0.47072362774E+02  0.17366727324E+03  0.18020167707E+03  0.47000000000E+01 0. -1.
        -11    1    6    6    0    0 -0.18815818469E+02 -0.35595867111E+02  0.38501337372E+02  0.55708650670E+02  0.00000000000E+00 0.  1.
         12    1    6    6    0    0  0.62025380473E+02 -0.43323358460E+02  0.17303052148E+03  0.18884814687E+03  0.00000000000E+00 0. -1.
         -5    1    3    3    0  503 -0.29541642023E+02 -0.55833227939E+02  0.46509836741E+03  0.46939177595E+03  0.47000000000E+01 0.  1.
         13    1    4    4    0    0 -0.24084397054E+02  0.84930815810E+02  0.25427137807E+03  0.26916024105E+03  0.00000000000E+00 0. -1.
        -14    1    4    4    0    0  0.19043486273E+02  0.27492749268E+01  0.18427860026E+03  0.18528036970E+03  0.00000000000E+00 0.  1.
</event>
<event>
12    1  0.1629553E-001  0.1728666E+03  0.7818608E-02  0.1174981E+00
         21   -1    0    0  503  502  0.00000000000E+00  0.00000000000E+00  0.33043535547E+03  0.33043535547E+03  0.00000000000E+00 0. -1.
         21   -1    0    0  501  503 -0.00000000000E+00 -0.00000000000E+00 -0.21510215265E+03  0.21510215265E+03  0.00000000000E+00 0. -1.
          6    2    1    2  501    0 -0.96690228417E+00  0.17717226330E+02 -0.15011990389E+03  0.22895159662E+03  0.17195352001E+03 0.  0.
         24    2    3    3    0    0  0.40668338755E+02 -0.33793523087E+02 -0.44228614336E+02  0.10396397402E+03  0.77823014513E+02 0.  0.
         -6    2    1    2    0  502  0.96690228417E+00 -0.17717226330E+02  0.26545310671E+03  0.31658591150E+03  0.17159968674E+03 0.  0.
        -24    2    5    5    0    0  0.52319792747E+02  0.27585321768E+02  0.13639355033E+03  0.17040828217E+03  0.83291484379E+02 0.  0.
          5    1    3    3  501    0 -0.41635241039E+02  0.51510749417E+02 -0.10589128955E+03  0.12498762261E+03  0.47000000000E+01 0. -1.
        -13    1    4    4    0    0 -0.10238486007E+02 -0.30724643706E+02  0.53651318646E+01  0.32827046265E+02  0.00000000000E+00 0.  1.
         14    1    4    4    0    0  0.50906824762E+02 -0.30688793819E+01 -0.49593746200E+02  0.71136927753E+02  0.00000000000E+00 0. -1.
         -5    1    5    5    0  502 -0.51352890463E+02 -0.45302548098E+02  0.12905955639E+03  0.14617762933E+03  0.47000000000E+01 0.  1.
         13    1    6    6    0    0  0.22007580377E+02 -0.22687603356E+02  0.90599980438E+02  0.95955288523E+02  0.00000000000E+00 0. -1.
        -14    1    6    6    0    0  0.30312212371E+02  0.50272925124E+02  0.45793569887E+02  0.74452993643E+02  0.00000000000E+00 0.  1.
</event>
<event>
12    1  0.1629553E-001  0.2190090E+03  0.7818608E-02  0.1135237E+00
         21   -1    0    0  503  502  0.00000000000E+00  0.00000000000E+00  0.16940230153E+03  0.16940230153E+03  0.00000000000E+00 0.  1.
         21   -1    0    0  501  503 -0.00000000000E+00 -0.00000000000E+00 -0.35043972519E+03  0.35043972519E+03  0.00000000000E+00 0.  1.
          6    2    1    2  501    0 -0.13157368545E+03  0.42511370594E+01 -0.20843874846E+03  0.30234357198E+03  0.17502918840E+03 0.  0.
         24    2    3    3    0    0 -0.13232223346E+03 -0.36545985633E+02 -0.20701027646E+03  0.26124495793E+03  0.80937574411E+02 0.  0.
         -6    2    1    2    0  502  0.13157368545E+03 -0.42511370594E+01  0.27401324791E+02  0.21749845474E+03  0.17095332213E+03 0.  0.
        -24    2    5    5    0    0  0.74321247589E+02 -0.59647998914E+02 -0.14568776902E+00  0.13307344752E+03  0.92881589088E+02 0.  0.
          5    1    3    3  501    0  0.74854801728E+00  0.40797122693E+02 -0.14284719978E+01  0.41098614045E+02  0.47000000000E+01 0. -1.
        -11    1    4    4    0    0 -0.58505185823E+02 -0.57444703995E+02 -0.11869065627E+03  0.14425748740E+03  0.00000000000E+00 0.  1.
         12    1    4    4    0    0 -0.73817047640E+02  0.20898718361E+02 -0.88319620185E+02  0.11698747053E+03  0.00000000000E+00 0. -1.
         -5    1    5    5    0  502  0.57252437857E+02  0.55396861854E+02  0.27547012560E+02  0.84425007224E+02  0.47000000000E+01 0.  1.
         11    1    6    6    0    0 -0.18056076251E+02  0.57367080291E+01 -0.56319769115E+01  0.19764889894E+02  0.00000000000E+00 0. -1.
        -12    1    6    6    0    0  0.92377323840E+02 -0.65384706943E+02  0.54862891425E+01  0.11330855762E+03  0.00000000000E+00 0.  1.
</event>
<event>
12    1  0.1629553E-001  0.1875612E+03  0.7818608E-02  0.1162229E+00
         21   -1    0    0  503  502  0.00000000000E+00  0.00000000000E+00  0.16527745682E+04  0.16527745682E+04  0.00000000000E+00 0.  1.
         21   -1    0    0  501  503 -0.00000000000E+00 -0.00000000000E+00 -0.38691846353E+02  0.38691846353E+02  0.00000000000E+00 0.  1.
          6    2    1    2  501    0  0.57976397090E+02 -0.26910018566E+02  0.23551276992E+03  0.30107387220E+03  0.17633434154E+03 0.  0.
         24    2    3    3    0    0 -0.15137891644E+02 -0.71226583218E+01  0.40414467350E+02  0.91735207571E+02  0.80635792995E+02 0.  0.
         -6    2    1    2    0  502 -0.57976397090E+02  0.26910018566E+02  0.13785699520E+04  0.13903925424E+04  0.16926576074E+03 0.  0.
        -24    2    5    5    0    0 -0.44879297711E+02  0.16409613466E+02  0.37097182132E+03  0.38264362754E+03  0.80700846969E+02 0.  0.
          5    1    3    3  501    0  0.73114288734E+02 -0.19787360244E+02  0.19509830257E+03  0.20933866463E+03  0.47000000000E+01 0. -1.
        -13    1    4    4    0    0  0.26643391488E+02  0.42918707288E+01 -0.66293988756E+01  0.27789195631E+02  0.00000000000E+00 0.  1.
         14    1    4    4    0    0 -0.41781283132E+02 -0.11414529051E+02  0.47043866226E+02  0.63946011940E+02  0.00000000000E+00 0. -1.
         -5    1    5    5    0  502 -0.13097099379E+02  0.10500405100E+02  0.10075981306E+04  0.10077489149E+04  0.47000000000E+01 0.  1.
         13    1    6    6    0    0  0.10097453441E+02  0.15895696598E+02  0.20306478883E+02  0.27694490806E+02  0.00000000000E+00 0. -1.
        -14    1    6    6    0    0 -0.54976751152E+02  0.51391686761E+00  0.35066534244E+03  0.35494913673E+03  0.00000000000E+00 0.  1.
</event>
<event>
12    1  0.1629553E-001  0.2663834E+03  0.7818608E-02  0.1103468E+00
         21   -1    0    0  501  502  0.00000000000E+00  0.00000000000E+00  0.12543045780E+04  0.12543045780E+04  0.00000000000E+00 0. -1.
         21   -1    0    0  502  503 -0.00000000000E+00 -0.00000000000E+00 -0.13219107963E+03  0.13219107963E+03  0.00000000000E+00 0.  1.
         -6    2    1    2    0  503  0.20329124925E+03  0.20662843185E+02  0.36536050794E+02  0.26887730115E+03  0.17089714729E+03 0.  0.
        -24    2    3    3    0    0  0.10708970507E+03 -0.43495896262E+02 -0.11837926309E+02  0.14344519755E+03  0.84120688768E+02 0.  0.
          6    2    1    2  501    0 -0.20329124925E+03 -0.20662843185E+02  0.10855774476E+04  0.11176183565E+04  0.16981787586E+03 0.  0.
         24    2    5    5    0    0 -0.16043127697E+03  0.33970458222E+02  0.92968221344E+03  0.94689287839E+03  0.73518150749E+02 0.  0.
          5    1    5    5  501    0 -0.42859972277E+02 -0.54633301407E+02  0.15589523414E+03  0.17072547811E+03  0.47000000000E+01 0. -1.
        -13    1    6    6    0    0 -0.42521674040E+02  0.31908020329E+02  0.44052718006E+03  0.44372334950E+03  0.00000000000E+00 0.  1.
         14    1    6    6    0    0 -0.11790960293E+03  0.20624378935E+01  0.48915503338E+03  0.50316952888E+03  0.00000000000E+00 0. -1.
         -5    1    3    3    0  503  0.96201544183E+02  0.64158739447E+02  0.48373977103E+02  0.12543210359E+03  0.47000000000E+01 0.  1.
         11    1    4    4    0    0 -0.71533154880E+01 -0.13241566995E+02  0.16066273843E+02  0.22014408331E+02  0.00000000000E+00 0. -1.
        -12    1    4    4    0    0  0.11424302056E+03 -0.30254329268E+02 -0.27904200152E+02  0.12143078922E+03  0.00000000000E+00 0.  1.
</event>
<event>
12    1  0.1629553E-001  0.3987133E+03  0.7818608E-02  0.1044329E+00
         21   -1    0    0  501  502  0.00000000000E+00  0.00000000000E+00  0.14324201544E+03  0.14324201544E+03  0.00000000000E+00 0. -1.
         21   -1    0    0  502  503 -0.00000000000E+00 -0.00000000000E+00 -0.14156530199E+04  0.14156530199E+04  0.00000000000E+00 0. -1.
         -6    2    1    2    0  503 -0.34179505493E+03  0.10753301557E+03 -0.99969723030E+03  0.10758369919E+04  0.17217279631E+03 0.  0.
        -24    2    3    3    0    0 -0.60719945628E+02  0.26479288004E+02 -0.28944785715E+03  0.30769040047E+03  0.80655167476E+02 0.  0.
          6    2    1    2  501    0  0.34179505493E+03 -0.10753301557E+03 -0.27271377414E+03  0.48305804345E+03  0.17488585340E+03 0.  0.
         24    2    5    5    0    0  0.13790343190E+03  0.16028838205E+02 -0.14707875408E+03  0.21352961467E+03  0.68472302844E+02 0.  0.
          5    1    5    5  501    0  0.20389162303E+03 -0.12356185378E+03 -0.12563502007E+03  0.26952842877E+03  0.47000000000E+01 0. -1.
        -11    1    6    6    0    0  0.12532725974E+03  0.27975954699E+01 -0.14951417389E+03  0.19511339464E+03  0.00000000000E+00 0.  1.
         12    1    6    6    0    0  0.12576172160E+02  0.13231242735E+02  0.24354198134E+01  0.18416220030E+02  0.00000000000E+00 0. -1.
         -5    1    3    3    0  503 -0.28107510930E+03  0.81053727571E+02 -0.71024937315E+03  0.76814659140E+03  0.47000000000E+01 0.  1.
         13    1    4    4    0    0 -0.76040792816E+02  0.27083949794E+01 -0.21025535142E+03  0.22359975487E+03  0.00000000000E+00 0. -1.
        -14    1    4    4    0    0  0.15320847189E+02  0.23770893025E+02 -0.79192505726E+02  0.84090645597E+02  0.00000000000E+00 0.  1.
</event>
<event>
12    1  0.1629553E-001  0.1778712E+03  0.7818608E-02  0.1169963E+00
         21   -1    0    0  501  502  0.00000000000E+00  0.00000000000E+00  0.12478794919E+03  0.12478794919E+03  0.00000000000E+00 0.  1.
         21   -1    0    0  502  503 -0.00000000000E+00 -0.00000000000E+00 -0.27941460471E+03  0.27941460471E+03  0.00000000000E+00 0.  1.
         -6    2    1    2    0  503 -0.66846764968E+01 -0.44202483513E+02 -0.15169811416E+02  0.17817958417E+03  0.17181180573E+03 0.  0.
        -24    2    3    3    0    0  0.14757316751E+02 -0.92426692944E+02 -0.20681247347E+02  0.12490858479E+03  0.80087256135E+02 0.  0.
          6    2    1    2  501    0  0.66846764968E+01  0.44202483513E+02 -0.13945684410E+03  0.22602296972E+03  0.17216163054E+03 0.  0.
         24    2    5    5    0    0 -0.10060550435E+02 -0.12903463667E+02 -0.14499711070E+03  0.16607068551E+03  0.79294365658E+02 0.  0.
          5    1    5    5  501    0  0.16745226932E+02  0.57105947180E+02  0.55402666026E+01  0.59952284213E+02  0.47000000000E+01 0. -1.
        -11    1    6    6    0    0 -0.28105767865E+02  0.25264841047E+02 -0.81269262373E+02  0.89626666719E+02  0.00000000000E+00 0.  1.
         12    1    6    6    0    0  0.18045217430E+02 -0.38168304714E+02 -0.63727848328E+02  0.76444018793E+02  0.00000000000E+00 0. -1.
         -5    1    3    3    0  503 -0.21441993248E+02  0.48224209432E+02  0.55114359315E+01  0.53270999388E+02  0.47000000000E+01 0.  1.
         13    1    4    4    0    0 -0.32512103793E+02 -0.39806972388E+02 -0.67903028529E+00  0.51401294009E+02  0.00000000000E+00 0. -1.
        -14    1    4    4    0    0  0.47269420544E+02 -0.52619720556E+02 -0.20002217062E+02  0.73507290777E+02  0.00000000000E+00 0.  1.
</event>
<event>
12    1  0.1629553E-001  0.2617859E+03  0.7818608E-02  0.1107602E+00
         21   -1    0    0  503  502  0.00000000000E+00  0.00000000000E+00  0.55462500832E+03  0.55462500832E+03  0.00000000000E+00 0.  1.
         21   -1    0    0  501  503 -0.00000000000E+00 -0.00000000000E+00 -0.16130193650E+03  0.16130193650E+03  0.00000000000E+00 0.  1.
          6    2    1    2  501    0 -0.69449295259E+02  0.18500528341E+03  0.15924270053E+02  0.26226980017E+03  0.17170237681E+03 0.  0.
         24    2    3    3    0    0 -0.10307520094E+02  0.92621451412E+02 -0.53892788022E+02  0.13215818047E+03  0.76657509946E+02 0.  0.
         -6    2    1    2    0  502  0.69449295259E+02 -0.18500528341E+03  0.37739880176E+03  0.45365714464E+03  0.15596406576E+03 0.  0.
        -24    2    5    5    0    0 -0.15140198048E+02 -0.12247553883E+03  0.23139157010E+03  0.27364172021E+03  0.78155288480E+02 0.  0.
          5    1    3    3  501    0 -0.59141775164E+02  0.92383832003E+02  0.69817058074E+02  0.13011161971E+03  0.47000000000E+01 0. -1.
        -13    1    4    4    0    0 -0.38913936115E+02  0.73907393543E+02 -0.24419047747E+02  0.87022337001E+02  0.00000000000E+00 0.  1.
         14    1    4    4    0    0  0.28606416021E+02  0.18714057869E+02 -0.29473740275E+02  0.45135843464E+02  0.00000000000E+00 0. -1.
         -5    1    5    5    0  502  0.84589493306E+02 -0.62529744582E+02  0.14600723167E+03  0.18001542444E+03  0.47000000000E+01 0.  1.
         13    1    6    6    0    0  0.68697824369E+01  0.79701600951E+01  0.55222220302E+01  0.11883278118E+02  0.00000000000E+00 0. -1.
        -14    1    6    6    0    0 -0.22009980484E+02 -0.13044569893E+03  0.22586934807E+03  0.26175844209E+03  0.00000000000E+00 0.  1.
</event>
<event>
12    1  0.1629553E-001  0.1796161E+03  0.7818608E-02  0.1169252E+00
         21   -1    0    0  503  502  0.00000000000E+00  0.00000000000E+00  0.12329970303E+03  0.12329970303E+03  0.00000000000E+00 0. -1.
         21   -1    0    0  501  503 -0.00000000000E+00 -0.00000000000E+00 -0.51897116239E+03  0.51897116239E+03  0.00000000000E+00 0. -1.
          6    2    1    2  501    0  0.29170832547E+02  0.11269600511E+02 -0.42552155664E+03  0.46019128544E+03  0.17242239607E+03 0.  0.
         24    2    3    3    0    0 -0.10393523267E+02 -0.22948036307E+02 -0.38486531644E+03  0.39377438408E+03  0.79387127781E+02 0.  0.
         -6    2    1    2    0  502 -0.29170832547E+02 -0.11269600511E+02  0.29850097271E+02  0.18207957998E+03  0.17687284634E+03 0.  0.
        -24    2    5    5    0    0 -0.18813265570E+02 -0.77363835145E+02  0.51795489402E+01  0.11062012994E+03  0.76621690601E+02 0.  0.
          5    1    3    3  501    0  0.39564355814E+02  0.34217636818E+02 -0.40656240192E+02  0.66416901365E+02  0.47000000000E+01 0. -1.
        -13    1    4    4    0    0  0.20757790647E+01 -0.19467010528E+01  0.35736471190E+01  0.45683101302E+01  0.00000000000E+00 0.  1.
         14    1    4    4    0    0 -0.12469302332E+02 -0.21001335255E+02 -0.38843896356E+03  0.38920607395E+03  0.00000000000E+00 0. -1.
         -5    1    5    5    0  502 -0.10357566977E+02  0.66094234635E+02  0.24670548331E+02  0.71459450044E+02  0.47000000000E+01 0.  1.
         11    1    6    6    0    0 -0.29665155678E+02 -0.85271316642E+02  0.17993534195E+02  0.92059688116E+02  0.00000000000E+00 0. -1.
        -12    1    6    6    0    0  0.10851890107E+02  0.79074814967E+01 -0.12813985255E+02  0.18560441822E+02  0.00000000000E+00 0.  1.
</event>
<event>
12    1  0.1629553E-001  0.2137088E+03  0.7818608E-02  0.1138816E+00
         21   -1    0    0  501  502  0.00000000000E+00  0.00000000000E+00  0.73783271895E+03  0.73783271895E+03  0.00000000000E+00 0. -1.
         21   -1    0    0  502  503 -0.00000000000E+00 -0.00000000000E+00 -0.13080002345E+03  0.13080002345E+03  0.00000000000E+00 0. -1.
         -6    2    1    2    0  503 -0.11999965153E+03  0.34973867983E+02 -0.12496091331E+02  0.21327989831E+03  0.17236320639E+03 0.  0.
        -24    2    3    3    0    0 -0.44232157337E+02  0.18531670484E+02 -0.70028009015E+02  0.11662033807E+03  0.79977963530E+02 0.  0.
          6    2    1    2  501    0  0.11999965153E+03 -0.34973867983E+02  0.61952878683E+03  0.65535284409E+03  0.17334458380E+03 0.  0.
         24    2    5    5    0    0  0.44093059937E+02 -0.45302027011E+02  0.16311269957E+03  0.19252866989E+03  0.80405624063E+02 0.  0.
          5    1    5    5  501    0  0.75906591589E+02  0.10328159028E+02  0.45641608726E+03  0.46282417420E+03  0.47000000000E+01 0. -1.
        -13    1    6    6    0    0 -0.23109850743E+02 -0.16378309324E+02  0.35324418889E+02  0.45278347888E+02  0.00000000000E+00 0.  1.
         14    1    6    6    0    0  0.67202910680E+02 -0.28923717687E+02  0.12778828068E+03  0.14725032200E+03  0.00000000000E+00 0. -1.
         -5    1    3    3    0  503 -0.75767494190E+02  0.16442197499E+02  0.57531917684E+02  0.96659560245E+02  0.47000000000E+01 0.  1.
         11    1    4    4    0    0 -0.11596393603E+02 -0.22714151708E+02  0.39952924564E+01  0.25814170415E+02  0.00000000000E+00 0. -1.
        -12    1    4    4    0    0 -0.32635763734E+02  0.41245822191E+02 -0.74023301471E+02  0.90806167651E+02  0.00000000000E+00 0.  1.
</event>
<event>
12    1  0.1629553E-001  0.1879731E+03  0.7818608E-02  0.1160831E+00
         21   -1    0    0  501  502  0.00000000000E+00  0.00000000000E+00  0.36005294670E+02  0.36005294670E+02  0.00000000000E+00 0. -1.
         21   -1    0    0  502  503 -0.00000000000E+00 -0.00000000000E+00 -0.10215188637E+04  0.10215188637E+04  0.00000000000E+00 0.  1.
         -6    2    1    2    0  503  0.61901416177E+02 -0.37240310812E+02 -0.60931754845E+03  0.63698006915E+03  0.17104709166E+03 0.  0.
        -24    2    3    3    0    0  0.15967454294E+02 -0.84835942113E+02 -0.35336627097E+03  0.37257806572E+03  0.80589062054E+02 0.  0.
          6    2    1    2  501    0 -0.61901416177E+02  0.37240310812E+02 -0.37619602062E+03  0.42054408926E+03  0.17353748590E+03 0.  0.
         24    2    5    5    0    0 -0.42655140114E+02  0.50798067882E+02 -0.38270239170E+03  0.39567131733E+03  0.75463673798E+02 0.  0.
          5    1    5    5  501    0 -0.19246276063E+02 -0.13557757070E+02  0.65063710836E+01  0.24872771935E+02  0.47000000000E+01 0. -1.
        -13    1    6    6    0    0 -0.59178977808E+02  0.55891260460E+02 -0.28272871998E+03  0.29421338092E+03  0.00000000000E+00 0.  1.
         14    1    6    6    0    0  0.16523837695E+02 -0.50931925785E+01 -0.99973671725E+02  0.10145793641E+03  0.00000000000E+00 0. -1.
         -5    1    3    3    0  503  0.45933961883E+02  0.47595631302E+02 -0.25595127748E+03  0.26440200343E+03  0.47000000000E+01 0.  1.
         13    1    4    4    0    0  0.34993362022E+02 -0.17330664683E+02 -0.65198735614E+02  0.75998437153E+02  0.00000000000E+00 0. -1.
        -14    1    4    4    0    0 -0.19025907728E+02 -0.67505277431E+02 -0.28816753536E+03  0.29657962857E+03  0.00000000000E+00 0.  1.
</event>
<event>
12    1  0.1629553E-001  0.2419364E+03  0.7818608E-02  0.1118741E+00
         21   -1    0    0  501  502  0.00000000000E+00  0.00000000000E+00  0.96434049420E+02  0.96434049420E+02  0.00000000000E+00 0. -1.
         21   -1    0    0  502  503 -0.00000000000E+00 -0.00000000000E+00 -0.70344479124E+03  0.70344479124E+03  0.00000000000E+00 0.  1.
         -6    2    1    2    0  503 -0.16361288391E+03 -0.44055443696E+02 -0.45503369842E+03  0.51535315423E+03  0.17269380123E+03 0.  0.
        -24    2    3    3    0    0 -0.17157784640E+03 -0.25602465372E+02 -0.45654761666E+03  0.49465689890E+03  0.78455578189E+02 0.  0.
          6    2    1    2  501    0  0.16361288391E+03  0.44055443696E+02 -0.15197704340E+03  0.28452568642E+03  0.17072722868E+03 0.  0.
         24    2    5    5    0    0  0.27520130359E+02  0.55222806594E+02 -0.52219545785E+02  0.11535241462E+03  0.82294487378E+02 0.  0.
          5    1    5    5  501    0  0.13609275355E+03 -0.11167362898E+02 -0.99757497614E+02  0.16917327181E+03  0.47000000000E+01 0. -1.
        -11    1    6    6    0    0  0.31318101400E+02  0.19708685918E+02 -0.67126316819E+02  0.76649841394E+02  0.00000000000E+00 0.  1.
         12    1    6    6    0    0 -0.37979710409E+01  0.35514120676E+02  0.14906771034E+02  0.38702573223E+02  0.00000000000E+00 0. -1.
         -5    1    3    3    0  503  0.79649624860E+01 -0.18452978324E+02  0.15139182365E+01  0.20696255334E+02  0.47000000000E+01 0.  1.
         13    1    4    4    0    0 -0.44234808667E+02 -0.43179613420E+02 -0.15220035650E+03  0.16427460495E+03  0.00000000000E+00 0. -1.
        -14    1    4    4    0    0 -0.12734303773E+03  0.17577148048E+02 -0.30434726016E+03  0.33038229395E+03  0.00000000000E+00 0.  1.
</event>
<event>
12    1  0.1629553E-001  0.2723378E+03  0.7818608E-02  0.1100232E+00
         21   -1    0    0  501  502  0.00000000000E+00  0.00000000000E+00  0.18929332038E+03  0.18929332038E+03  0.00000000000E+00 0. -1.
         21   -1    0    0  502  503 -0.00000000000E+00 -0.00000000000E+00 -0.64247785109E+03  0.64247785109E+03  0.00000000000E+00 0.  1.
         -6    2    1    2    0  503  0.39099635496E+02 -0.20757038278E+03 -0.48733680855E+03  0.55730033223E+03  0.16873722186E+03 0.  0.
        -24    2    3    3    0    0  0.70782782703E+02 -0.69390776788E+02 -0.18086663713E+03  0.21959708781E+03  0.75397999415E+02 0.  0.
          6    2    1    2  501    0 -0.39099635496E+02  0.20757038278E+03  0.34152277834E+02  0.27447083923E+03  0.17191165814E+03 0.  0.
         24    2    5    5    0    0 -0.17614784056E+02  0.22167758117E+03  0.53174423066E+02  0.24215143489E+03  0.79740626678E+02 0.  0.
          5    1    5    5  501    0 -0.21484851440E+02 -0.14107198387E+02 -0.19022145232E+02  0.32319404341E+02  0.47000000000E+01 0. -1.
        -13    1    6    6    0    0  0.19948226090E+02  0.18171787678E+02  0.17482822607E+02  0.32152677615E+02  0.00000000000E+00 0.  1.
         14    1    6    6    0    0 -0.37563010146E+02  0.20350579349E+03  0.35691600459E+02  0.20999875728E+03  0.00000000000E+00 0. -1.
         -5    1    3    3    0  503 -0.31683147207E+02 -0.13817960599E+03 -0.30647017142E+03  0.33770324443E+03  0.47000000000E+01 0.  1.
         11    1    4    4    0    0  0.72072304431E+02 -0.72435012301E+02 -0.11576310502E+03  0.15440966471E+03  0.00000000000E+00 0. -1.
        -12    1    4    4    0    0 -0.12895217282E+01  0.30442355129E+01 -0.65103532114E+02  0.65187423096E+02  0.00000000000E+00 0.  1.
</event>
<event>
12    1  0.1629553E-001  0.2114492E+03  0.7818608E-02  0.1140653E+00
         21   -1    0    0  501  502  0.00000000000E+00  0.00000000000E+00  0.12783044878E+03  0.12783044878E+03  0.00000000000E+00 0.  1.
         21   -1    0    0  502  503 -0.00000000000E+00 -0.00000000000E+00 -0.35859014333E+03  0.35859014333E+03  0.00000000000E+00 0.  1.
         -6    2    1    2    0  503 -0.12133748049E+03  0.16719655612E+01 -0.72954694311E+02  0.22257747599E+03  0.17173457938E+03 0.  0.
        -24    2    3    3    0    0 -0.13925676325E+03 -0.33151053050E+02 -0.80588552907E+02  0.18240149913E+03  0.79273914967E+02 0.  0.
          6    2    1    2  501    0  0.12133748049E+03 -0.16719655612E+01 -0.15780500024E+03  0.26384311612E+03  0.17316232898E+03 0.  0.
         24    2    5    5    0    0  0.66345331105E+02  0.83052688918E+01 -0.17746657578E+03  0.20440954602E+03  0.76277103615E+02 0.  0.
          5    1    5    5  501    0  0.54992149387E+02 -0.99772344530E+01  0.19661575535E+02  0.59433570094E+02  0.47000000000E+01 0. -1.
        -11    1    6    6    0    0  0.56525234814E+02 -0.26383984944E+02 -0.87247052861E+02  0.10725327531E+03  0.00000000000E+00 0.  1.
         12    1    6    6    0    0  0.98200962909E+01  0.34689253836E+02 -0.90219522918E+02  0.97156270711E+02  0.00000000000E+00 0. -1.
         -5    1    3    3    0  503  0.17919282761E+02  0.34823018611E+02  0.76338585959E+01  0.40175976863E+02  0.47000000000E+01 0.  1.
         13    1    4    4    0    0 -0.10211140793E+01 -0.18699532975E+02 -0.28231266574E+02  0.33878010860E+02  0.00000000000E+00 0. -1.
        -14    1    4    4    0    0 -0.13823564917E+03 -0.14451520075E+02 -0.52357286333E+02  0.14852348827E+03  0.00000000000E+00 0.  1.
</event>
<event>
12    1  0.1629553E-001  0.3351179E+03  0.7818608E-02  0.1069150E+00
         21   -1    0    0  503  502  0.00000000000E+00  0.00000000000E+00  0.52251317349E+03  0.52251317349E+03  0.00000000000E+00 0. -1.
         21   -1    0    0  501  503 -0.00000000000E+00 -0.00000000000E+00 -0.21342741588E+03  0.21342741588E+03  0.00000000000E+00 0.  1.
          6    2    1    2  501    0  0.28400808854E+03  0.48882067874E+02  0.15473983252E+03  0.36698711510E+03  0.16638832880E+03 0.  0.
         24    2    3    3    0    0  0.10089661614E+03 -0.19046746410E+02  0.10463535114E+03  0.16530249945E+03  0.76377050996E+02 0.  0.
         -6    2    1    2    0  502 -0.28400808854E+03 -0.48882067874E+02  0.15434592509E+03  0.36895347427E+03  0.17103786326E+03 0.  0.
        -24    2    5    5    0    0 -0.16911591691E+03  0.20296007304E+02  0.13815864101E+03  0.23378714950E+03  0.80972216969E+02 0.  0.
          5    1    3    3  501    0  0.18311147240E+03  0.67928814283E+02  0.50104481382E+02  0.20168461565E+03  0.47000000000E+01 0. -1.
        -13    1    4    4    0    0  0.23139795968E+02 -0.13304563232E+02 -0.84022355863E+01  0.27983193583E+02  0.00000000000E+00 0.  1.
         14    1    4    4    0    0  0.77756820174E+02 -0.57421831774E+01  0.11303758673E+03  0.13731930587E+03  0.00000000000E+00 0. -1.
         -5    1    5    5    0  502 -0.11489217163E+03 -0.69178075178E+02  0.16187284086E+02  0.13516632477E+03  0.47000000000E+01 0.  1.
         11    1    6    6    0    0 -0.14147421840E+03 -0.13149687047E+02  0.12268171814E+03  0.18771966521E+03  0.00000000000E+00 0. -1.
        -12    1    6    6    0    0 -0.27641698516E+02  0.33445694351E+02  0.15476922866E+02  0.46067484291E+02  0.00000000000E+00 0.  1.
</event>
<event>
12    1  0.1629553E-001  0.1818322E+03  0.7818608E-02  0.1166462E+00
         21   -1    0    0  503  502  0.00000000000E+00  0.00000000000E+00  0.14690926944E+03  0.14690926944E+03  0.00000000000E+00 0.  1.
         21   -1    0    0  501  503 -0.00000000000E+00 -0.00000000000E+00 -0.24696561898E+03  0.24696561898E+03  0.00000000000E+00 0.  1.
          6    2    1    2  501    0 -0.19874891085E+00  0.55484532557E+02 -0.11129159900E+03  0.21169594921E+03  0.17132069941E+03 0.  0.
         24    2    3    3    0    0 -0.23069937201E+00  0.76243859007E+02 -0.12066799647E+02  0.11021392389E+03  0.78665889093E+02 0.  0.
         -6    2    1    2    0  502  0.19874891085E+00 -0.55484532557E+02  0.11235249461E+02  0.18217893921E+03  0.17315993245E+03 0.  0.
        -24    2    5    5    0    0 -0.98020118461E+01 -0.10416420490E+03  0.49596808280E+01  0.13186792176E+03  0.80114226809E+02 0.  0.
          5    1    3    3  501    0  0.31950461158E-01 -0.20759326450E+02 -0.99224799356E+02  0.10148202532E+03  0.47000000000E+01 0. -1.
        -11    1    4    4    0    0 -0.29596689564E+02  0.58433461496E+02  0.14142686514E+02  0.67010812840E+02  0.00000000000E+00 0.  1.
         12    1    4    4    0    0  0.29365990192E+02  0.17810397510E+02 -0.26209486162E+02  0.43203111049E+02  0.00000000000E+00 0. -1.
         -5    1    5    5    0  502  0.10000760757E+02  0.48679672340E+02  0.62755686332E+01  0.50311017447E+02  0.47000000000E+01 0.  1.
         13    1    6    6    0    0 -0.39053835168E+02 -0.34011947313E+02 -0.13770055932E+02  0.53587582906E+02  0.00000000000E+00 0. -1.
        -14    1    6    6    0    0  0.29251823322E+02 -0.70152257584E+02  0.18729736760E+02  0.78280338853E+02  0.00000000000E+00 0.  1.
</event>
<event>
12    1  0.1629553E-001  0.1736384E+03  0.7818608E-02  0.1174172E+00
         21   -1    0    0  501  502  0.00000000000E+00  0.00000000000E+00  0.30975733508E+03  0.30975733508E+03  0.00000000000E+00 0. -1.
         21   -1    0    0  502  503 -0.00000000000E+00 -0.00000000000E+00 -0.10917844394E+03  0.10917844394E+03  0.00000000000E+00 0. -1.
         -6    2    1    2    0  503  0.24888433336E+02  0.33038828173E+01  0.30809944165E+02  0.17609470698E+03  0.17155099362E+03 0.  0.
        -24    2    3    3    0    0  0.64880034640E+02  0.22848484834E+02  0.58484133173E+02  0.12347084946E+03  0.84221046534E+02 0.  0.
          6    2    1    2  501    0 -0.24888433336E+02 -0.33038828173E+01  0.16976894698E+03  0.24284107205E+03  0.17181368152E+03 0.  0.
         24    2    5    5    0    0  0.29977674141E+02 -0.49701002371E+02  0.11806115403E+03  0.15419137772E+03  0.80421976403E+02 0.  0.
          5    1    5    5  501    0 -0.54866107477E+02  0.46397119554E+02  0.51707792952E+02  0.88649694328E+02  0.47000000000E+01 0. -1.
        -13    1    6    6    0    0  0.23611601051E+02  0.12845531964E+02  0.70220517716E+02  0.75189337701E+02  0.00000000000E+00 0.  1.
         14    1    6    6    0    0  0.63660730895E+01 -0.62546534336E+02  0.47840636311E+02  0.79002040015E+02  0.00000000000E+00 0. -1.
         -5    1    3    3    0  503 -0.39991601304E+02 -0.19544602017E+02 -0.27674189008E+02  0.52623857518E+02  0.47000000000E+01 0.  1.
         13    1    4    4    0    0  0.68010240398E+02  0.28358776043E+02  0.97520500548E+01  0.74328429675E+02  0.00000000000E+00 0. -1.
        -14    1    4    4    0    0 -0.31302057578E+01 -0.55102912093E+01  0.48732083118E+02  0.49142419785E+02  0.00000000000E+00 0.  1.
</event>
<event>
12    1  0.1629553E-001  0.2571485E+03  0.7818608E-02  0.1109008E+00
         21   -1    0    0  503  502  0.00000000000E+00  0.00000000000E+00  0.48886436534E+03  0.48886436534E+03  0.00000000000E+00 0. -1.
         21   -1    0    0  501  503 -0.00000000000E+00 -0.00000000000E+00 -0.15290032728E+03  0.15290032728E+03  0.00000000000E+00 0.  1.
          6    2    1    2  501    0  0.14984411233E+03  0.12022477227E+03  0.57786813350E+02  0.26356148063E+03  0.17093298220E+03 0.  0.
         24    2    3    3    0    0  0.92011534712E+02  0.21002564248E+02 -0.19797942917E+02  0.12488510194E+03  0.79354268436E+02 0.  0.
         -6    2    1    2    0  502 -0.14984411233E+03 -0.12022477227E+03  0.27817722472E+03  0.37820321199E+03  0.16955190162E+03 0.  0.
        -24    2    5    5    0    0 -0.87457787223E+02  0.75451293909E+00  0.11285097261E+03  0.16400026932E+03  0.80692704036E+02 0.  0.
          5    1    3    3  501    0  0.57832577617E+02  0.99222208025E+02  0.77584756267E+02  0.13867637868E+03  0.47000000000E+01 0. -1.
        -13    1    4    4    0    0  0.10478257456E+03  0.18208378485E+02 -0.27315423928E+02  0.10980466913E+03  0.00000000000E+00 0.  1.
         14    1    4    4    0    0 -0.12771039852E+02  0.27941857624E+01  0.75174810114E+01  0.15080432810E+02  0.00000000000E+00 0. -1.
         -5    1    5    5    0  502 -0.62386325106E+02 -0.12097928521E+03  0.16532625211E+03  0.21420294267E+03  0.47000000000E+01 0.  1.
         13    1    6    6    0    0 -0.74856416032E+01 -0.17925972561E+02  0.67386190707E+02  0.70130407245E+02  0.00000000000E+00 0. -1.
        -14    1    6    6    0    0 -0.79972145620E+02  0.18680485500E+02  0.45464781899E+02  0.93869862078E+02  0.00000000000E+00 0.  1.
</event>
<event>
12    1  0.1629553E-001  0.2345383E+03  0.7818608E-02  0.1123625E+00
         21   -1    0    0  501  502  0.00000000000E+00  0.00000000000E+00  0.18001922205E+03  0.18001922205E+03  0.00000000000E+00 0.  1.
         21   -1    0    0  502  503 -0.00000000000E+00 -0.00000000000E+00 -0.37642691729E+03  0.37642691729E+03  0.00000000000E+00 0.  1.
         -6    2    1    2    0  503  0.12708385484E+03  0.96988992084E+02  0.23540442028E+02  0.23491013375E+03  0.17050351252E+03 0.  0.
        -24    2    3    3    0    0  0.51647732330E+02  0.57558357923E+01  0.58209354515E+02  0.11146734992E+03  0.79599140984E+02 0.  0.
          6    2    1    2  501    0 -0.12708385484E+03 -0.96988992084E+02 -0.21994813726E+03  0.32153600559E+03  0.17161307951E+03 0.  0.
         24    2    5    5    0    0 -0.14612644685E+03 -0.93230146872E+02 -0.12730761999E+03  0.22676731525E+03  0.71912352224E+02 0.  0.
          5    1    5    5  501    0  0.19042592015E+02 -0.37588452124E+01 -0.92640517278E+02  0.94768690344E+02  0.47000000000E+01 0. -1.
        -13    1    6    6    0    0 -0.94172595054E+02 -0.18898385086E+02 -0.76679000313E+02  0.12290360331E+03  0.00000000000E+00 0.  1.
         14    1    6    6    0    0 -0.51953851799E+02 -0.74331761786E+02 -0.50628619672E+02  0.10386371194E+03  0.00000000000E+00 0. -1.
         -5    1    3    3    0  503  0.75436122509E+02  0.91233156292E+02 -0.34668912487E+02  0.12344278383E+03  0.47000000000E+01 0.  1.
         11    1    4    4    0    0  0.37753579774E+02 -0.33473621034E+02  0.17922308623E+02  0.53544609787E+02  0.00000000000E+00 0. -1.
        -12    1    4    4    0    0  0.13894152556E+02  0.39229456827E+02  0.40287045892E+02  0.57922740136E+02  0.00000000000E+00 0.  1.
</event>
<event>
12    1  0.1629553E-001  0.1885771E+03  0.7818608E-02  0.1160043E+00
         21   -1    0    0  503  502  0.00000000000E+00  0.00000000000E+00  0.12372352861E+03  0.12372352861E+03  0.00000000000E+00 0. -1.
         21   -1    0    0  501  503 -0.00000000000E+00 -0.00000000000E+00 -0.31215058694E+03  0.31215058694E+03  0.00000000000E+00 0. -1.
          6    2    1    2  501    0 -0.57268347643E+02 -0.46075019890E+02 -0.15762078436E+03  0.24479734764E+03  0.17227553120E+03 0.  0.
         24    2    3    3    0    0 -0.25589522385E+02 -0.13514631989E+02 -0.17626049433E+03  0.19546930675E+03  0.79391555493E+02 0.  0.
         -6    2    1    2    0  502  0.57268347643E+02  0.46075019890E+02 -0.30806273975E+02  0.19107676791E+03  0.17366270071E+03 0.  0.
        -24    2    5    5    0    0  0.97609120226E+02  0.15572291791E+02 -0.50580023244E+02  0.13657093782E+03  0.79518838533E+02 0.  0.
          5    1    3    3  501    0 -0.31678825259E+02 -0.32560387901E+02  0.18639709977E+02  0.49328040890E+02  0.47000000000E+01 0. -1.
        -13    1    4    4    0    0  0.16582575875E+02 -0.14721188921E+01 -0.32187072152E+01  0.16956091319E+02  0.00000000000E+00 0.  1.
         14    1    4    4    0    0 -0.42172098259E+02 -0.12042513097E+02 -0.17304178712E+03  0.17851321543E+03  0.00000000000E+00 0. -1.
         -5    1    5    5    0  502 -0.40340772582E+02  0.30502728099E+02  0.19773749269E+02  0.54505830094E+02  0.47000000000E+01 0.  1.
         11    1    6    6    0    0  0.29643831839E+02  0.43904831818E+02 -0.25403940555E+02  0.58751606095E+02  0.00000000000E+00 0. -1.
        -12    1    6    6    0    0  0.67965288387E+02 -0.28332540027E+02 -0.25176082689E+02  0.77819331720E+02  0.00000000000E+00 0.  1.
</event>
<event>
12    1  0.1629553E-001  0.2255427E+03  0.7818608E-02  0.1129980E+00
         21   -1    0    0  503  502  0.00000000000E+00  0.00000000000E+00  0.10555362281E+03  0.10555362281E+03  0.00000000000E+00 0.  1.
         21   -1    0    0  501  503 -0.00000000000E+00 -0.00000000000E+00 -0.62749210499E+03  0.62749210499E+03  0.00000000000E+00 0. -1.
          6    2    1    2  501    0  0.11661592815E+03 -0.84605173843E+02 -0.43906292284E+03  0.49360487624E+03  0.17352871086E+03 0.  0.
         24    2    3    3    0    0  0.14231894631E+03 -0.88855957284E+02 -0.30553860207E+03  0.35748159189E+03  0.79304398131E+02 0.  0.
         -6    2    1    2    0  502 -0.11661592815E+03  0.84605173843E+02 -0.82875559336E+02  0.23944085156E+03  0.17235502001E+03 0.  0.
        -24    2    5    5    0    0 -0.15682377771E+02  0.21744079398E+02 -0.86223821893E+02  0.12039296351E+03  0.79631502815E+02 0.  0.
          5    1    3    3  501    0 -0.25703018164E+02  0.42507834406E+01 -0.13352432078E+03  0.13612328435E+03  0.47000000000E+01 0. -1.
        -11    1    4    4    0    0  0.10484574050E+03 -0.10141426108E+03 -0.23362352877E+03  0.27542228458E+03  0.00000000000E+00 0.  1.
         12    1    4    4    0    0  0.37473205815E+02  0.12558303795E+02 -0.71915073299E+02  0.82059307308E+02  0.00000000000E+00 0. -1.
         -5    1    5    5    0  502 -0.10093355038E+03  0.62861094445E+02  0.33482625563E+01  0.11904788805E+03  0.47000000000E+01 0.  1.
         11    1    6    6    0    0 -0.36100982838E+02 -0.96771652552E+01 -0.70419888567E+02  0.79723830784E+02  0.00000000000E+00 0. -1.
        -12    1    6    6    0    0  0.20418605066E+02  0.31421244654E+02 -0.15803933326E+02  0.40669132730E+02  0.00000000000E+00 0.  1.
</event>
<event>
12    1  0.1629553E-001  0.2094309E+03  0.7818608E-02  0.1142146E+00
         21   -1    0    0  503  502  0.00000000000E+00  0.00000000000E+00  0.15523730242E+04  0.15523730242E+04  0.00000000000E+00 0. -1.
         21   -1    0    0  501  503 -0.00000000000E+00 -0.00000000000E+00 -0.18035381324E+03  0.18035381324E+03  0.00000000000E+00 0.  1.
          6    2    1    2  501    0  0.10944560775E+03  0.46765020304E+02 -0.10966420099E+03  0.23640547273E+03  0.17232528072E+03 0.  0.
         24    2    3    3    0    0 -0.10783630053E+02 -0.93751611065E+00 -0.35592343364E+02  0.87276898351E+02  0.78951101741E+02 0.  0.
         -6    2    1    2    0  502 -0.10944560775E+03 -0.46765020304E+02  0.14816834119E+04  0.14963213647E+04  0.17154178814E+03 0.  0.
        -24    2    5    5    0    0 -0.94601635917E+02 -0.27597096880E+02  0.55326547051E+03  0.56757505018E+03  0.79546762647E+02 0.  0.
          5    1    3    3  501    0  0.12022923780E+03  0.47702536415E+02 -0.74071857631E+02  0.14912857437E+03  0.47000000000E+01 0. -1.
        -13    1    4    4    0    0  0.15423892761E+02 -0.27775911687E+02  0.48239631920E+01  0.32135157675E+02  0.00000000000E+00 0.  1.
         14    1    4    4    0    0 -0.26207522815E+02  0.26838395576E+02 -0.40416306556E+02  0.55141740676E+02  0.00000000000E+00 0. -1.
         -5    1    5    5    0  502 -0.14843971829E+02 -0.19167923424E+02  0.92841794139E+03  0.92874631449E+03  0.47000000000E+01 0.  1.
         11    1    6    6    0    0 -0.36590610956E+02 -0.49816277552E+02  0.21754317306E+03  0.22615385574E+03  0.00000000000E+00 0. -1.
        -12    1    6    6    0    0 -0.58011024961E+02  0.22219180672E+02  0.33572229746E+03  0.34142119444E+03  0.00000000000E+00 0.  1.
</event>
<event>
12    1  0.1629553E-001  0.2317485E+03  0.7818608E-02  0.1125867E+00
         21   -1    0    0  503  502  0.00000000000E+00  0.00000000000E+00  0.87525773960E+02  0.87525773960E+02  0.00000000000E+00 0. -1.
         21   -1    0    0  501  503 -0.00000000000E+00 -0.00000000000E+00 -0.60723351725E+03  0.60723351725E+03  0.00000000000E+00 0. -1.
          6    2    1    2  501    0 -0.13850537642E+03  0.59480520186E+02 -0.24918322741E+03  0.33854182766E+03  0.17261696520E+03 0.  0.
         24    2    3    3    0    0 -0.14396782160E+02 -0.12250036888E+02 -0.66721293185E+02  0.10645851626E+03  0.80773473247E+02 0.  0.
         -6    2    1    2    0  502  0.13850537642E+03 -0.59480520186E+02 -0.27052451588E+03  0.35621746355E+03  0.17602754349E+03 0.  0.
        -24    2    5    5    0    0  0.11841110603E+03 -0.96532798861E+02 -0.16905389433E+03  0.24624006544E+03  0.93355124930E+02 0.  0.
          5    1    3    3  501    0 -0.12410859426E+03  0.71730557075E+02 -0.18246193422E+03  0.23208331139E+03  0.47000000000E+01 0. -1.
        -11    1    4    4    0    0  0.13324486309E+02 -0.14429663768E+02 -0.74933210327E+02  0.77464463735E+02  0.00000000000E+00 0.  1.
         12    1    4    4    0    0 -0.27721268469E+02  0.21796268800E+01  0.82119171422E+01  0.28994052528E+02  0.00000000000E+00 0. -1.
         -5    1    5    5    0  502  0.20094270391E+02  0.37052278675E+02 -0.10147062156E+03  0.10997739812E+03  0.47000000000E+01 0.  1.
         13    1    6    6    0    0  0.74329929767E+02 -0.22459082202E+02 -0.31257364943E+02  0.83704072157E+02  0.00000000000E+00 0. -1.
        -14    1    6    6    0    0  0.44081176265E+02 -0.74073716659E+02 -0.13779652938E+03  0.16253599328E+03  0.00000000000E+00 0.  1.
</event>
<event>
12    1  0.1629553E-001  0.2372787E+03  0.7818608E-02  0.1122867E+00
         21   -1    0    0  503  502  0.00000000000E+00  0.00000000000E+00  0.54845955481E+03  0.54845955481E+03  0.00000000000E+00 0.  1.
         21   -1    0    0  501  503 -0.00000000000E+00 -0.00000000000E+00 -0.81686526098E+03  0.81686526098E+03  0.00000000000E+00 0.  1.
          6    2    1    2  501    0 -0.10066892045E+03 -0.10949178680E+03 -0.77365949981E+03  0.80712900520E+03  0.17545804762E+03 0.  0.
         24    2    3    3    0    0 -0.95262206533E+02 -0.17776992256E+02 -0.57578915889E+03  0.58891901939E+03  0.76821523380E+02 0.  0.
         -6    2    1    2    0  502  0.10066892045E+03  0.10949178680E+03  0.50525379364E+03  0.55819581058E+03  0.18487423845E+03 0.  0.
        -24    2    5    5    0    0  0.37016900069E+02  0.14146764301E+02  0.87602575681E+02  0.12507125243E+03  0.79988906025E+02 0.  0.
          5    1    3    3  501    0 -0.54067139215E+01 -0.91714794548E+02 -0.19787034091E+03  0.21820998581E+03  0.47000000000E+01 0. -1.
        -13    1    4    4    0    0 -0.10312088379E+03 -0.29141483042E+02 -0.54052020943E+03  0.55104014329E+03  0.00000000000E+00 0.  1.
         14    1    4    4    0    0  0.78586772526E+01  0.11364490786E+02 -0.35268949458E+02  0.37878876103E+02  0.00000000000E+00 0. -1.
         -5    1    5    5    0  502  0.63652020386E+02  0.95345022503E+02  0.41765121796E+03  0.43312455815E+03  0.47000000000E+01 0.  1.
         11    1    6    6    0    0  0.18526579028E+02  0.47190371319E+02  0.42284878465E+02  0.66016484476E+02  0.00000000000E+00 0. -1.
        -12    1    6    6    0    0  0.18490321041E+02 -0.33043607018E+02  0.45317697216E+02  0.59054767953E+02  0.00000000000E+00 0.  1.
</event>
<event>
12    1  0.1629553E-001  0.2043621E+03  0.7818608E-02  0.1146269E+00
         21   -1    0    0  503  502  0.00000000000E+00  0.00000000000E+00  0.22932196221E+03  0.22932196221E+03  0.00000000000E+00 0. -1.
         21   -1    0    0  501  503 -0.00000000000E+00 -0.00000000000E+00 -0.28412413940E+03  0.28412413940E+03  0.00000000000E+00 0.  1.
          6    2    1    2  501    0  0.51418788120E+02 -0.98615953232E+02 -0.18177701483E+03  0.27350820105E+03  0.17144927797E+03 0.  0.
         24    2    3    3    0    0  0.39887417733E+02 -0.76295019607E+02 -0.20690137963E+03  0.23766799615E+03  0.79157813183E+02 0.  0.
         -6    2    1    2    0  502 -0.51418788120E+02  0.98615953232E+02  0.12697483765E+03  0.23993790056E+03  0.17052445199E+03 0.  0.
        -24    2    5    5    0    0 -0.15863580287E+01  0.12499203234E+03  0.79372622559E+02  0.16599853676E+03  0.75033168097E+02 0.  0.
          5    1    3    3  501    0  0.11531370387E+02 -0.22320933624E+02  0.25124364801E+02  0.35840204903E+02  0.47000000000E+01 0. -1.
        -13    1    4    4    0    0 -0.15316148731E+02 -0.31844105307E+02 -0.27506670827E+02  0.44779999941E+02  0.00000000000E+00 0.  1.
         14    1    4    4    0    0  0.55203566464E+02 -0.44450914300E+02 -0.17939470881E+03  0.19288799621E+03  0.00000000000E+00 0. -1.
         -5    1    5    5    0  502 -0.49832430091E+02 -0.26376079109E+02  0.47602215086E+02  0.73939363799E+02  0.47000000000E+01 0.  1.
         11    1    6    6    0    0  0.89555357139E+01  0.91756473201E+02  0.15863157883E+02  0.93547270255E+02  0.00000000000E+00 0. -1.
        -12    1    6    6    0    0 -0.10541893743E+02  0.33235559140E+02  0.63509464676E+02  0.72451266507E+02  0.00000000000E+00 0.  1.
</event>
<event>
12    1  0.1629553E-001  0.2107839E+03  0.7818608E-02  0.1144248E+00
         21   -1    0    0  501  502  0.00000000000E+00  0.00000000000E+00  0.58038709181E+03  0.58038709181E+03  0.00000000000E+00 0.  1.
         21   -1    0    0  502  503 -0.00000000000E+00 -0.00000000000E+00 -0.17316135983E+03  0.17316135983E+03  0.00000000000E+00 0.  1.
         -6    2    1    2    0  503  0.37175473065E+02  0.10267015029E+03 -0.82636601672E+02  0.22640375293E+03  0.18029607829E+03 0.  0.
        -24    2    3    3    0    0 -0.47052389380E+02  0.63540305621E+02 -0.21496755248E+02  0.11511292502E+03  0.80855285766E+02 0.  0.
          6    2    1    2  501    0 -0.37175473065E+02 -0.10267015029E+03  0.48986233365E+03  0.52714469872E+03  0.16122422862E+03 0.  0.
         24    2    5    5    0    0  0.10752528679E+02 -0.80848973861E+02  0.43929894512E+03  0.45398731118E+03  0.80428490459E+02 0.  0.
          5    1    5    5  501    0 -0.47928001745E+02 -0.21821176426E+02  0.50563388532E+02  0.73157387540E+02  0.47000000000E+01 0. -1.
        -11    1    6    6    0    0 -0.24322398649E+02  0.21355253930E+01  0.88963214327E+02  0.92252875555E+02  0.00000000000E+00 0.  1.
         12    1    6    6    0    0  0.35074927329E+02 -0.82984499254E+02  0.35033573079E+03  0.36173443562E+03  0.00000000000E+00 0. -1.
         -5    1    3    3    0  503  0.84227862445E+02  0.39129844667E+02 -0.61139846424E+02  0.11129082791E+03  0.47000000000E+01 0.  1.
         13    1    4    4    0    0 -0.88480716335E+01 -0.19445722054E+02 -0.77515569093E+01  0.22726880832E+02  0.00000000000E+00 0. -1.
        -14    1    4    4    0    0 -0.38204317747E+02  0.82986027675E+02 -0.13745198339E+02  0.92386044190E+02  0.00000000000E+00 0.  1.
</event>
<event>
12    1  0.1629553E-001  0.2511001E+03  0.7818608E-02  0.1112843E+00
         21   -1    0    0  501  502  0.00000000000E+00  0.00000000000E+00  0.31166793759E+03  0.31166793759E+03  0.00000000000E+00 0.  1.
         21   -1    0    0  502  503 -0.00000000000E+00 -0.00000000000E+00 -0.20200116246E+03  0.20200116246E+03  0.00000000000E+00 0.  1.
         -6    2    1    2    0  503 -0.14566644098E+03  0.10978627089E+03  0.38048042030E+02  0.25396633825E+03  0.17256740758E+03 0.  0.
        -24    2    3    3    0    0 -0.32365158483E+02  0.25183973281E+02 -0.32618838153E+02  0.95818852240E+02  0.80221741743E+02 0.  0.
          6    2    1    2  501    0  0.14566644098E+03 -0.10978627089E+03  0.71618733099E+02  0.25970276180E+03  0.17042459991E+03 0.  0.
         24    2    5    5    0    0  0.12671989561E+03 -0.14617777521E+02  0.59287089799E+02  0.16177333243E+03  0.79900192142E+02 0.  0.
          5    1    5    5  501    0  0.18946545370E+02 -0.95168493370E+02  0.12331643300E+02  0.97929429377E+02  0.47000000000E+01 0. -1.
        -13    1    6    6    0    0  0.11223174854E+03 -0.22556008480E+02  0.16185907084E+02  0.11561454271E+03  0.00000000000E+00 0.  1.
         14    1    6    6    0    0  0.14488147070E+02  0.79382309594E+01  0.43101182714E+02  0.46158789712E+02  0.00000000000E+00 0. -1.
         -5    1    3    3    0  503 -0.11330128250E+03  0.84602297610E+02  0.70666880183E+02  0.15814748601E+03  0.47000000000E+01 0.  1.
         13    1    4    4    0    0 -0.62530858556E+01  0.32797333064E+02 -0.52437654510E+02  0.62164891613E+02  0.00000000000E+00 0. -1.
        -14    1    4    4    0    0 -0.26112072628E+02 -0.76133597828E+01  0.19818816357E+02  0.33653960627E+02  0.00000000000E+00 0.  1.
</event>
<event>
12    1  0.1629553E-001  0.1761667E+03  0.7818608E-02  0.1171807E+00
         21   -1    0    0  501  502  0.00000000000E+00  0.00000000000E+00  0.45809281843E+02  0.45809281843E+02  0.00000000000E+00 0. -1.
         21   -1    0    0  502  503 -0.00000000000E+00 -0.00000000000E+00 -0.70372432867E+03  0.70372432867E+03  0.00000000000E+00 0. -1.
         -6    2    1    2    0  503  0.15495895144E+02  0.21747320815E+02 -0.25076670546E+03  0.30590711694E+03  0.17315355873E+03 0.  0.
        -24    2    3    3    0    0  0.16375376173E+02  0.45729981085E+01 -0.26853729368E+03  0.28073541352E+03  0.80068901898E+02 0.  0.
          6    2    1    2  501    0 -0.15495895144E+02 -0.21747320815E+02 -0.40714834137E+03  0.44362649357E+03  0.17413105751E+03 0.  0.
         24    2    5    5    0    0 -0.80576506025E+00  0.18866985327E+02 -0.38636328485E+03  0.39546602887E+03  0.82220312085E+02 0.  0.
          5    1    5    5  501    0 -0.14690130084E+02 -0.40614306142E+02 -0.20785056515E+02  0.48160464695E+02  0.47000000000E+01 0. -1.
        -11    1    6    6    0    0 -0.16250371889E+02  0.14799765856E+02 -0.23224938479E+02  0.31976638712E+02  0.00000000000E+00 0.  1.
         12    1    6    6    0    0  0.15444606829E+02  0.40672194709E+01 -0.36313834637E+03  0.36348939016E+03  0.00000000000E+00 0. -1.
         -5    1    3    3    0  503 -0.87948102849E+00  0.17174322706E+02  0.17770588222E+02  0.25171703420E+02  0.47000000000E+01 0.  1.
         11    1    4    4    0    0 -0.50478965512E+01 -0.31700609126E+02 -0.60632982260E+02  0.68605891994E+02  0.00000000000E+00 0. -1.
        -12    1    4    4    0    0  0.21423272724E+02  0.36273607235E+02 -0.20790431142E+03  0.21212952153E+03  0.00000000000E+00 0.  1.
</event>
<event>
12    1  0.1629553E-001  0.2190062E+03  0.7818608E-02  0.1135498E+00
         21   -1    0    0  501  502  0.00000000000E+00  0.00000000000E+00  0.27857755766E+03  0.27857755766E+03  0.00000000000E+00 0. -1.
         21   -1    0    0  502  503 -0.00000000000E+00 -0.00000000000E+00 -0.16884145586E+03  0.16884145586E+03  0.00000000000E+00 0. -1.
         -6    2    1    2    0  503  0.13516457626E+03  0.12153828142E+02  0.45469299063E+02  0.21917806541E+03  0.16599514748E+03 0.  0.
        -24    2    3    3    0    0  0.74672045251E+01  0.32331663540E+02  0.97762432026E+01  0.84977290355E+02  0.77617455087E+02 0.  0.
          6    2    1    2  501    0 -0.13516457626E+03 -0.12153828142E+02  0.64266802741E+02  0.22824094811E+03  0.17189104178E+03 0.  0.
         24    2    5    5    0    0 -0.10976607550E+03  0.51430559068E+02  0.66716139117E+02  0.15956673616E+03  0.79478338775E+02 0.  0.
          5    1    5    5  501    0 -0.25398500755E+02 -0.63584387210E+02 -0.24493363755E+01  0.68674211944E+02  0.47000000000E+01 0. -1.
        -11    1    6    6    0    0 -0.22519016341E+02  0.41409290846E+02  0.52580850386E+02  0.70615729782E+02  0.00000000000E+00 0.  1.
         12    1    6    6    0    0 -0.87247059160E+02  0.10021268222E+02  0.14135288731E+02  0.88951006382E+02  0.00000000000E+00 0. -1.
         -5    1    3    3    0  503  0.12769737173E+03 -0.20177835398E+02  0.35693055861E+02  0.13420077505E+03  0.47000000000E+01 0.  1.
         13    1    4    4    0    0  0.40454182161E+02  0.23498060722E+02 -0.63487925671E+01  0.47212359389E+02  0.00000000000E+00 0. -1.
        -14    1    4    4    0    0 -0.32986977636E+02  0.88336028184E+01  0.16125035770E+02  0.37764930966E+02  0.00000000000E+00 0.  1.
</event>
<event>
12    1  0.1629553E-001  0.1985464E+03  0.7818608E-02  0.1151295E+00
         21   -1    0    0  501  502  0.00000000000E+00  0.00000000000E+00  0.19758752003E+03  0.19758752003E+03  0.00000000000E+00 0. -1.
         21   -1    0    0  502  503 -0.00000000000E+00 -0.00000000000E+00 -0.42385210429E+03  0.42385210429E+03  0.00000000000E+00 0. -1.
         -6    2    1    2    0  503 -0.17300124301E+02 -0.94850570378E+02 -0.34015569150E+03  0.39386111854E+03  0.17356486176E+03 0.  0.
        -24    2    3    3    0    0  0.45567924331E+02 -0.84040498646E+02 -0.27986460132E+03  0.30596143285E+03  0.78415318522E+02 0.  0.
          6    2    1    2  501    0  0.17300124301E+02  0.94850570378E+02  0.11389110724E+03  0.22757850578E+03  0.17182801571E+03 0.  0.
         24    2    5    5    0    0 -0.32276518451E+02  0.92529446788E+01  0.22362388384E+02  0.92728984434E+02  0.83493697435E+02 0.  0.
          5    1    5    5  501    0  0.49576642752E+02  0.85597625699E+02  0.91528718860E+02  0.13484952135E+03  0.47000000000E+01 0. -1.
        -11    1    6    6    0    0 -0.57635499854E+02  0.59077085337E+01  0.31027339787E+02  0.65722505109E+02  0.00000000000E+00 0.  1.
         12    1    6    6    0    0  0.25358981404E+02  0.33452361451E+01 -0.86649514034E+01  0.27006479325E+02  0.00000000000E+00 0. -1.
         -5    1    3    3    0  503 -0.62868048632E+02 -0.10810071732E+02 -0.60291090181E+02  0.87899685693E+02  0.47000000000E+01 0.  1.
         11    1    4    4    0    0  0.34580491600E+02 -0.60183666172E+02 -0.86903595157E+02  0.11122103634E+03  0.00000000000E+00 0. -1.
        -12    1    4    4    0    0  0.10987432731E+02 -0.23856832474E+02 -0.19296100616E+03  0.19474039651E+03  0.00000000000E+00 0.  1.
</event>
<event>
12    1  0.1629553E-001  0.1834158E+03  0.7818608E-02  0.1165062E+00
         21   -1    0    0  501  502  0.00000000000E+00  0.00000000000E+00  0.80046101944E+03  0.80046101944E+03  0.00000000000E+00 0. -1.
         21   -1    0    0  502  503 -0.00000000000E+00 -0.00000000000E+00 -0.58420068543E+02  0.58420068543E+02  0.00000000000E+00 0. -1.
         -6    2    1    2    0  503 -0.23431338880E+02  0.59646102331E+02  0.60357069672E+03  0.63082402813E+03  0.17185657790E+03 0.  0.
        -24    2    3    3    0    0  0.30483005948E+01  0.12261580015E+02  0.54685493855E+03  0.55217778546E+03  0.75434371859E+02 0.  0.
          6    2    1    2  501    0  0.23431338880E+02 -0.59646102331E+02  0.13847025418E+03  0.22805705985E+03  0.16949727458E+03 0.  0.
         24    2    5    5    0    0  0.11397015756E+02 -0.84705854156E+02  0.38465578705E+02  0.12415402230E+03  0.81422643121E+02 0.  0.
          5    1    5    5  501    0  0.12034323125E+02  0.25059751825E+02  0.10000467547E+03  0.10390303754E+03  0.47000000000E+01 0. -1.
        -13    1    6    6    0    0 -0.16367264982E+02 -0.51772524543E+02  0.55674648599E+02  0.77768555067E+02  0.00000000000E+00 0.  1.
         14    1    6    6    0    0  0.27764280738E+02 -0.32933329613E+02 -0.17209069894E+02  0.46385467238E+02  0.00000000000E+00 0. -1.
         -5    1    3    3    0  503 -0.26479639475E+02  0.47384522316E+02  0.56715758166E+02  0.78646242671E+02  0.47000000000E+01 0.  1.
         13    1    4    4    0    0 -0.35651118968E+02  0.45426083925E+01  0.30728432414E+03  0.30937888331E+03  0.00000000000E+00 0. -1.
        -14    1    4    4    0    0  0.38699419563E+02  0.77189716220E+01  0.23957061441E+03  0.24279890215E+03  0.00000000000E+00 0.  1.
</event>
<event>
12    1  0.1629553E-001  0.1722238E+03  0.7818608E-02  0.1176871E+00
         21   -1    0    0  503  502  0.00000000000E+00  0.00000000000E+00  0.13809003912E+03  0.13809003912E+03  0.00000000000E+00 0. -1.
         21   -1    0    0  501  503 -0.00000000000E+00 -0.00000000000E+00 -0.35406901595E+03  0.35406901595E+03  0.00000000000E+00 0. -1.
          6    2    1    2  501    0 -0.14111110360E+02 -0.34602006989E+01 -0.26671029486E+03  0.31748295131E+03  0.17160986732E+03 0.  0.
         24    2    3    3    0    0 -0.38194666327E+02  0.24906068232E+02 -0.53108964785E+02  0.10061367941E+03  0.72273131756E+02 0.  0.
         -6    2    1    2    0  502  0.14111110360E+02  0.34602006989E+01  0.50731318042E+02  0.17467610376E+03  0.16651419810E+03 0.  0.
        -24    2    5    5    0    0 -0.26124892760E+02 -0.37339245688E+02 -0.83830157517E+01  0.92213231919E+02  0.79726256011E+02 0.  0.
          5    1    3    3  501    0  0.24083555967E+02 -0.28366268931E+02 -0.21360133008E+03  0.21686927190E+03  0.47000000000E+01 0. -1.
        -13    1    4    4    0    0 -0.11369774036E+02  0.43315383287E+02 -0.87935612826E+01  0.45637932807E+02  0.00000000000E+00 0.  1.
         14    1    4    4    0    0 -0.26824892291E+02 -0.18409315055E+02 -0.44315403502E+02  0.54975746605E+02  0.00000000000E+00 0. -1.
         -5    1    5    5    0  502  0.40236003120E+02  0.40799446387E+02  0.59114333794E+02  0.82462871842E+02  0.47000000000E+01 0.  1.
         13    1    6    6    0    0  0.70187609670E+01 -0.65473495320E+01  0.30863887911E+02  0.32321979649E+02  0.00000000000E+00 0. -1.
        -14    1    6    6    0    0 -0.33143653727E+02 -0.30791896156E+02 -0.39246903663E+02  0.59891252270E+02  0.00000000000E+00 0.  1.
</event>
<event>
12    1  0.1629553E-001  0.1944527E+03  0.7818608E-02  0.1154679E+00
         21   -1    0    0  501  502  0.00000000000E+00  0.00000000000E+00  0.13799242453E+03  0.13799242453E+03  0.00000000000E+00 0.  1.
         21   -1    0    0  502  503 -0.00000000000E+00 -0.00000000000E+00 -0.27332325640E+03  0.27332325640E+03  0.00000000000E+00 0.  1.
         -6    2    1    2    0  503  0.77308578348E+02 -0.42799402951E+02 -0.75617238442E+02  0.20790091427E+03  0.17232648731E+03 0.  0.
        -24    2    3    3    0    0  0.10241051123E+03  0.46434502882E+01 -0.85785473558E+02  0.15307013493E+03  0.74577773455E+02 0.  0.
          6    2    1    2  501    0 -0.77308578348E+02  0.42799402951E+02 -0.59713593426E+02  0.20341476666E+03  0.17321503651E+03 0.  0.
         24    2    5    5    0    0 -0.11049421569E+03 -0.46240360907E+01 -0.43309623022E+02  0.14307034404E+03  0.79768706190E+02 0.  0.
          5    1    5    5  501    0  0.33185637337E+02  0.47423439042E+02 -0.16403970404E+02  0.60344422618E+02  0.47000000000E+01 0. -1.
        -13    1    6    6    0    0 -0.78504797440E+02  0.34278820075E+02 -0.22449305177E+02  0.88555135536E+02  0.00000000000E+00 0.  1.
         14    1    6    6    0    0 -0.31989418245E+02 -0.38902856165E+02 -0.20860317845E+02  0.54515208503E+02  0.00000000000E+00 0. -1.
         -5    1    3    3    0  503 -0.25101932882E+02 -0.47442853239E+02  0.10168235116E+02  0.54830779342E+02  0.47000000000E+01 0.  1.
         11    1    4    4    0    0  0.28213586945E+02  0.30805480067E+02 -0.53870484876E+02  0.68169004916E+02  0.00000000000E+00 0. -1.
        -12    1    4    4    0    0  0.74196924285E+02 -0.26162029778E+02 -0.31914988683E+02  0.84901130017E+02  0.00000000000E+00 0.  1.
</event>
<event>
12    1  0.1629553E-001  0.1889186E+03  0.7818608E-02  0.1159736E+00
         21   -1    0    0  501  502  0.00000000000E+00  0.00000000000E+00  0.36947410587E+03  0.36947410587E+03  0.00000000000E+00 0. -1.
         21   -1    0    0  502  503 -0.00000000000E+00 -0.00000000000E+00 -0.96647026994E+02  0.96647026994E+02  0.00000000000E+00 0. -1.
         -6    2    1    2    0  503 -0.23679371572E+02  0.73545796441E+02  0.11596295785E+03  0.22056753063E+03  0.17097640528E+03 0.  0.
        -24    2    3    3    0    0  0.42754955722E+02  0.68335752157E+02  0.39279317077E+02  0.11886632530E+03  0.78029336007E+02 0.  0.
          6    2    1    2  501    0  0.23679371572E+02 -0.73545796441E+02  0.15686412103E+03  0.24555360223E+03  0.17239641032E+03 0.  0.
         24    2    5    5    0    0  0.71552164171E+02 -0.85326426156E+01  0.98934285163E+02  0.14607259739E+03  0.79728870180E+02 0.  0.
          5    1    5    5  501    0 -0.47872792599E+02 -0.65013153825E+02  0.57929835864E+02  0.99481004844E+02  0.47000000000E+01 0. -1.
        -13    1    6    6    0    0  0.33456549639E+02  0.31802081989E+01 -0.57158238534E+01  0.34089955709E+02  0.00000000000E+00 0.  1.
         14    1    6    6    0    0  0.38095614532E+02 -0.11712850814E+02  0.10465010902E+03  0.11198264168E+03  0.00000000000E+00 0. -1.
         -5    1    3    3    0  503 -0.66434327294E+02  0.52100442845E+01  0.76683640775E+02  0.10170120534E+03  0.47000000000E+01 0.  1.
         13    1    4    4    0    0  0.35948589943E+02  0.80470854670E+02  0.49973831144E+02  0.10131753732E+03  0.00000000000E+00 0. -1.
        -14    1    4    4    0    0  0.68063657794E+01 -0.12135102513E+02 -0.10694514068E+02  0.17548787972E+02  0.00000000000E+00 0.  1.
</event>
<event>
12    1  0.1629553E-001  0.2542276E+03  0.7818608E-02  0.1110818E+00
         21   -1    0    0  503  502  0.00000000000E+00  0.00000000000E+00  0.13190257278E+04  0.13190257278E+04  0.00000000000E+00 0.  1.
         21   -1    0    0  501  503 -0.00000000000E+00 -0.00000000000E+00 -0.51903648773E+02  0.51903648773E+02  0.00000000000E+00 0. -1.
          6    2    1    2  501    0  0.16348241136E+02 -0.18861052877E+03  0.46492318160E+03  0.52941008206E+03  0.16816739770E+03 0.  0.
         24    2    3    3    0    0  0.11866586828E+02 -0.20402400894E+03  0.46303825455E+03  0.51257845866E+03  0.81028630741E+02 0.  0.
         -6    2    1    2    0  502 -0.16348241136E+02  0.18861052877E+03  0.80219889745E+03  0.84151929453E+03  0.16967750424E+03 0.  0.
        -24    2    5    5    0    0 -0.17932180869E+02  0.55114453993E+02  0.18250641991E+03  0.20759140623E+03  0.80165032792E+02 0.  0.
          5    1    3    3  501    0  0.44816543080E+01  0.15413480171E+02  0.18849270498E+01  0.16831623401E+02  0.47000000000E+01 0. -1.
        -13    1    4    4    0    0 -0.10867252177E+02 -0.41457387563E+02  0.18322779854E+03  0.18817342616E+03  0.00000000000E+00 0.  1.
         14    1    4    4    0    0  0.22733839005E+02 -0.16256662138E+03  0.27981045601E+03  0.32440503251E+03  0.00000000000E+00 0. -1.
         -5    1    5    5    0  502  0.15839397332E+01  0.13349607478E+03  0.61969247753E+03  0.63392788830E+03  0.47000000000E+01 0.  1.
         13    1    6    6    0    0 -0.11634456781E+02 -0.21833634099E+01  0.12705961915E+03  0.12760985259E+03  0.00000000000E+00 0. -1.
        -14    1    6    6    0    0 -0.62977240882E+01  0.57297817402E+02  0.55446800765E+02  0.79981553641E+02  0.00000000000E+00 0.  1.
</event>
<event>
12    1  0.1629553E-001  0.2155793E+03  0.7818608E-02  0.1137683E+00
         21   -1    0    0  503  502  0.00000000000E+00  0.00000000000E+00  0.15287896479E+03  0.15287896479E+03  0.00000000000E+00 0.  1.
         21   -1    0    0  501  503 -0.00000000000E+00 -0.00000000000E+00 -0.35703645942E+03  0.35703645942E+03  0.00000000000E+00 0. -1.
          6    2    1    2  501    0  0.93586714411E+02  0.89526600323E+02 -0.26389999320E+00  0.21318819138E+03  0.16933886152E+03 0.  0.
         24    2    3    3    0    0  0.69412630655E+02  0.10588775970E+03  0.47165595247E+02  0.15729793391E+03  0.80546357385E+02 0.  0.
         -6    2    1    2    0  502 -0.93586714411E+02 -0.89526600323E+02 -0.20389359464E+03  0.29672723283E+03  0.17233968634E+03 0.  0.
        -24    2    5    5    0    0 -0.62356664029E+01 -0.66578077337E+02 -0.17549170478E+03  0.20193484050E+03  0.74221408270E+02 0.  0.
          5    1    3    3  501    0  0.24174083757E+02 -0.16361159374E+02 -0.47429495240E+02  0.55890257472E+02  0.47000000000E+01 0. -1.
        -13    1    4    4    0    0  0.70017504689E+02  0.89966259841E+02  0.66707188673E+02  0.13208416973E+03  0.00000000000E+00 0.  1.
         14    1    4    4    0    0 -0.60487403457E+00  0.15921499856E+02 -0.19541593426E+02  0.25213764176E+02  0.00000000000E+00 0. -1.
         -5    1    5    5    0  502 -0.87351048009E+02 -0.22948522986E+02 -0.28401889859E+02  0.94792392327E+02  0.47000000000E+01 0.  1.
         11    1    6    6    0    0 -0.28981031484E+02 -0.69973250842E+02 -0.12045955699E+03  0.14229076178E+03  0.00000000000E+00 0. -1.
        -12    1    6    6    0    0  0.22745365081E+02  0.33951735056E+01 -0.55032147792E+02  0.59644078720E+02  0.00000000000E+00 0.  1.
</event>
<event>
12    1  0.1629553E-001  0.2746350E+03  0.7818608E-02  0.1098691E+00
         21   -1    0    0  501  502  0.00000000000E+00  0.00000000000E+00  0.51402515523E+03  0.51402515523E+03  0.00000000000E+00 0. -1.
         21   -1    0    0  502  503 -0.00000000000E+00 -0.00000000000E+00 -0.15200984139E+03  0.15200984139E+03  0.00000000000E+00 0. -1.
         -6    2    1    2    0  503  0.19505973610E+03 -0.87765480532E+02  0.11825178034E+03  0.29901144493E+03  0.17225934059E+03 0.  0.
        -24    2    3    3    0    0  0.86226326478E+02 -0.11408524560E+03  0.81034669901E+02  0.18092400109E+03  0.75607233799E+02 0.  0.
          6    2    1    2  501    0 -0.19505973610E+03  0.87765480532E+02  0.24376353350E+03  0.36702355170E+03  0.17185618120E+03 0.  0.
         24    2    5    5    0    0 -0.13682198509E+03  0.38419724332E+02  0.70827257719E+02  0.17793181529E+03  0.80292587658E+02 0.  0.
          5    1    5    5  501    0 -0.58237751006E+02  0.49345756201E+02  0.17293627578E+03  0.18909173641E+03  0.47000000000E+01 0. -1.
        -11    1    6    6    0    0  0.32603991555E+01 -0.11922685740E+02 -0.14738939968E+01  0.12448011947E+02  0.00000000000E+00 0.  1.
         12    1    6    6    0    0 -0.14008238425E+03  0.50342410072E+02  0.72301151716E+02  0.16548380334E+03  0.00000000000E+00 0. -1.
         -5    1    3    3    0  503  0.10883340962E+03  0.26319765063E+02  0.37217110444E+02  0.11808744384E+03  0.47000000000E+01 0.  1.
         11    1    4    4    0    0  0.95682742692E+02 -0.76372595281E+02  0.55570160409E+02  0.13444702781E+03  0.00000000000E+00 0. -1.
        -12    1    4    4    0    0 -0.94564162135E+01 -0.37712650314E+02  0.25464509491E+02  0.46476973277E+02  0.00000000000E+00 0.  1.
</event>
<event>
12    1  0.1629553E-001  0.1856266E+03  0.7818608E-02  0.1162854E+00
         21   -1    0    0  501  502  0.00000000000E+00  0.00000000000E+00  0.15870296754E+03  0.15870296754E+03  0.00000000000E+00 0.  1.
         21   -1    0    0  502  503 -0.00000000000E+00 -0.00000000000E+00 -0.26464449687E+03  0.26464449687E+03  0.00000000000E+00 0. -1.
         -6    2    1    2    0  503  0.66498226992E+02  0.13982902046E+02 -0.14429163810E+03  0.23380076623E+03  0.17095375317E+03 0.  0.
        -24    2    3    3    0    0  0.72241695226E+02  0.39558899547E+02 -0.16427653717E+03  0.20050504178E+03  0.80198017756E+02 0.  0.
          6    2    1    2  501    0 -0.66498226992E+02 -0.13982902046E+02  0.38350108768E+02  0.18954669817E+03  0.17274166898E+03 0.  0.
         24    2    5    5    0    0 -0.35815612023E+02  0.60766988015E+02  0.35377440955E+02  0.10855351525E+03  0.74544734542E+02 0.  0.
          5    1    5    5  501    0 -0.30682614969E+02 -0.74749890061E+02  0.29726678131E+01  0.80993182919E+02  0.47000000000E+01 0. -1.
        -11    1    6    6    0    0  0.16048248687E+01  0.63855129915E+02  0.30185704056E+02  0.70648636284E+02  0.00000000000E+00 0.  1.
         12    1    6    6    0    0 -0.37420436892E+02 -0.30881419005E+01  0.51917368988E+01  0.37904878968E+02  0.00000000000E+00 0. -1.
         -5    1    3    3    0  503 -0.57434682349E+01 -0.25575997501E+02  0.19984899077E+02  0.33295724450E+02  0.47000000000E+01 0.  1.
         11    1    4    4    0    0 -0.42187276072E+01  0.22095528548E+02 -0.88988971857E+02  0.91788055632E+02  0.00000000000E+00 0. -1.
        -12    1    4    4    0    0  0.76460422834E+02  0.17463370999E+02 -0.75287565317E+02  0.10871698615E+03  0.00000000000E+00 0.  1.
</event>
<event>
12    1  0.1629553E-001  0.1982162E+03  0.7818608E-02  0.1151378E+00
         21   -1    0    0  503  502  0.00000000000E+00  0.00000000000E+00  0.10668851431E+03  0.10668851431E+03  0.00000000000E+00 0. -1.
         21   -1    0    0  501  503 -0.00000000000E+00 -0.00000000000E+00 -0.40497670805E+03  0.40497670805E+03  0.00000000000E+00 0. -1.
          6    2    1    2  501    0  0.96698071471E+02  0.13441940508E+02 -0.22749960691E+03  0.30173784225E+03  0.17250638108E+03 0.  0.
         24    2    3    3    0    0  0.44920826844E+02  0.36961071200E+02 -0.22450838271E+03  0.24459705129E+03  0.77715520473E+02 0.  0.
         -6    2    1    2    0  502 -0.96698071471E+02 -0.13441940508E+02 -0.70788586837E+02  0.20992738011E+03  0.17183503165E+03 0.  0.
        -24    2    5    5    0    0 -0.11307974723E+03  0.33592037623E+02 -0.72322026571E+02  0.15987744667E+03  0.80092872343E+02 0.  0.
          5    1    3    3  501    0  0.51777244626E+02 -0.23519130692E+02 -0.29912241946E+01  0.57140790962E+02  0.47000000000E+01 0. -1.
        -13    1    4    4    0    0  0.10094751591E+02  0.54798573272E+02 -0.10533968866E+03  0.11916894583E+03  0.00000000000E+00 0.  1.
         14    1    4    4    0    0  0.34826075254E+02 -0.17837502072E+02 -0.11916869405E+03  0.12542810546E+03  0.00000000000E+00 0. -1.
         -5    1    5    5    0  502  0.16381675762E+02 -0.47033978130E+02  0.15334397339E+01  0.50049933436E+02  0.47000000000E+01 0.  1.
         11    1    6    6    0    0 -0.23815322321E+02  0.29666481746E+01 -0.60103517559E+02  0.64717875441E+02  0.00000000000E+00 0. -1.
        -12    1    6    6    0    0 -0.89264424913E+02  0.30625389448E+02 -0.12218509012E+02  0.95159571228E+02  0.00000000000E+00 0.  1.
</event>
<event>
12    1  0.1629553E-001  0.2404859E+03  0.7818608E-02  0.1119544E+00
         21   -1    0    0  503  502  0.00000000000E+00  0.00000000000E+00  0.61100332205E+02  0.61100332205E+02  0.00000000000E+00 0.  1.
         21   -1    0    0  501  503 -0.00000000000E+00 -0.00000000000E+00 -0.96425511553E+03  0.96425511553E+03  0.00000000000E+00 0.  1.
          6    2    1    2  501    0  0.16241235144E+03  0.43915006805E+02 -0.52486139001E+03  0.57733262884E+03  0.17183476330E+03 0.  0.
         24    2    3    3    0    0  0.16992106976E+03  0.78861139901E+02 -0.43892622216E+03  0.48414166284E+03  0.81514856757E+02 0.  0.
         -6    2    1    2    0  502 -0.16241235144E+03 -0.43915006805E+02 -0.37829339331E+03  0.44802281889E+03  0.17120822148E+03 0.  0.
        -24    2    5    5    0    0 -0.27002781667E+02  0.17658958763E+02 -0.18448772432E+03  0.20366686510E+03  0.80021762489E+02 0.  0.
          5    1    3    3  501    0 -0.75087183209E+01 -0.34946133096E+02 -0.85935167856E+02  0.93190965998E+02  0.47000000000E+01 0. -1.
        -11    1    4    4    0    0  0.78761506461E+02  0.43968953180E+01 -0.24398347497E+03  0.25641888317E+03  0.00000000000E+00 0.  1.
         12    1    4    4    0    0  0.91159563295E+02  0.74464244583E+02 -0.19494274718E+03  0.22772277967E+03  0.00000000000E+00 0. -1.
         -5    1    5    5    0  502 -0.13540956977E+03 -0.61573965568E+02 -0.19380566899E+03  0.24435595380E+03  0.47000000000E+01 0.  1.
         13    1    6    6    0    0  0.31224571023E+01  0.44516233222E+02 -0.79169077646E+02  0.90880072700E+02  0.00000000000E+00 0. -1.
        -14    1    6    6    0    0 -0.30125238770E+02 -0.26857274459E+02 -0.10531864667E+03  0.11278679240E+03  0.00000000000E+00 0.  1.
</event>
<event>
12    1  0.1629553E-001  0.2768376E+03  0.7818608E-02  0.1098519E+00
         21   -1    0    0  501  502  0.00000000000E+00  0.00000000000E+00  0.41760805967E+04  0.41760805967E+04  0.00000000000E+00 0.  1.
         21   -1    0    0  502  503 -0.00000000000E+00 -0.00000000000E+00 -0.18975719958E+02  0.18975719958E+02  0.00000000000E+00 0. -1.
         -6    2    1    2    0  503  0.21571009125E+03 -0.65554006123E+01  0.25634893835E+04  0.25775738932E+04  0.16073437328E+03 0.  0.
        -24    2    3    3    0    0  0.70972692317E+02 -0.56931873012E+02  0.88281666282E+03  0.88992179999E+03  0.65705317319E+02 0.  0.
          6    2    1    2  501    0 -0.21571009125E+03  0.65554006123E+01  0.15936154933E+04  0.16174824235E+04  0.17339329055E+03 0.  0.
         24    2    5    5    0    0 -0.22397698462E+03 -0.20924891834E+02  0.15129135734E+04  0.15317013191E+04  0.81227517924E+02 0.  0.
          5    1    5    5  501    0  0.82668933657E+01  0.27480292446E+02  0.80701919836E+02  0.85781104353E+02  0.47000000000E+01 0. -1.
        -11    1    6    6    0    0 -0.12349212338E+03  0.68049282219E+01  0.10463801532E+04  0.10536641005E+04  0.00000000000E+00 0.  1.
         12    1    6    6    0    0 -0.10048486124E+03 -0.27729820056E+02  0.46653342023E+03  0.47803721868E+03  0.00000000000E+00 0. -1.
         -5    1    3    3    0  503  0.14473739894E+03  0.50376472400E+02  0.16806727207E+04  0.16876520932E+04  0.47000000000E+01 0.  1.
         13    1    4    4    0    0 -0.12868358785E+02 -0.80612180252E+01  0.12032329738E+03  0.12127767225E+03  0.00000000000E+00 0. -1.
        -14    1    4    4    0    0  0.83841051101E+02 -0.48870654987E+02  0.76249336544E+03  0.76864412774E+03  0.00000000000E+00 0.  1.
</event>
<event>
12    1  0.1629553E-001  0.2197950E+03  0.7818608E-02  0.1134074E+00
         21   -1    0    0  501  502  0.00000000000E+00  0.00000000000E+00  0.31671204338E+03  0.31671204338E+03  0.00000000000E+00 0. -1.
         21   -1    0    0  502  503 -0.00000000000E+00 -0.00000000000E+00 -0.15524719237E+03  0.15524719237E+03  0.00000000000E+00 0.  1.
         -6    2    1    2    0  503  0.13480916268E+03  0.21138077666E+02  0.48777980143E+02  0.22514244584E+03  0.17230641573E+03 0.  0.
        -24    2    3    3    0    0  0.12380774489E+03  0.70642243736E+01 -0.13768477918E+02  0.15992546986E+03  0.10004161117E+03 0.  0.
          6    2    1    2  501    0 -0.13480916268E+03 -0.21138077666E+02  0.11268687087E+03  0.24681678992E+03  0.17204612244E+03 0.  0.
         24    2    5    5    0    0 -0.14977697279E+03 -0.57912124917E+02  0.87762824597E+02  0.19970347998E+03  0.79951302337E+02 0.  0.
          5    1    5    5  501    0  0.14967810105E+02  0.36774047251E+02  0.24924046271E+02  0.47113309935E+02  0.47000000000E+01 0. -1.
        -11    1    6    6    0    0 -0.10300674974E+02  0.11597212634E+02 -0.73177289949E+01  0.17150755186E+02  0.00000000000E+00 0.  1.
         12    1    6    6    0    0 -0.13947629781E+03 -0.69509337552E+02  0.95080553592E+02  0.18255272479E+03  0.00000000000E+00 0. -1.
         -5    1    3    3    0  503  0.11001417792E+02  0.14073853293E+02  0.62546458061E+02  0.65216975980E+02  0.47000000000E+01 0.  1.
         11    1    4    4    0    0  0.33548968624E+02 -0.23120744417E+01  0.41700450029E+02  0.53570575100E+02  0.00000000000E+00 0. -1.
        -12    1    4    4    0    0  0.90258776265E+02  0.93762988153E+01 -0.55468927947E+02  0.10635489476E+03  0.00000000000E+00 0.  1.
</event>
<event>
12    1  0.1629553E-001  0.1798435E+03  0.7818608E-02  0.1168084E+00
         21   -1    0    0  503  502  0.00000000000E+00  0.00000000000E+00  0.31640019302E+04  0.31640019302E+04  0.00000000000E+00 0.  1.
         21   -1    0    0  501  503 -0.00000000000E+00 -0.00000000000E+00 -0.10319892568E+02  0.10319892568E+02  0.00000000000E+00 0.  1.
          6    2    1    2  501    0 -0.35436640930E+02  0.34829463650E+02  0.13978994407E+04  0.14093526419E+04  0.17228806063E+03 0.  0.
         24    2    3    3    0    0 -0.91936034482E+02  0.25756099071E+02  0.93636150975E+03  0.94425710426E+03  0.75716516899E+02 0.  0.
         -6    2    1    2    0  502  0.35436640930E+02 -0.34829463650E+02  0.17557825969E+04  0.17649691808E+04  0.17284338201E+03 0.  0.
        -24    2    5    5    0    0 -0.21520227968E+02 -0.38365179884E+02  0.15049150327E+04  0.15076499026E+04  0.79397517830E+02 0.  0.
          5    1    3    3  501    0  0.56499393552E+02  0.90733645793E+01  0.46153793099E+03  0.46509553767E+03  0.47000000000E+01 0. -1.
        -13    1    4    4    0    0 -0.83987737664E+02 -0.42051418033E+01  0.52123969705E+03  0.52797958774E+03  0.00000000000E+00 0.  1.
         14    1    4    4    0    0 -0.79482968178E+01  0.29961240874E+02  0.41512181270E+03  0.41627751652E+03  0.00000000000E+00 0. -1.
         -5    1    5    5    0  502  0.56956868898E+02  0.35357162338E+01  0.25086756414E+03  0.25731927822E+03  0.47000000000E+01 0.  1.
         11    1    6    6    0    0 -0.41598293897E+02 -0.41619474402E+02  0.69720164274E+03  0.69968044803E+03  0.00000000000E+00 0. -1.
        -12    1    6    6    0    0  0.20078065929E+02  0.32542945184E+01  0.80771339000E+03  0.80796945459E+03  0.00000000000E+00 0.  1.
</event>
<event>
12    1  0.1629553E-001  0.1877241E+03  0.7818608E-02  0.1160540E+00
         21   -1    0    0  503  502  0.00000000000E+00  0.00000000000E+00  0.22301963538E+03  0.22301963538E+03  0.00000000000E+00 0.  1.
         21   -1    0    0  501  503 -0.00000000000E+00 -0.00000000000E+00 -0.16397158366E+03  0.16397158366E+03  0.00000000000E+00 0. -1.
          6    2    1    2  501    0  0.74036252776E+02 -0.69464153778E+01 -0.74728027001E+01  0.18782957368E+03  0.17232088253E+03 0.  0.
         24    2    3    3    0    0  0.73883423948E+02  0.48268710429E+02 -0.38235895170E+02  0.12444825677E+03  0.78973135901E+02 0.  0.
         -6    2    1    2    0  502 -0.74036252776E+02  0.69464153778E+01  0.66520854418E+02  0.19916164535E+03  0.17236797120E+03 0.  0.
        -24    2    5    5    0    0 -0.10039814708E+03  0.32655554013E+02  0.82760776873E+01  0.13009317717E+03  0.75561684331E+02 0.  0.
          5    1    3    3  501    0  0.15282882797E+00 -0.55215125806E+02  0.30763092470E+02  0.63381316906E+02  0.47000000000E+01 0. -1.
        -11    1    4    4    0    0  0.58531127039E+02  0.42945162977E+02  0.10246296530E+02  0.73315526651E+02  0.00000000000E+00 0.  1.
         12    1    4    4    0    0  0.15352296910E+02  0.53235474513E+01 -0.48482191700E+02  0.51132730124E+02  0.00000000000E+00 0. -1.
         -5    1    5    5    0  502  0.26361894307E+02 -0.25709138636E+02  0.58244776731E+02  0.69068468184E+02  0.47000000000E+01 0.  1.
         11    1    6    6    0    0 -0.59176687414E+02  0.18848097263E+02 -0.32842636933E+02  0.70255034727E+02  0.00000000000E+00 0. -1.
        -12    1    6    6    0    0 -0.41221459668E+02  0.13807456751E+02  0.41118714620E+02  0.59838142444E+02  0.00000000000E+00 0.  1.
</event>
<event>
12    1  0.1629553E-001  0.2049260E+03  0.7818608E-02  0.1145732E+00
         21   -1    0    0  501  502  0.00000000000E+00  0.00000000000E+00  0.57838837881E+02  0.57838837881E+02  0.00000000000E+00 0.  1.
         21   -1    0    0  502  503 -0.00000000000E+00 -0.00000000000E+00 -0.15440264312E+04  0.15440264312E+04  0.00000000000E+00 0. -1.
         -6    2    1    2    0  503  0.10968352871E+03 -0.10639438129E+02 -0.13262167320E+04  0.13418934928E+04  0.17228944154E+03 0.  0.
        -24    2    3    3    0    0  0.13783307757E+03  0.42812247257E+01 -0.12363853629E+04  0.12464639997E+04  0.77507746472E+02 0.  0.
          6    2    1    2  501    0 -0.10968352871E+03  0.10639438129E+02 -0.15997086132E+03  0.25997177629E+03  0.17277434381E+03 0.  0.
         24    2    5    5    0    0 -0.22885883099E+02 -0.45344074507E+02 -0.10254579073E+03  0.14170211110E+03  0.83570331797E+02 0.  0.
          5    1    5    5  501    0 -0.86797645607E+02  0.55983512636E+02 -0.57425070595E+02  0.11826966518E+03  0.47000000000E+01 0. -1.
        -11    1    6    6    0    0 -0.52476588550E+02 -0.28622254097E+02 -0.44814266389E+02  0.74708394759E+02  0.00000000000E+00 0.  1.
         12    1    6    6    0    0  0.29590705452E+02 -0.16721820410E+02 -0.57731524339E+02  0.66993716343E+02  0.00000000000E+00 0. -1.
         -5    1    3    3    0  503 -0.28149548860E+02 -0.14920662855E+02 -0.89831369070E+02  0.95429493083E+02  0.47000000000E+01 0.  1.
         13    1    4    4    0    0  0.65618593764E+02 -0.15139727499E+02 -0.86543730940E+03  0.86805342445E+03  0.00000000000E+00 0. -1.
        -14    1    4    4    0    0  0.72214483801E+02  0.19420952225E+02 -0.37094805354E+03  0.37841057528E+03  0.00000000000E+00 0.  1.
</event>
<event>
12    1  0.1629553E-001  0.1785135E+03  0.7818608E-02  0.1170890E+00
         21   -1    0    0  503  502  0.00000000000E+00  0.00000000000E+00  0.65774350323E+03  0.65774350323E+03  0.00000000000E+00 0.  1.
         21   -1    0    0  501  503 -0.00000000000E+00 -0.00000000000E+00 -0.86210453841E+02  0.86210453841E+02  0.00000000000E+00 0.  1.
          6    2    1    2  501    0  0.32054510093E+01 -0.10860287858E+02  0.31007363930E+02  0.17471315576E+03  0.17156634113E+03 0.  0.
         24    2    3    3    0    0 -0.49778661956E+02  0.35162337906E+02  0.27034047914E+02  0.10426263731E+03  0.80159544658E+02 0.  0.
         -6    2    1    2    0  502 -0.32054510093E+01  0.10860287858E+02  0.54052568546E+03  0.56924080131E+03  0.17815401334E+03 0.  0.
        -24    2    5    5    0    0 -0.33583787697E+02  0.32034158415E+01  0.12709713817E+03  0.15460032483E+03  0.81298494671E+02 0.  0.
          5    1    3    3  501    0  0.52984112965E+02 -0.46022625765E+02  0.39733160157E+01  0.70450518445E+02  0.47000000000E+01 0. -1.
        -11    1    4    4    0    0 -0.77116222222E+01  0.32145593224E+02  0.47111388246E+02  0.57552508056E+02  0.00000000000E+00 0.  1.
         12    1    4    4    0    0 -0.42067039733E+02  0.30167446820E+01 -0.20077340332E+02  0.46710129257E+02  0.00000000000E+00 0. -1.
         -5    1    5    5    0  502  0.30378336688E+02  0.76568720170E+01  0.41342854729E+03  0.41464047648E+03  0.47000000000E+01 0.  1.
         13    1    6    6    0    0 -0.42705248438E+02  0.34441487140E+02  0.70729245604E+02  0.89513018406E+02  0.00000000000E+00 0. -1.
        -14    1    6    6    0    0  0.91214607407E+01 -0.31238071298E+02  0.56367892567E+02  0.65087306419E+02  0.00000000000E+00 0.  1.
</event>
<event>
12    1  0.1629553E-001  0.3127963E+03  0.7818608E-02  0.1079048E+00
         21   -1    0    0  503  502  0.00000000000E+00  0.00000000000E+00  0.25074352368E+03  0.25074352368E+03  0.00000000000E+00 0. -1.
         21   -1    0    0  501  503 -0.00000000000E+00 -0.00000000000E+00 -0.48348302188E+03  0.48348302188E+03  0.00000000000E+00 0. -1.
          6    2    1    2  501    0  0.19601845261E+03 -0.17266205565E+03 -0.27789350994E+03  0.41818791169E+03  0.17152523834E+03 0.  0.
         24    2    3    3    0    0  0.73104342184E+02 -0.52420180734E+02 -0.19323748692E+03  0.22647270817E+03  0.76531307323E+02 0.  0.
         -6    2    1    2    0  502 -0.19601845261E+03  0.17266205565E+03  0.45154011738E+02  0.31603863387E+03  0.17206427316E+03 0.  0.
        -24    2    5    5    0    0 -0.97150977996E+02  0.15822979224E+03  0.68446156331E+02  0.21333672657E+03  0.79703845015E+02 0.  0.
          5    1    3    3  501    0  0.12291411042E+03 -0.12024187492E+03 -0.84656023020E+02  0.19171520352E+03  0.47000000000E+01 0. -1.
        -13    1    4    4    0    0  0.70254369909E+01  0.18953587330E+02 -0.25088462901E+02  0.32218414118E+02  0.00000000000E+00 0.  1.
         14    1    4    4    0    0  0.66078905193E+02 -0.71373768064E+02 -0.16814902402E+03  0.19425429406E+03  0.00000000000E+00 0. -1.
         -5    1    5    5    0  502 -0.98867474610E+02  0.14432263418E+02 -0.23292144593E+02  0.10270190730E+03  0.47000000000E+01 0.  1.
         11    1    6    6    0    0 -0.71812657209E+02  0.91960071444E+02  0.79977514368E+02  0.14145711463E+03  0.00000000000E+00 0. -1.
        -12    1    6    6    0    0 -0.25338320788E+02  0.66269720793E+02 -0.11531358037E+02  0.71879611939E+02  0.00000000000E+00 0.  1.
</event>
<event>
12    1  0.1629553E-001  0.2305069E+03  0.7818608E-02  0.1126794E+00
         21   -1    0    0  501  502  0.00000000000E+00  0.00000000000E+00  0.61523076049E+03  0.61523076049E+03  0.00000000000E+00 0. -1.
         21   -1    0    0  502  503 -0.00000000000E+00 -0.00000000000E+00 -0.97962265739E+02  0.97962265739E+02  0.00000000000E+00 0. -1.
         -6    2    1    2    0  503  0.13928115514E+03 -0.54398009115E+02  0.38549533355E+03  0.44767915771E+03  0.17161466280E+03 0.  0.
        -24    2    3    3    0    0  0.87520199589E+02 -0.39761882972E+02  0.11158847731E+03  0.16850095548E+03  0.81852251375E+02 0.  0.
          6    2    1    2  501    0 -0.13928115514E+03  0.54398009115E+02  0.13177316121E+03  0.26551386852E+03  0.17542823259E+03 0.  0.
         24    2    5    5    0    0 -0.13706250942E+03  0.27363370358E+02  0.15872999347E+03  0.22698394655E+03  0.82411259170E+02 0.  0.
          5    1    5    5  501    0 -0.22186457207E+01  0.27034638756E+02 -0.26956832262E+02  0.38529921971E+02  0.47000000000E+01 0. -1.
        -13    1    6    6    0    0 -0.49480842876E+02 -0.89202522087E+01  0.10876225918E+03  0.11982134089E+03  0.00000000000E+00 0.  1.
         14    1    6    6    0    0 -0.87581666548E+02  0.36283622567E+02  0.49967734292E+02  0.10716260566E+03  0.00000000000E+00 0. -1.
         -5    1    3    3    0  503  0.51760955555E+02 -0.14636126143E+02  0.27390685624E+03  0.27917820223E+03  0.47000000000E+01 0.  1.
         11    1    4    4    0    0  0.10668432188E+02 -0.11957262326E+01  0.73802292177E+02  0.74578975168E+02  0.00000000000E+00 0. -1.
        -12    1    4    4    0    0  0.76851767402E+02 -0.38566156739E+02  0.37786185132E+02  0.93921980309E+02  0.00000000000E+00 0.  1.
</event>
<event>
12    1  0.1629553E-001  0.1776293E+03  0.7818608E-02  0.1171455E+00
         21   -1    0    0  503  502  0.00000000000E+00  0.00000000000E+00  0.76922224498E+02  0.76922224498E+02  0.00000000000E+00 0.  1.
         21   -1    0    0  501  503 -0.00000000000E+00 -0.00000000000E+00 -0.63592478501E+03  0.63592478501E+03  0.00000000000E+00 0.  1.
          6    2    1    2  501    0 -0.28897587620E+02 -0.30235073794E+02 -0.50019967902E+03  0.53080305038E+03  0.17263524886E+03 0.  0.
         24    2    3    3    0    0  0.86864712321E+01 -0.30975637809E+02 -0.47990075876E+03  0.48782344965E+03  0.81437306305E+02 0.  0.
         -6    2    1    2    0  502  0.28897587620E+02  0.30235073794E+02 -0.58802881494E+02  0.18204395913E+03  0.16713166643E+03 0.  0.
        -24    2    5    5    0    0 -0.29695329886E+02  0.56716207269E+02 -0.56711995558E+02  0.11753936847E+03  0.80626992476E+02 0.  0.
          5    1    3    3  501    0 -0.37584058852E+02  0.74056401441E+00 -0.20298920262E+02  0.42979600727E+02  0.47000000000E+01 0. -1.
        -13    1    4    4    0    0 -0.23297794982E+02  0.44458972952E+01 -0.32188929882E+03  0.32276194625E+03  0.00000000000E+00 0.  1.
         14    1    4    4    0    0  0.31984266214E+02 -0.35421535104E+02 -0.15801145994E+03  0.16506150340E+03  0.00000000000E+00 0. -1.
         -5    1    5    5    0  502  0.58592917506E+02 -0.26481133475E+02 -0.20908859359E+01  0.64504590658E+02  0.47000000000E+01 0.  1.
         11    1    6    6    0    0  0.13197531514E+02 -0.14006975157E+02 -0.17458015132E+02  0.25983696493E+02  0.00000000000E+00 0. -1.
        -12    1    6    6    0    0 -0.42892861399E+02  0.70723182427E+02 -0.39253980427E+02  0.91555671976E+02  0.00000000000E+00 0.  1.
</event>
<event>
12    1  0.1629553E-001  0.1981958E+03  0.7818608E-02  0.1151430E+00
         21   -1    0    0  501  502  0.00000000000E+00  0.00000000000E+00  0.21905320197E+03  0.21905320197E+03  0.00000000000E+00 0.  1.
         21   -1    0    0  502  503 -0.00000000000E+00 -0.00000000000E+00 -0.20712917733E+03  0.20712917733E+03  0.00000000000E+00 0. -1.
         -6    2    1    2    0  503  0.68023061316E+02  0.75037966746E+02 -0.73045763885E+02  0.21122801296E+03  0.17036360091E+03 0.  0.
        -24    2    3    3    0    0  0.36725337113E+02  0.91674212882E+02 -0.10350371561E+03  0.16425899073E+03  0.80716077693E+02 0.  0.
          6    2    1    2  501    0 -0.68023061316E+02 -0.75037966746E+02  0.84969788521E+02  0.21495436634E+03  0.16949242261E+03 0.  0.
         24    2    5    5    0    0 -0.18192343308E+02  0.19841589538E+02  0.48207653085E+02  0.10155782645E+03  0.85237106160E+02 0.  0.
          5    1    5    5  501    0 -0.49830718008E+02 -0.94879556284E+02  0.36762135436E+02  0.11339653989E+03  0.47000000000E+01 0. -1.
        -11    1    6    6    0    0 -0.17588384269E+02  0.92385466536E+01  0.72432256991E+02  0.75107482040E+02  0.00000000000E+00 0.  1.
         12    1    6    6    0    0 -0.60395903941E+00  0.10603042884E+02 -0.24224603906E+02  0.26450344409E+02  0.00000000000E+00 0. -1.
         -5    1    3    3    0  503  0.31297724203E+02 -0.16636246135E+02  0.30457951726E+02  0.46969022228E+02  0.47000000000E+01 0.  1.
         11    1    4    4    0    0 -0.78215099431E+01  0.24283769449E+02 -0.73970953317E+02  0.78246913108E+02  0.00000000000E+00 0. -1.
        -12    1    4    4    0    0  0.44546847056E+02  0.67390443433E+02 -0.29532762294E+02  0.86012077625E+02  0.00000000000E+00 0.  1.
</event>
<event>
12    1  0.1629553E-001  0.1852470E+03  0.7818608E-02  0.1165314E+00
         21   -1    0    0  503  502  0.00000000000E+00  0.00000000000E+00  0.76974962484E+03  0.76974962484E+03  0.00000000000E+00 0.  1.
         21   -1    0    0  501  503 -0.00000000000E+00 -0.00000000000E+00 -0.76318125067E+02  0.76318125067E+02  0.00000000000E+00 0.  1.
          6    2    1    2  501    0  0.70361319333E+01 -0.33228381555E+02  0.58077595958E+02  0.18425883728E+03  0.17153623370E+03 0.  0.
         24    2    3    3    0    0  0.17834559119E+02 -0.87534684826E+02  0.38972132870E+02  0.12549754624E+03  0.79059562524E+02 0.  0.
         -6    2    1    2    0  502 -0.70361319333E+01  0.33228381555E+02  0.63535390382E+03  0.66180891263E+03  0.18210662054E+03 0.  0.
        -24    2    5    5    0    0  0.54437461608E+02 -0.25112682133E+02  0.37217033292E+03  0.38527615796E+03  0.79579376437E+02 0.  0.
          5    1    3    3  501    0 -0.10798427186E+02  0.54306303272E+02  0.19105463088E+02  0.58761291039E+02  0.47000000000E+01 0. -1.
        -13    1    4    4    0    0  0.26293327451E+02 -0.51851159758E+02 -0.15189665773E+02  0.60088333168E+02  0.00000000000E+00 0.  1.
         14    1    4    4    0    0 -0.84587683317E+01 -0.35683525069E+02  0.54161798643E+02  0.65409213077E+02  0.00000000000E+00 0. -1.
         -5    1    5    5    0  502 -0.61473593541E+02  0.58341063687E+02  0.26318357090E+03  0.27653275467E+03  0.47000000000E+01 0.  1.
         13    1    6    6    0    0  0.58607443285E+02 -0.93702308703E+01  0.13407448455E+03  0.14662401250E+03  0.00000000000E+00 0. -1.
        -14    1    6    6    0    0 -0.41699816770E+01 -0.15742451262E+02  0.23809584837E+03  0.23865214546E+03  0.00000000000E+00 0.  1.
</event>
<event>
12    1  0.1629553E-001  0.2079930E+03  0.7818608E-02  0.1143302E+00
         21   -1    0    0  501  502  0.00000000000E+00  0.00000000000E+00  0.13128853707E+03  0.13128853707E+03  0.00000000000E+00 0.  1.
         21   -1    0    0  502  503 -0.00000000000E+00 -0.00000000000E+00 -0.35443628925E+03  0.35443628925E+03  0.00000000000E+00 0.  1.
         -6    2    1    2    0  503 -0.80960574165E+02  0.83404562225E+02 -0.17752764306E+03  0.27345414284E+03  0.17248237190E+03 0.  0.
        -24    2    3    3    0    0 -0.41557174957E+02 -0.82965304105E+01 -0.13964820067E+03  0.16659601065E+03  0.80354088912E+02 0.  0.
          6    2    1    2  501    0  0.80960574165E+02 -0.83404562225E+02 -0.45620109127E+02  0.21227068348E+03  0.17165871123E+03 0.  0.
         24    2    5    5    0    0  0.97145651474E+02 -0.35520133635E+02  0.17404230899E+02  0.13134458964E+03  0.79054009897E+02 0.  0.
          5    1    5    5  501    0 -0.16185077310E+02 -0.47884428590E+02 -0.63024340026E+02  0.80926093843E+02  0.47000000000E+01 0. -1.
        -13    1    6    6    0    0  0.45679105312E+02 -0.51502639926E+02 -0.12114062501E+02  0.69898877614E+02  0.00000000000E+00 0.  1.
         14    1    6    6    0    0  0.51466546163E+02  0.15982506290E+02  0.29518293400E+02  0.61445712027E+02  0.00000000000E+00 0. -1.
         -5    1    3    3    0  503 -0.39403399208E+02  0.91701092636E+02 -0.37879442386E+02  0.10685813219E+03  0.47000000000E+01 0.  1.
         13    1    4    4    0    0 -0.36339923755E+02 -0.18553407810E+02 -0.18325096169E+02  0.44728381923E+02  0.00000000000E+00 0. -1.
        -14    1    4    4    0    0 -0.52172512021E+01  0.10256877399E+02 -0.12132310451E+03  0.12186762872E+03  0.00000000000E+00 0.  1.
</event>
<event>
12    1  0.1629553E-001  0.1793741E+03  0.7818608E-02  0.1168795E+00
         21   -1    0    0  501  502  0.00000000000E+00  0.00000000000E+00  0.44495717086E+03  0.44495717086E+03  0.00000000000E+00 0. -1.
         21   -1    0    0  502  503 -0.00000000000E+00 -0.00000000000E+00 -0.10246085623E+03  0.10246085623E+03  0.00000000000E+00 0. -1.
         -6    2    1    2    0  503  0.35266024194E+02 -0.30357424640E+02  0.21747960770E+02  0.18068764916E+03  0.17323333128E+03 0.  0.
        -24    2    3    3    0    0  0.11342758620E+02 -0.77143241223E+02 -0.19819230886E+02  0.11352250424E+03  0.80092566555E+02 0.  0.
          6    2    1    2  501    0 -0.35266024194E+02  0.30357424640E+02  0.32074835387E+03  0.36673037793E+03  0.17159952767E+03 0.  0.
         24    2    5    5    0    0  0.40992442149E+02 -0.91291057595E+01  0.19325325613E+03  0.21293951436E+03  0.78947418487E+02 0.  0.
          5    1    5    5  501    0 -0.76258466343E+02  0.39486530400E+02  0.12749509774E+03  0.15379086358E+03  0.47000000000E+01 0. -1.
        -11    1    6    6    0    0  0.48566878697E+02 -0.23059456377E+02  0.67997725261E+02  0.86684317356E+02  0.00000000000E+00 0.  1.
         12    1    6    6    0    0 -0.75744365483E+01  0.13930350617E+02  0.12525553087E+03  0.12625519700E+03  0.00000000000E+00 0. -1.
         -5    1    3    3    0  503  0.23923265574E+02  0.46785816583E+02  0.41567191656E+02  0.67165144913E+02  0.47000000000E+01 0.  1.
         13    1    4    4    0    0 -0.33168700074E+02 -0.39255441469E+02 -0.19786230779E+02  0.55069476827E+02  0.00000000000E+00 0. -1.
        -14    1    4    4    0    0  0.44511458693E+02 -0.37887799754E+02 -0.33000106789E-01  0.58453027417E+02  0.00000000000E+00 0.  1.
</event>
<event>
12    1  0.1629553E-001  0.1847822E+03  0.7818608E-02  0.1163496E+00
         21   -1    0    0  501  502  0.00000000000E+00  0.00000000000E+00  0.52882396038E+02  0.52882396038E+02  0.00000000000E+00 0. -1.
         21   -1    0    0  502  503 -0.00000000000E+00 -0.00000000000E+00 -0.85235646198E+03  0.85235646198E+03  0.00000000000E+00 0. -1.
         -6    2    1    2    0  503 -0.21458598133E+02  0.62067670992E+02 -0.62371195474E+03  0.65021579023E+03  0.17161324005E+03 0.  0.
        -24    2    3    3    0    0 -0.15783137974E+02  0.75385254049E+02 -0.62474743274E+03  0.63496026398E+03  0.83265467880E+02 0.  0.
          6    2    1    2  501    0  0.21458598133E+02 -0.62067670992E+02 -0.17576211120E+03  0.25502306779E+03  0.17271820447E+03 0.  0.
         24    2    5    5    0    0 -0.23833400316E+02 -0.18405395014E+02 -0.17207853239E+03  0.19182956955E+03  0.79251327471E+02 0.  0.
          5    1    5    5  501    0  0.45291998449E+02 -0.43662275978E+02 -0.36835788085E+01  0.63193498241E+02  0.47000000000E+01 0. -1.
        -13    1    6    6    0    0  0.28782372480E+02 -0.14970075926E+00 -0.51132734164E+02  0.58677115462E+02  0.00000000000E+00 0.  1.
         14    1    6    6    0    0 -0.52615772796E+02 -0.18255694255E+02 -0.12094579823E+03  0.13315245408E+03  0.00000000000E+00 0. -1.
         -5    1    3    3    0  503 -0.56754601589E+01 -0.13317583057E+02  0.10354780011E+01  0.15255526251E+02  0.47000000000E+01 0.  1.
         13    1    4    4    0    0  0.21432179169E+02  0.72645986493E+02 -0.39383691630E+03  0.40105397928E+03  0.00000000000E+00 0. -1.
        -14    1    4    4    0    0 -0.37215317143E+02  0.27392675561E+01 -0.23091051644E+03  0.23390628470E+03  0.00000000000E+00 0.  1.
</event>
<event>
12    1  0.1629553E-001  0.2160922E+03  0.7818608E-02  0.1137143E+00
         21   -1    0    0  503  502  0.00000000000E+00  0.00000000000E+00  0.55378618167E+03  0.55378618167E+03  0.00000000000E+00 0.  1.
         21   -1    0    0  501  503 -0.00000000000E+00 -0.00000000000E+00 -0.87875194461E+02  0.87875194461E+02  0.00000000000E+00 0. -1.
          6    2    1    2  501    0  0.12713980130E+03 -0.18024517952E+02  0.16374275842E+03  0.27112275664E+03  0.17380001700E+03 0.  0.
         24    2    3    3    0    0  0.11890836472E+02 -0.40479427026E+02  0.10826511547E+03  0.14117505292E+03  0.80181571031E+02 0.  0.
         -6    2    1    2    0  502 -0.12713980130E+03  0.18024517952E+02  0.30216822879E+03  0.37053861950E+03  0.17176675384E+03 0.  0.
        -24    2    5    5    0    0 -0.15405436680E+03  0.16783735978E+02  0.29431944987E+03  0.34208467941E+03  0.79897106277E+02 0.  0.
          5    1    3    3  501    0  0.11524896483E+03  0.22454909074E+02  0.55477642943E+02  0.12994770372E+03  0.47000000000E+01 0. -1.
        -13    1    4    4    0    0  0.17398924102E+02 -0.55338447295E+02  0.38476128994E+02  0.69609473574E+02  0.00000000000E+00 0.  1.
         14    1    4    4    0    0 -0.55080876298E+01  0.14859020269E+02  0.69788986480E+02  0.71565579343E+02  0.00000000000E+00 0. -1.
         -5    1    5    5    0  502  0.26914565498E+02  0.12407819741E+01  0.78487789213E+01  0.28453940086E+02  0.47000000000E+01 0.  1.
         11    1    6    6    0    0 -0.50588511770E+02 -0.29669219357E+02  0.75319178819E+02  0.95459094896E+02  0.00000000000E+00 0. -1.
        -12    1    6    6    0    0 -0.10346585503E+03  0.46452955334E+02  0.21900027105E+03  0.24662558452E+03  0.00000000000E+00 0.  1.
</event>
<event>
12    1  0.1629553E-001  0.4902865E+03  0.7818608E-02  0.1016376E+00
         21   -1    0    0  503  502  0.00000000000E+00  0.00000000000E+00  0.85591084812E+03  0.85591084812E+03  0.00000000000E+00 0. -1.
         21   -1    0    0  501  503 -0.00000000000E+00 -0.00000000000E+00 -0.62191084250E+03  0.62191084250E+03  0.00000000000E+00 0.  1.
          6    2    1    2  501    0  0.40059251923E+02  0.45665379387E+03 -0.43042899684E+03  0.65208154196E+03  0.17263772741E+03 0.  0.
         24    2    3    3    0    0  0.63518437026E+02  0.35005430144E+03 -0.25421167183E+03  0.44474505028E+03  0.81252568263E+02 0.  0.
         -6    2    1    2    0  502 -0.40059251923E+02 -0.45665379387E+03  0.66442900246E+03  0.82574014866E+03  0.17390647683E+03 0.  0.
        -24    2    5    5    0    0  0.35520266569E+02 -0.30919981440E+03  0.38879333003E+03  0.50410051554E+03  0.78043973081E+02 0.  0.
          5    1    3    3  501    0 -0.23459185104E+02  0.10659949243E+03 -0.17621732500E+03  0.20733649168E+03  0.47000000000E+01 0. -1.
        -13    1    4    4    0    0  0.17688277925E+02  0.16354721965E+03 -0.16495938968E+03  0.23296387805E+03  0.00000000000E+00 0.  1.
         14    1    4    4    0    0  0.45830159101E+02  0.18650708179E+03 -0.89252282156E+02  0.21178117223E+03  0.00000000000E+00 0. -1.
         -5    1    5    5    0  502 -0.75579518491E+02 -0.14745397947E+03  0.27563567243E+03  0.32163963312E+03  0.47000000000E+01 0.  1.
         13    1    6    6    0    0 -0.67058116670E+01 -0.22534153971E+03  0.25122961319E+03  0.33755013846E+03  0.00000000000E+00 0. -1.
        -14    1    6    6    0    0  0.42226078236E+02 -0.83858274692E+02  0.13756371684E+03  0.16655037709E+03  0.00000000000E+00 0.  1.
</event>
<event>
12    1  0.1629553E-001  0.1846718E+03  0.7818608E-02  0.1163530E+00
         21   -1    0    0  503  502  0.00000000000E+00  0.00000000000E+00  0.44342676065E+03  0.44342676065E+03  0.00000000000E+00 0.  1.
         21   -1    0    0  501  503 -0.00000000000E+00 -0.00000000000E+00 -0.12036722572E+03  0.12036722572E+03  0.00000000000E+00 0.  1.
          6    2    1    2  501    0 -0.54537622480E+02 -0.39179374336E+02 -0.86573424778E+01  0.18413656992E+03  0.17123653571E+03 0.  0.
         24    2    3    3    0    0 -0.89065638137E+02 -0.66657024891E+02 -0.20337058959E+02  0.13824854400E+03  0.79518658737E+02 0.  0.
         -6    2    1    2    0  502  0.54537622480E+02  0.39179374336E+02  0.33171687740E+03  0.37965741645E+03  0.17202991447E+03 0.  0.
        -24    2    5    5    0    0  0.54489527731E+02  0.29907534995E+02  0.79329056162E+02  0.12705561197E+03  0.77372217873E+02 0.  0.
          5    1    3    3  501    0  0.34528015657E+02  0.27477650556E+02  0.11679716481E+02  0.45888025915E+02  0.47000000000E+01 0. -1.
        -13    1    4    4    0    0 -0.19692838380E+02  0.18130029043E+02  0.30689492201E+00  0.26769385892E+02  0.00000000000E+00 0.  1.
         14    1    4    4    0    0 -0.69372799758E+02 -0.84787053934E+02 -0.20643953881E+02  0.11147915811E+03  0.00000000000E+00 0. -1.
         -5    1    5    5    0  502  0.48094749151E-01  0.92718393403E+01  0.25238782124E+03  0.25260180449E+03  0.47000000000E+01 0.  1.
         11    1    6    6    0    0  0.69055838797E+02  0.44637170120E+01  0.62524232700E+02  0.93262604061E+02  0.00000000000E+00 0. -1.
        -12    1    6    6    0    0 -0.14566311066E+02  0.25443817983E+02  0.16804823462E+02  0.33793007905E+02  0.00000000000E+00 0.  1.
</event>
<event>
12    1  0.1629553E-001  0.1961617E+03  0.7818608E-02  0.1153370E+00
         21   -1    0    0  501  502  0.00000000000E+00  0.00000000000E+00  0.73700114833E+03  0.73700114833E+03  0.00000000000E+00 0. -1.
         21   -1    0    0  502  503 -0.00000000000E+00 -0.00000000000E+00 -0.12425201075E+03  0.12425201075E+03  0.00000000000E+00 0. -1.
         -6    2    1    2    0  503  0.46382170808E+02 -0.78844555684E+02 -0.23029985736E+02  0.19590023211E+03  0.17169377091E+03 0.  0.
        -24    2    3    3    0    0  0.70333986655E+02 -0.82727342763E+02 -0.63113542847E+02  0.14880939364E+03  0.79813742077E+02 0.  0.
          6    2    1    2  501    0 -0.46382170808E+02  0.78844555684E+02  0.63577912331E+03  0.66535292696E+03  0.17352709887E+03 0.  0.
         24    2    5    5    0    0 -0.71202294021E+02  0.11103240054E+03  0.52963296718E+03  0.55159356543E+03  0.79664426572E+02 0.  0.
          5    1    5    5  501    0  0.24820123214E+02 -0.32187844856E+02  0.10614615614E+03  0.11375936153E+03  0.47000000000E+01 0. -1.
        -11    1    6    6    0    0 -0.51456790180E+02  0.14736184776E+02  0.23410206965E+03  0.24014315608E+03  0.00000000000E+00 0.  1.
         12    1    6    6    0    0 -0.19745503841E+02  0.96296215764E+02  0.29553089753E+03  0.31145040935E+03  0.00000000000E+00 0. -1.
         -5    1    3    3    0  503 -0.23951815848E+02  0.38827870786E+01  0.40083557111E+02  0.47090838478E+02  0.47000000000E+01 0.  1.
         11    1    4    4    0    0  0.24990292284E+02 -0.38932177186E+02 -0.71553818218E+02  0.85206678320E+02  0.00000000000E+00 0. -1.
        -12    1    4    4    0    0  0.45343694372E+02 -0.43795165577E+02  0.84402753711E+01  0.63602715316E+02  0.00000000000E+00 0.  1.
</event>
<event>
12    1  0.1629553E-001  0.2041123E+03  0.7818608E-02  0.1148037E+00
         21   -1    0    0  501  502  0.00000000000E+00  0.00000000000E+00  0.23885676283E+03  0.23885676283E+03  0.00000000000E+00 0.  1.
         21   -1    0    0  502  503 -0.00000000000E+00 -0.00000000000E+00 -0.17713947320E+03  0.17713947320E+03  0.00000000000E+00 0.  1.
         -6    2    1    2    0  503  0.14926598904E+02  0.92949921123E+02  0.80005818392E+02  0.21923221276E+03  0.18110588323E+03 0.  0.
        -24    2    3    3    0    0  0.74962625161E+02  0.66840576888E+02  0.22178534410E+02  0.13175588980E+03  0.82344819016E+02 0.  0.
          6    2    1    2  501    0 -0.14926598904E+02 -0.92949921123E+02 -0.18288528755E+02  0.19676402327E+03  0.17181129002E+03 0.  0.
         24    2    5    5    0    0  0.15374970260E+02  0.13950948899E+02  0.90246584316E+01  0.82247293930E+02  0.79070564772E+02 0.  0.
          5    1    5    5  501    0 -0.30301569163E+02 -0.10690087002E+03 -0.27313187187E+02  0.11451672934E+03  0.47000000000E+01 0. -1.
        -13    1    6    6    0    0  0.17832475705E+02 -0.91545439715E+01 -0.30441856880E+02  0.36448724469E+02  0.00000000000E+00 0.  1.
         14    1    6    6    0    0 -0.24575054452E+01  0.23105492871E+02  0.39466515312E+02  0.45798569461E+02  0.00000000000E+00 0. -1.
         -5    1    3    3    0  503 -0.60036026257E+02  0.26109344235E+02  0.57827283982E+02  0.87476322956E+02  0.47000000000E+01 0.  1.
         11    1    4    4    0    0  0.27469957932E+02  0.43853048571E+02 -0.28090798000E+02  0.58879380007E+02  0.00000000000E+00 0. -1.
        -12    1    4    4    0    0  0.47492667229E+02  0.22987528317E+02  0.50269332411E+02  0.72876509793E+02  0.00000000000E+00 0.  1.
</event>
<event>
12    1  0.1629553E-001  0.1800919E+03  0.7818608E-02  0.1168261E+00
         21   -1    0    0  501  502  0.00000000000E+00  0.00000000000E+00  0.78728553306E+03  0.78728553306E+03  0.00000000000E+00 0.  1.
         21   -1    0    0  502  503 -0.00000000000E+00 -0.00000000000E+00 -0.65263959880E+02  0.65263959880E+02  0.00000000000E+00 0. -1.
         -6    2    1    2    0  503 -0.38844573920E+02  0.28617666601E+02  0.62120036032E+03  0.64615665827E+03  0.17117437776E+03 0.  0.
        -24    2    3    3    0    0 -0.69102000610E+02  0.71266133640E+01  0.22510634366E+03  0.24829997896E+03  0.78448317313E+02 0.  0.
          6    2    1    2  501    0  0.38844573920E+02 -0.28617666601E+02  0.10082121286E+03  0.20639283467E+03  0.17350854006E+03 0.  0.
         24    2    5    5    0    0  0.16026180410E+02 -0.75045710829E+02  0.20908590120E+02  0.11108092751E+03  0.77544220566E+02 0.  0.
          5    1    5    5  501    0  0.22818393510E+02  0.46428044228E+02  0.79912622738E+02  0.95311907158E+02  0.47000000000E+01 0. -1.
        -13    1    6    6    0    0  0.34713250976E+02 -0.39636053519E+01  0.10789486585E+01  0.34955458671E+02  0.00000000000E+00 0.  1.
         14    1    6    6    0    0 -0.18687070565E+02 -0.71082105477E+02  0.19829641462E+02  0.76125468838E+02  0.00000000000E+00 0. -1.
         -5    1    3    3    0  503  0.30257426689E+02  0.21491053237E+02  0.39609401666E+03  0.39785667932E+03  0.47000000000E+01 0.  1.
         13    1    4    4    0    0 -0.28528826822E+02  0.34981012026E+02  0.54651484121E+02  0.70882648644E+02  0.00000000000E+00 0. -1.
        -14    1    4    4    0    0 -0.40573173788E+02 -0.27854398662E+02  0.17045485953E+03  0.17741733031E+03  0.00000000000E+00 0.  1.
</event>
<event>
12    1  0.1629553E-001  0.4203201E+03  0.7818608E-02  0.1036980E+00
         21   -1    0    0  503  502  0.00000000000E+00  0.00000000000E+00  0.50850402441E+03  0.50850402441E+03  0.00000000000E+00 0. -1.
         21   -1    0    0  501  503 -0.00000000000E+00 -0.00000000000E+00 -0.37347474135E+03  0.37347474135E+03  0.00000000000E+00 0.  1.
          6    2    1    2  501    0 -0.37187427508E+03  0.92598490987E+02 -0.49367095581E+02  0.42298965255E+03  0.17209932898E+03 0.  0.
         24    2    3    3    0    0 -0.20571628498E+03  0.11983505448E+03 -0.33841005255E+02  0.25383452391E+03  0.81284203282E+02 0.  0.
         -6    2    1    2    0  502  0.37187427508E+03 -0.92598490987E+02  0.18439637864E+03  0.45898911321E+03  0.17263842152E+03 0.  0.
        -24    2    5    5    0    0  0.34689631172E+03 -0.12446488006E+03  0.18041688102E+03  0.41803436003E+03  0.79836819533E+02 0.  0.
          5    1    3    3  501    0 -0.16615799010E+03 -0.27236563489E+02 -0.15526090327E+02  0.16915512864E+03  0.47000000000E+01 0. -1.
        -13    1    4    4    0    0 -0.14841908914E+03  0.57674848056E+02  0.81528544730E+01  0.15943990453E+03  0.00000000000E+00 0.  1.
         14    1    4    4    0    0 -0.57297195844E+02  0.62160206420E+02 -0.41993859728E+02  0.94394619384E+02  0.00000000000E+00 0. -1.
         -5    1    5    5    0  502  0.24977963358E+02  0.31866389077E+02  0.39794976208E+01  0.40954753175E+02  0.47000000000E+01 0.  1.
         11    1    6    6    0    0  0.28837204503E+03 -0.69108785740E+02  0.14116298636E+03  0.32842266874E+03  0.00000000000E+00 0. -1.
        -12    1    6    6    0    0  0.58524266691E+02 -0.55356094324E+02  0.39253894666E+02  0.89611691297E+02  0.00000000000E+00 0.  1.
</event>
<event>
12    1  0.1629553E-001  0.1738508E+03  0.7818608E-02  0.1174139E+00
         21   -1    0    0  501  502  0.00000000000E+00  0.00000000000E+00  0.37005395108E+02  0.37005395108E+02  0.00000000000E+00 0. -1.
         21   -1    0    0  502  503 -0.00000000000E+00 -0.00000000000E+00 -0.22277012423E+04  0.22277012423E+04  0.00000000000E+00 0. -1.
         -6    2    1    2    0  503  0.19802307099E+02  0.22440282595E+01 -0.19968607254E+04  0.20043296569E+04  0.17171910124E+03 0.  0.
        -24    2    3    3    0    0 -0.31450615631E+00 -0.13750866178E+01 -0.42401485223E+03  0.43134395607E+03  0.79164535935E+02 0.  0.
          6    2    1    2  501    0 -0.19802307099E+02 -0.22440282595E+01 -0.19383512179E+03  0.26037698054E+03  0.17270480747E+03 0.  0.
         24    2    5    5    0    0 -0.61825484397E+02 -0.12147764983E+02 -0.55748321722E+02  0.11562171885E+03  0.79312973599E+02 0.  0.
          5    1    5    5  501    0  0.42023177298E+02  0.99037367236E+01 -0.13808680007E+03  0.14475526168E+03  0.47000000000E+01 0. -1.
        -11    1    6    6    0    0 -0.42255691188E+01 -0.32826722555E+02 -0.39052779076E+00  0.33099874018E+02  0.00000000000E+00 0.  1.
         12    1    6    6    0    0 -0.57599915278E+02  0.20678957572E+02 -0.55357793931E+02  0.82521844836E+02  0.00000000000E+00 0. -1.
         -5    1    3    3    0  503  0.20116813255E+02  0.36191148774E+01 -0.15728458732E+04  0.15729857008E+04  0.47000000000E+01 0.  1.
         11    1    4    4    0    0 -0.14747299512E+02  0.46479328560E+01 -0.41015727459E+03  0.41044862775E+03  0.00000000000E+00 0. -1.
        -12    1    4    4    0    0  0.14432793356E+02 -0.60230194739E+01 -0.13857577644E+02  0.20895328325E+02  0.00000000000E+00 0.  1.
</event>
<event>
12    1  0.1629553E-001  0.2115378E+03  0.7818608E-02  0.1140666E+00
         21   -1    0    0  501  502  0.00000000000E+00  0.00000000000E+00  0.25947971594E+03  0.25947971594E+03  0.00000000000E+00 0. -1.
         21   -1    0    0  502  503 -0.00000000000E+00 -0.00000000000E+00 -0.17571647018E+03  0.17571647018E+03  0.00000000000E+00 0. -1.
         -6    2    1    2    0  503  0.24342311851E+02 -0.12015652001E+03  0.77064212177E+02  0.22513807572E+03  0.17238945122E+03 0.  0.
        -24    2    3    3    0    0  0.78113540409E+01 -0.14209089842E+03  0.23251037166E+02  0.16453826278E+03  0.79255211337E+02 0.  0.
          6    2    1    2  501    0 -0.24342311851E+02  0.12015652001E+03  0.66990335843E+01  0.21005811041E+03  0.17043883141E+03 0.  0.
         24    2    5    5    0    0 -0.10957751458E+02 -0.58911582106E+01 -0.69336788116E+01  0.82484192667E+02  0.81245234174E+02 0.  0.
          5    1    5    5  501    0 -0.13384560393E+02  0.12604767822E+03  0.13632712396E+02  0.12757391774E+03  0.47000000000E+01 0. -1.
        -13    1    6    6    0    0  0.17864888447E+02 -0.13827890275E+02 -0.34882463367E+02  0.41559006716E+02  0.00000000000E+00 0.  1.
         14    1    6    6    0    0 -0.28822639905E+02  0.79367320643E+01  0.27948784556E+02  0.40925185951E+02  0.00000000000E+00 0. -1.
         -5    1    3    3    0  503  0.16530957810E+02  0.21934378416E+02  0.53813175010E+02  0.60599812931E+02  0.47000000000E+01 0.  1.
         11    1    4    4    0    0 -0.26327421263E+02 -0.11846212662E+03  0.16305727864E+02  0.12244298802E+03  0.00000000000E+00 0. -1.
        -12    1    4    4    0    0  0.34138775304E+02 -0.23628771800E+02  0.69453093018E+01  0.42095274763E+02  0.00000000000E+00 0.  1.
</event>
<event>
12    1  0.1629553E-001  0.2204928E+03  0.7818608E-02  0.1133588E+00
         21   -1    0    0  501  502  0.00000000000E+00  0.00000000000E+00  0.11579379227E+03  0.11579379227E+03  0.00000000000E+00 0. -1.
         21   -1    0    0  502  503 -0.00000000000E+00 -0.00000000000E+00 -0.62205183380E+03  0.62205183380E+03  0.00000000000E+00 0. -1.
         -6    2    1    2    0  503 -0.65980352816E+02  0.12126450966E+03 -0.46369246099E+03  0.51328179227E+03  0.17143223627E+03 0.  0.
        -24    2    3    3    0    0 -0.33631257511E+02 -0.50538097839E+00 -0.12339042447E+03  0.15037417827E+03  0.79094119560E+02 0.  0.
          6    2    1    2  501    0  0.65980352816E+02 -0.12126450966E+03 -0.42565580541E+02  0.22456383381E+03  0.17192614271E+03 0.  0.
         24    2    5    5    0    0 -0.29720942202E+02 -0.70460946713E+02  0.69247093428E+01  0.10535343716E+03  0.72134012123E+02 0.  0.
          5    1    5    5  501    0  0.95701295018E+02 -0.50803562950E+02 -0.49490289884E+02  0.11921039665E+03  0.47000000000E+01 0. -1.
        -13    1    6    6    0    0 -0.30165415723E+01  0.15026590265E+02  0.35304323053E+01  0.15727742696E+02  0.00000000000E+00 0.  1.
         14    1    6    6    0    0 -0.26704400630E+02 -0.85487536978E+02  0.33942770376E+01  0.89625694464E+02  0.00000000000E+00 0. -1.
         -5    1    3    3    0  503 -0.32349095305E+02  0.12176989064E+03 -0.34030203652E+03  0.36290761399E+03  0.47000000000E+01 0.  1.
         11    1    4    4    0    0 -0.59313686847E+02 -0.75795671842E+00 -0.75332207352E+02  0.95883415721E+02  0.00000000000E+00 0. -1.
        -12    1    4    4    0    0  0.25682429336E+02  0.25257574003E+00 -0.48058217117E+02  0.54490762552E+02  0.00000000000E+00 0.  1.
</event>
<event>
12    1  0.1629553E-001  0.1978872E+03  0.7818608E-02  0.1152801E+00
         21   -1    0    0  501  502  0.00000000000E+00  0.00000000000E+00  0.87575028195E+03  0.87575028195E+03  0.00000000000E+00 0.  1.
         21   -1    0    0  502  503 -0.00000000000E+00 -0.00000000000E+00 -0.12962614789E+03  0.12962614789E+03  0.00000000000E+00 0. -1.
         -6    2    1    2    0  503 -0.15948456461E+02  0.82204770321E+02 -0.38762374967E+02  0.19592835718E+03  0.17283929503E+03 0.  0.
        -24    2    3    3    0    0  0.24516924157E+02 -0.56701960550E+01 -0.49261753316E+02  0.98502571632E+02  0.81503408425E+02 0.  0.
          6    2    1    2  501    0  0.15948456461E+02 -0.82204770321E+02  0.78488650903E+03  0.80944807266E+03  0.17929688437E+03 0.  0.
         24    2    5    5    0    0  0.77886724158E+02 -0.75603694048E+02  0.51572545919E+03  0.53313360694E+03  0.80476289921E+02 0.  0.
          5    1    5    5  501    0 -0.61938267697E+02 -0.66010762737E+01  0.26916104985E+03  0.27631446572E+03  0.47000000000E+01 0. -1.
        -11    1    6    6    0    0 -0.44288065935E+01 -0.30308688070E+02  0.23762050437E+03  0.23958659186E+03  0.00000000000E+00 0.  1.
         12    1    6    6    0    0  0.82315530752E+02 -0.45295005977E+02  0.27810495481E+03  0.29354701508E+03  0.00000000000E+00 0. -1.
         -5    1    3    3    0  503 -0.40465380619E+02  0.87874966376E+02  0.10499378349E+02  0.97425785550E+02  0.47000000000E+01 0.  1.
         13    1    4    4    0    0 -0.69313272434E+01 -0.35720420595E+01 -0.63457682354E+02  0.63934968770E+02  0.00000000000E+00 0. -1.
        -14    1    4    4    0    0  0.31448251401E+02 -0.20981539955E+01  0.14195929039E+02  0.34567602862E+02  0.00000000000E+00 0.  1.
</event>
<event>
12    1  0.1629553E-001  0.1882081E+03  0.7818608E-02  0.1160331E+00
         21   -1    0    0  503  502  0.00000000000E+00  0.00000000000E+00  0.55533486434E+02  0.55533486434E+02  0.00000000000E+00 0. -1.
         21   -1    0    0  501  503 -0.00000000000E+00 -0.00000000000E+00 -0.10798788678E+04  0.10798788678E+04  0.00000000000E+00 0.  1.
          6    2    1    2  501    0  0.30219480761E+02 -0.69023324591E+02 -0.87600581594E+03  0.89577324339E+03  0.17130696913E+03 0.  0.
         24    2    3    3    0    0  0.52346240281E+02 -0.70893245578E+02 -0.85947058785E+03  0.86769133001E+03  0.80203314497E+02 0.  0.
         -6    2    1    2    0  502 -0.30219480761E+02  0.69023324591E+02 -0.14833956542E+03  0.23963911083E+03  0.17246692557E+03 0.  0.
        -24    2    5    5    0    0 -0.25391510505E+02  0.79210663050E+01 -0.15684796548E+03  0.17758044394E+03  0.78905371789E+02 0.  0.
          5    1    3    3  501    0 -0.22126759520E+02  0.18699209872E+01 -0.16535228083E+02  0.28081913381E+02  0.47000000000E+01 0. -1.
        -13    1    4    4    0    0 -0.79560422591E+01  0.13158645971E+02 -0.13490095551E+03  0.13577450560E+03  0.00000000000E+00 0.  1.
         14    1    4    4    0    0  0.60302282540E+02 -0.84051891549E+02 -0.72456963234E+03  0.73191682441E+03  0.00000000000E+00 0. -1.
         -5    1    5    5    0  502 -0.48279702564E+01  0.61102258286E+02  0.85084000614E+01  0.62058666889E+02  0.47000000000E+01 0.  1.
         11    1    6    6    0    0 -0.33635500632E+02 -0.49549938478E+01 -0.19119218112E+02  0.39005683791E+02  0.00000000000E+00 0. -1.
        -12    1    6    6    0    0  0.82439901277E+01  0.12876060153E+02 -0.13772874737E+03  0.13857476015E+03  0.00000000000E+00 0.  1.
</event>
<event>
12    1  0.1629553E-001  0.2027362E+03  0.7818608E-02  0.1147748E+00
         21   -1    0    0  501  502  0.00000000000E+00  0.00000000000E+00  0.70263414571E+03  0.70263414571E+03  0.00000000000E+00 0.  1.
         21   -1    0    0  502  503 -0.00000000000E+00 -0.00000000000E+00 -0.76732728637E+02  0.76732728637E+02  0.00000000000E+00 0.  1.
         -6    2    1    2    0  503  0.10378922265E+03  0.15149607417E+02  0.12001503906E+03  0.23436872969E+03  0.17182368438E+03 0.  0.
        -24    2    3    3    0    0  0.28388725260E+02 -0.50837028870E+02  0.45419733758E+02  0.10936464677E+03  0.80668150601E+02 0.  0.
          6    2    1    2  501    0 -0.10378922265E+03 -0.15149607417E+02  0.50588637801E+03  0.54499814465E+03  0.17349419840E+03 0.  0.
         24    2    5    5    0    0 -0.15809889230E+02 -0.25539704889E+01  0.39302577449E+03  0.40126707980E+03  0.79306585800E+02 0.  0.
          5    1    5    5  501    0 -0.87979333418E+02 -0.12595636928E+02  0.11286060351E+03  0.14373106485E+03  0.47000000000E+01 0. -1.
        -13    1    6    6    0    0 -0.38188956139E+02 -0.10129274255E+02  0.34964097701E+03  0.35186618390E+03  0.00000000000E+00 0.  1.
         14    1    6    6    0    0  0.22379066910E+02  0.75753037663E+01  0.43384797484E+02  0.49400895899E+02  0.00000000000E+00 0. -1.
         -5    1    3    3    0  503  0.75400497387E+02  0.65986636286E+02  0.74595305306E+02  0.12500408293E+03  0.47000000000E+01 0.  1.
         11    1    4    4    0    0 -0.33861175901E+01 -0.36796953895E+02  0.60978370344E+02  0.71301074733E+02  0.00000000000E+00 0. -1.
        -12    1    4    4    0    0  0.31774842851E+02 -0.14040074974E+02 -0.15558636586E+02  0.38063572033E+02  0.00000000000E+00 0.  1.
</event>
<event>
12    1  0.1629553E-001  0.2592927E+03  0.7818608E-02  0.1107746E+00
         21   -1    0    0  501  502  0.00000000000E+00  0.00000000000E+00  0.70699769893E+03  0.70699769893E+03  0.00000000000E+00 0.  1.
         21   -1    0    0  502  503 -0.00000000000E+00 -0.00000000000E+00 -0.24038621078E+03  0.24038621078E+03  0.00000000000E+00 0.  1.
         -6    2    1    2    0  503 -0.18725665410E+03  0.43871057456E+02 -0.13529330800E+03  0.29246707525E+03  0.17390510841E+03 0.  0.
        -24    2    3    3    0    0 -0.19936088170E+02 -0.11573338881E+02 -0.45462491452E+02  0.94573370276E+02  0.79661122588E+02 0.  0.
          6    2    1    2  501    0  0.18725665410E+03 -0.43871057456E+02  0.60190479614E+03  0.65491683445E+03  0.17215386211E+03 0.  0.
         24    2    5    5    0    0  0.85239605468E+02 -0.34341148871E+02  0.48148880283E+03  0.49673845788E+03  0.80451994622E+02 0.  0.
          5    1    5    5  501    0  0.10201704863E+03 -0.95299085843E+01  0.12041599332E+03  0.15817837657E+03  0.47000000000E+01 0. -1.
        -13    1    6    6    0    0  0.41501475598E+02  0.46252264331E+01  0.73237217171E+02  0.84305724451E+02  0.00000000000E+00 0.  1.
         14    1    6    6    0    0  0.43738129870E+02 -0.38966375304E+02  0.40825158566E+03  0.41243273342E+03  0.00000000000E+00 0. -1.
         -5    1    3    3    0  503 -0.16732056593E+03  0.55444396337E+02 -0.89830816545E+02  0.19789370498E+03  0.47000000000E+01 0.  1.
         11    1    4    4    0    0  0.13814482675E+02 -0.15243534121E+02 -0.55484500789E+02  0.59175460217E+02  0.00000000000E+00 0. -1.
        -12    1    4    4    0    0 -0.33750570845E+02  0.36701952397E+01  0.10022009337E+02  0.35397910060E+02  0.00000000000E+00 0.  1.
</event>
<event>
12    1  0.1629553E-001  0.1978669E+03  0.7818608E-02  0.1151802E+00
         21   -1    0    0  501  502  0.00000000000E+00  0.00000000000E+00  0.57416437361E+03  0.57416437361E+03  0.00000000000E+00 0. -1.
         21   -1    0    0  502  503 -0.00000000000E+00 -0.00000000000E+00 -0.78625015028E+02  0.78625015028E+02  0.00000000000E+00 0.  1.
         -6    2    1    2    0  503 -0.75087712920E+02  0.58701228235E+02  0.12721932844E+03  0.23523619504E+03  0.17339928229E+03 0.  0.
        -24    2    3    3    0    0 -0.41990692123E+02 -0.46247907236E+02  0.60254623449E+02  0.10633276011E+03  0.61432475752E+02 0.  0.
          6    2    1    2  501    0  0.75087712920E+02 -0.58701228235E+02  0.36832003015E+03  0.41755319360E+03  0.17206692319E+03 0.  0.
         24    2    5    5    0    0  0.10025925640E+02  0.23191489403E+02  0.22753608903E+03  0.24210616045E+03  0.78767739282E+02 0.  0.
          5    1    5    5  501    0  0.65061787280E+02 -0.81892717637E+02  0.14078394112E+03  0.17544703315E+03  0.47000000000E+01 0. -1.
        -13    1    6    6    0    0  0.23885237991E+02  0.92348739505E+01  0.17190936920E+02  0.30843407771E+02  0.00000000000E+00 0.  1.
         14    1    6    6    0    0 -0.13859312350E+02  0.13956615452E+02  0.21034515211E+03  0.21126275268E+03  0.00000000000E+00 0. -1.
         -5    1    3    3    0  503 -0.33097020797E+02  0.10494913547E+03  0.66964704991E+02  0.12890343493E+03  0.47000000000E+01 0.  1.
         11    1    4    4    0    0 -0.12724428859E+02  0.10157244314E+02  0.33767846500E+02  0.37487973526E+02  0.00000000000E+00 0. -1.
        -12    1    4    4    0    0 -0.29266263264E+02 -0.56405151549E+02  0.26486776950E+02  0.68844786585E+02  0.00000000000E+00 0.  1.
</event>
<event>
12    1  0.1629553E-001  0.2004620E+03  0.7818608E-02  0.1149628E+00
         21   -1    0    0  501  502  0.00000000000E+00  0.00000000000E+00  0.64676546191E+03  0.64676546191E+03  0.00000000000E+00 0. -1.
         21   -1    0    0  502  503 -0.00000000000E+00 -0.00000000000E+00 -0.62739750070E+02  0.62739750070E+02  0.00000000000E+00 0. -1.
         -6    2    1    2    0  503  0.40953213080E+02  0.90925874900E+02  0.24781687353E+03  0.31874473829E+03  0.17389745539E+03 0.  0.
        -24    2    3    3    0    0  0.85013213307E+02  0.89264049191E+02  0.13663933324E+03  0.19905104276E+03  0.75866285792E+02 0.  0.
          6    2    1    2  501    0 -0.40953213080E+02 -0.90925874900E+02  0.33620883831E+03  0.39076047369E+03  0.17237367680E+03 0.  0.
         24    2    5    5    0    0 -0.11708876931E+02 -0.11910483375E+03  0.18116469772E+03  0.23041690366E+03  0.77124850533E+02 0.  0.
          5    1    5    5  501    0 -0.29244336149E+02  0.28178958854E+02  0.15504414059E+03  0.16034357003E+03  0.47000000000E+01 0. -1.
        -13    1    6    6    0    0 -0.23152989414E+01 -0.33579407798E+01  0.68488661144E+02  0.68610007148E+02  0.00000000000E+00 0.  1.
         14    1    6    6    0    0 -0.93935779891E+01 -0.11574689297E+03  0.11267603658E+03  0.16180689651E+03  0.00000000000E+00 0. -1.
         -5    1    3    3    0  503 -0.44060000228E+02  0.16618257084E+01  0.11117754029E+03  0.11969369553E+03  0.47000000000E+01 0.  1.
         13    1    4    4    0    0  0.21158321241E+02  0.76728746542E+02  0.78428114757E+02  0.11174052214E+03  0.00000000000E+00 0. -1.
        -14    1    4    4    0    0  0.63854892066E+02  0.12535302649E+02  0.58211218479E+02  0.87310520615E+02  0.00000000000E+00 0.  1.
</event>
<event>
12    1  0.1629553E-001  0.2324577E+03  0.7818608E-02  0.1125040E+00
         21   -1    0    0  501  502  0.00000000000E+00  0.00000000000E+00  0.54489737440E+02  0.54489737440E+02  0.00000000000E+00 0.  1.
         21   -1    0    0  502  503 -0.00000000000E+00 -0.00000000000E+00 -0.11544027353E+04  0.11544027353E+04  0.00000000000E+00 0. -1.
         -6    2    1    2    0  503 -0.62691546964E+02 -0.14257124462E+03 -0.32170112958E+03  0.39689822963E+03  0.17256824176E+03 0.  0.
        -24    2    3    3    0    0 -0.66953946762E+02 -0.16712347679E+03 -0.31327603396E+03  0.37017647085E+03  0.80471477160E+02 0.  0.
          6    2    1    2  501    0  0.62691546964E+02  0.14257124462E+03 -0.77821186832E+03  0.81199424314E+03  0.17165124249E+03 0.  0.
         24    2    5    5    0    0  0.73644239994E+02  0.47333371437E+02 -0.57712299724E+03  0.58917360216E+03  0.79941587490E+02 0.  0.
          5    1    5    5  501    0 -0.10952693030E+02  0.95237873180E+02 -0.20108887108E+03  0.22282064097E+03  0.47000000000E+01 0. -1.
        -13    1    6    6    0    0  0.37471576558E+01 -0.20639641939E+02 -0.11051239180E+03  0.11248566464E+03  0.00000000000E+00 0.  1.
         14    1    6    6    0    0  0.69897082338E+02  0.67973013376E+02 -0.46661060544E+03  0.47668793752E+03  0.00000000000E+00 0. -1.
         -5    1    3    3    0  503  0.42623997980E+01  0.24552232169E+02 -0.84250956176E+01  0.26721758787E+02  0.47000000000E+01 0.  1.
         13    1    4    4    0    0  0.20240110396E+01 -0.78460292968E+01 -0.74716462513E+02  0.75154551206E+02  0.00000000000E+00 0. -1.
        -14    1    4    4    0    0 -0.68977957802E+02 -0.15927744749E+03 -0.23855957145E+03  0.29502191964E+03  0.00000000000E+00 0.  1.
</event>
<event>
12    1  0.1629553E-001  0.1767460E+03  0.7818608E-02  0.1171617E+00
         21   -1    0    0  501  502  0.00000000000E+00  0.00000000000E+00  0.21311292220E+03  0.21311292220E+03  0.00000000000E+00 0.  1.
         21   -1    0    0  502  503 -0.00000000000E+00 -0.00000000000E+00 -0.21664715462E+03  0.21664715462E+03  0.00000000000E+00 0.  1.
         -6    2    1    2    0  503 -0.37976235223E+02 -0.14311070296E+02 -0.12575158245E+03  0.21487351934E+03  0.16944074968E+03 0.  0.
        -24    2    3    3    0    0  0.62410835808E+01 -0.17149919533E+02 -0.14485431670E+03  0.16639429902E+03  0.79819914890E+02 0.  0.
          6    2    1    2  501    0  0.37976235223E+02  0.14311070296E+02  0.12221735003E+03  0.21488655748E+03  0.17202369245E+03 0.  0.
         24    2    5    5    0    0 -0.49742967991E+01 -0.26704950116E+02  0.11212916710E+02  0.88905859166E+02  0.83908428084E+02 0.  0.
          5    1    5    5  501    0  0.42950532023E+02  0.41016020412E+02  0.11100443332E+03  0.12598069831E+03  0.47000000000E+01 0. -1.
        -13    1    6    6    0    0 -0.18712446254E+02 -0.65750343983E+01  0.43877114412E+02  0.48151717428E+02  0.00000000000E+00 0.  1.
         14    1    6    6    0    0  0.13738149455E+02 -0.20129915718E+02 -0.32664197702E+02  0.40754141738E+02  0.00000000000E+00 0. -1.
         -5    1    3    3    0  503 -0.44217318804E+02  0.28388492379E+01  0.19102734259E+02  0.48479220326E+02  0.47000000000E+01 0.  1.
         13    1    4    4    0    0  0.94078791231E+01 -0.48679006306E+02 -0.78225761935E+02  0.92614381577E+02  0.00000000000E+00 0. -1.
        -14    1    4    4    0    0 -0.31667955423E+01  0.31529086773E+02 -0.66628554769E+02  0.73779917440E+02  0.00000000000E+00 0.  1.
</event>
<event>
12    1  0.1629553E-001  0.1735114E+03  0.7818608E-02  0.1174289E+00
         21   -1    0    0  501  502  0.00000000000E+00  0.00000000000E+00  0.13143091258E+03  0.13143091258E+03  0.00000000000E+00 0. -1.
         21   -1    0    0  502  503 -0.00000000000E+00 -0.00000000000E+00 -0.45086048752E+03  0.45086048752E+03  0.00000000000E+00 0. -1.
         -6    2    1    2    0  503  0.94793481963E+01  0.18220756026E+02 -0.36409804349E+03  0.40332816471E+03  0.17229152383E+03 0.  0.
        -24    2    3    3    0    0 -0.14140034943E+02 -0.53262234840E+02 -0.23451998111E+03  0.25339398750E+03  0.78562619083E+02 0.  0.
          6    2    1    2  501    0 -0.94793481963E+01 -0.18220756026E+02  0.44668468550E+02  0.17896323539E+03  0.17207763814E+03 0.  0.
         24    2    5    5    0    0  0.58469760726E+02  0.10850036166E+02  0.23081144506E+02  0.10182508062E+03  0.79367320777E+02 0.  0.
          5    1    5    5  501    0 -0.67949108922E+02 -0.29070792193E+02  0.21587324044E+02  0.77138154770E+02  0.47000000000E+01 0. -1.
        -13    1    6    6    0    0  0.67996802866E+01  0.38171422002E+02 -0.55961553880E+00  0.38776362377E+02  0.00000000000E+00 0.  1.
         14    1    6    6    0    0  0.51670080439E+02 -0.27321385835E+02  0.23640760045E+02  0.63048718243E+02  0.00000000000E+00 0. -1.
         -5    1    3    3    0  503  0.23619383140E+02  0.71482990866E+02 -0.12957806239E+03  0.14993417721E+03  0.47000000000E+01 0.  1.
         13    1    4    4    0    0  0.29832734713E+02 -0.15172778150E+02 -0.12473919526E+03  0.12915135343E+03  0.00000000000E+00 0. -1.
        -14    1    4    4    0    0 -0.43972769656E+02 -0.38089456689E+02 -0.10978078584E+03  0.12424263408E+03  0.00000000000E+00 0.  1.
</event>
<event>
12    1  0.1629553E-001  0.1880647E+03  0.7818608E-02  0.1160596E+00
         21   -1    0    0  501  502  0.00000000000E+00  0.00000000000E+00  0.11599421634E+04  0.11599421634E+04  0.00000000000E+00 0.  1.
         21   -1    0    0  502  503 -0.00000000000E+00 -0.00000000000E+00 -0.32805678614E+02  0.32805678614E+02  0.00000000000E+00 0.  1.
         -6    2    1    2    0  503 -0.23252641915E+02 -0.69223202873E+02  0.39405144796E+03  0.43592422267E+03  0.17152506258E+03 0.  0.
        -24    2    3    3    0    0  0.32724608587E+01 -0.75112319852E+02  0.39338448388E+03  0.40834166265E+03  0.79617785127E+02 0.  0.
          6    2    1    2  501    0  0.23252641915E+02  0.69223202873E+02  0.73308503685E+03  0.75682361938E+03  0.17330834492E+03 0.  0.
         24    2    5    5    0    0  0.29343530203E+02  0.11374292192E+03  0.59047117953E+03  0.60722446629E+03  0.79163397826E+02 0.  0.
          5    1    5    5  501    0 -0.60908882877E+01 -0.44519719043E+02  0.14261385732E+03  0.14959915309E+03  0.47000000000E+01 0. -1.
        -11    1    6    6    0    0 -0.15403615538E+01  0.95793048330E+02  0.30942978601E+03  0.32392201730E+03  0.00000000000E+00 0.  1.
         12    1    6    6    0    0  0.30883891757E+02  0.17949873586E+02  0.28104139352E+03  0.28330244899E+03  0.00000000000E+00 0. -1.
         -5    1    3    3    0  503 -0.26525102774E+02  0.58891169794E+01  0.66696408669E+00  0.27582560016E+02  0.47000000000E+01 0.  1.
         11    1    4    4    0    0 -0.22541456537E+02 -0.65387572386E+01  0.20286560516E+03  0.20421881981E+03  0.00000000000E+00 0. -1.
        -12    1    4    4    0    0  0.25813917396E+02 -0.68573562614E+02  0.19051887872E+03  0.20412284284E+03  0.00000000000E+00 0.  1.
</event>
<event>
12    1  0.1629553E-001  0.2318217E+03  0.7818608E-02  0.1126006E+00
         21   -1    0    0  503  502  0.00000000000E+00  0.00000000000E+00  0.14643833531E+03  0.14643833531E+03  0.00000000000E+00 0.  1.
         21   -1    0    0  501  503 -0.00000000000E+00 -0.00000000000E+00 -0.36174270315E+03  0.36174270315E+03  0.00000000000E+00 0. -1.
          6    2    1    2  501    0 -0.12896447823E+03  0.72233350173E+02 -0.11638517556E+03  0.25613678041E+03  0.17381325515E+03 0.  0.
         24    2    3    3    0    0 -0.94773799581E+02 -0.22774269641E+02 -0.77425402382E+02  0.14780670954E+03  0.79695608445E+02 0.  0.
         -6    2    1    2    0  502  0.12896447823E+03 -0.72233350173E+02 -0.98919192282E+02  0.25204425805E+03  0.17858277602E+03 0.  0.
        -24    2    5    5    0    0  0.12807193050E+03 -0.54320507851E+02 -0.12832572352E+03  0.21728076224E+03  0.10672535484E+03 0.  0.
          5    1    3    3  501    0 -0.34190678646E+02  0.95007619813E+02 -0.38959773182E+02  0.10833007087E+03  0.47000000000E+01 0. -1.
        -11    1    4    4    0    0 -0.79313859447E+02  0.18612966229E+02 -0.54655324029E+02  0.98103696449E+02  0.00000000000E+00 0.  1.
         12    1    4    4    0    0 -0.15459940134E+02 -0.41387235869E+02 -0.22770078353E+02  0.49703013089E+02  0.00000000000E+00 0. -1.
         -5    1    5    5    0  502  0.89254772875E+00 -0.17912842322E+02  0.29406531241E+02  0.34763495813E+02  0.47000000000E+01 0.  1.
         13    1    6    6    0    0  0.41004380419E+00  0.24881630039E+02 -0.22137540048E+02  0.33306670933E+02  0.00000000000E+00 0. -1.
        -14    1    6    6    0    0  0.12766188669E+03 -0.79202137889E+02 -0.10618818348E+03  0.18397409130E+03  0.00000000000E+00 0.  1.
</event>
<event>
12    1  0.1629553E-001  0.2203538E+03  0.7818608E-02  0.1133894E+00
         21   -1    0    0  503  502  0.00000000000E+00  0.00000000000E+00  0.12884952018E+03  0.12884952018E+03  0.00000000000E+00 0.  1.
         21   -1    0    0  501  503 -0.00000000000E+00 -0.00000000000E+00 -0.37700667887E+03  0.37700667887E+03  0.00000000000E+00 0.  1.
          6    2    1    2  501    0  0.12878318467E+03 -0.51957077414E+02 -0.14578444818E+03  0.26421378173E+03  0.17108819533E+03 0.  0.
         24    2    3    3    0    0  0.12842497196E+03 -0.66904862830E+02 -0.16907486298E+03  0.23614069806E+03  0.78783792093E+02 0.  0.
         -6    2    1    2    0  502 -0.12878318467E+03  0.51957077414E+02 -0.10237271051E+03  0.24164241732E+03  0.16919290602E+03 0.  0.
        -24    2    5    5    0    0 -0.79802464016E+02  0.89378176517E+02 -0.97390292102E+02  0.17962335455E+03  0.91775752816E+02 0.  0.
          5    1    3    3  501    0  0.35821271014E+00  0.14947785415E+02  0.23290414802E+02  0.28073083671E+02  0.47000000000E+01 0. -1.
        -11    1    4    4    0    0  0.63385615494E+02 -0.75887460380E+02 -0.10872199995E+03  0.14695957324E+03  0.00000000000E+00 0.  1.
         12    1    4    4    0    0  0.65039356464E+02  0.89825975507E+01 -0.60352863029E+02  0.89181124818E+02  0.00000000000E+00 0. -1.
         -5    1    5    5    0  502 -0.48980720652E+02 -0.37421099103E+02 -0.49824184066E+01  0.62019062770E+02  0.47000000000E+01 0.  1.
         13    1    6    6    0    0 -0.78566155377E+02  0.33184485229E+02 -0.88161665557E+02  0.12266348317E+03  0.00000000000E+00 0. -1.
        -14    1    6    6    0    0 -0.12363086387E+01  0.56193691289E+02 -0.92286265450E+01  0.56959871380E+02  0.00000000000E+00 0.  1.
</event>
<event>
12    1  0.1629553E-001  0.2077389E+03  0.7818608E-02  0.1144805E+00
         21   -1    0    0  501  502  0.00000000000E+00  0.00000000000E+00  0.63592805241E+02  0.63592805241E+02  0.00000000000E+00 0.  1.
         21   -1    0    0  502  503 -0.00000000000E+00 -0.00000000000E+00 -0.13099015091E+04  0.13099015091E+04  0.00000000000E+00 0.  1.
         -6    2    1    2    0  503  0.68504648506E+02  0.78048603011E+02 -0.11030137473E+04  0.11211276975E+04  0.17176587580E+03 0.  0.
        -24    2    3    3    0    0  0.95524039052E+02  0.10409649306E+03 -0.86652870854E+03  0.88163698036E+03  0.80317124678E+02 0.  0.
          6    2    1    2  501    0 -0.68504648506E+02 -0.78048603011E+02 -0.14329495656E+03  0.25236661684E+03  0.17991940812E+03 0.  0.
         24    2    5    5    0    0 -0.40925340110E+02  0.22955017627E+02 -0.33132183292E+02  0.10031308597E+03  0.82238417728E+02 0.  0.
          5    1    5    5  501    0 -0.27579308396E+02 -0.10100362064E+03 -0.11016277327E+03  0.15205353086E+03  0.47000000000E+01 0. -1.
        -11    1    6    6    0    0 -0.30313670075E+02 -0.10460426924E+01  0.23187603139E+02  0.38179546070E+02  0.00000000000E+00 0.  1.
         12    1    6    6    0    0 -0.10611670034E+02  0.24001060319E+02 -0.56319786431E+02  0.62133539904E+02  0.00000000000E+00 0. -1.
         -5    1    3    3    0  503 -0.27019390546E+02 -0.26047890044E+02 -0.23648503877E+03  0.23949071716E+03  0.47000000000E+01 0.  1.
         13    1    4    4    0    0  0.16762963981E+02 -0.13112111005E+02 -0.11844221382E+03  0.12033903120E+03  0.00000000000E+00 0. -1.
        -14    1    4    4    0    0  0.78761075071E+02  0.11720860406E+03 -0.74808649472E+03  0.76129794916E+03  0.00000000000E+00 0.  1.
</event>
<event>
12    1  0.1629553E-001  0.1903213E+03  0.7818608E-02  0.1158417E+00
         21   -1    0    0  503  502  0.00000000000E+00  0.00000000000E+00  0.30505381026E+03  0.30505381026E+03  0.00000000000E+00 0. -1.
         21   -1    0    0  501  503 -0.00000000000E+00 -0.00000000000E+00 -0.15236781232E+03  0.15236781232E+03  0.00000000000E+00 0. -1.
          6    2    1    2  501    0 -0.40616470169E+02  0.70623634681E+02 -0.32346574547E+02  0.19197997749E+03  0.17079992812E+03 0.  0.
         24    2    3    3    0    0 -0.59210027095E+02 -0.12052067243E+02 -0.17060125770E+02  0.10574334047E+03  0.85085407264E+02 0.  0.
         -6    2    1    2    0  502  0.40616470169E+02 -0.70623634681E+02  0.18503257249E+03  0.26544164510E+03  0.17200237977E+03 0.  0.
        -24    2    5    5    0    0  0.54986987043E+02  0.95459676066E+01  0.98046570728E+02  0.14618422861E+03  0.92962381752E+02 0.  0.
          5    1    3    3  501    0  0.18593556927E+02  0.82675701923E+02 -0.15286448778E+02  0.86236637016E+02  0.47000000000E+01 0. -1.
        -13    1    4    4    0    0 -0.54064816311E+02  0.16772953793E+02 -0.39353158699E+02  0.68942058580E+02  0.00000000000E+00 0.  1.
         14    1    4    4    0    0 -0.51452107841E+01 -0.28825021035E+02  0.22293032929E+02  0.36801281891E+02  0.00000000000E+00 0. -1.
         -5    1    5    5    0  502 -0.14370516874E+02 -0.80169602287E+02  0.86986001757E+02  0.11925741649E+03  0.47000000000E+01 0.  1.
         11    1    6    6    0    0  0.17925518314E+02 -0.41547755708E+02  0.38576946553E+02  0.59461929136E+02  0.00000000000E+00 0. -1.
        -12    1    6    6    0    0  0.37061468729E+02  0.51093723315E+02  0.59469624175E+02  0.86722299474E+02  0.00000000000E+00 0.  1.
</event>
<event>
12    1  0.1629553E-001  0.2096885E+03  0.7818608E-02  0.1143521E+00
         21   -1    0    0  501  502  0.00000000000E+00  0.00000000000E+00  0.37013089414E+03  0.37013089414E+03  0.00000000000E+00 0.  1.
         21   -1    0    0  502  503 -0.00000000000E+00 -0.00000000000E+00 -0.20071824865E+03  0.20071824865E+03  0.00000000000E+00 0.  1.
         -6    2    1    2    0  503  0.71399382026E+02 -0.76297682672E+02 -0.10379091569E+03  0.22645193804E+03  0.17201371436E+03 0.  0.
        -24    2    3    3    0    0 -0.14086847514E+02  0.61404700004E+01 -0.38272434605E+02  0.90736405325E+02  0.80821849496E+02 0.  0.
          6    2    1    2  501    0 -0.71399382026E+02  0.76297682672E+02  0.27320356118E+03  0.34439720475E+03  0.18179670146E+03 0.  0.
         24    2    5    5    0    0 -0.13307343781E+02  0.11309345549E+03  0.15948961960E+03  0.21142516139E+03  0.79350141991E+02 0.  0.
          5    1    5    5  501    0 -0.58092038245E+02 -0.36795772821E+02  0.11371394158E+03  0.13297204336E+03  0.47000000000E+01 0. -1.
        -13    1    6    6    0    0  0.26993932933E+02  0.84228362875E+02  0.91259255034E+02  0.12708792687E+03  0.00000000000E+00 0.  1.
         14    1    6    6    0    0 -0.40301276714E+02  0.28865092617E+02  0.68230364563E+02  0.84337234512E+02  0.00000000000E+00 0. -1.
         -5    1    3    3    0  503  0.85486229540E+02 -0.82438152672E+02 -0.65518481090E+02  0.13571553272E+03  0.47000000000E+01 0.  1.
         11    1    4    4    0    0  0.67554071923E+01 -0.24740201239E+02  0.11876944160E+02  0.28262605793E+02  0.00000000000E+00 0. -1.
        -12    1    4    4    0    0 -0.20842254706E+02  0.30880671239E+02 -0.50149378765E+02  0.62473799531E+02  0.00000000000E+00 0.  1.
</event>
<event>
12    1  0.1629553E-001  0.2093525E+03  0.7818608E-02  0.1143412E+00
         21   -1    0    0  501  502  0.00000000000E+00  0.00000000000E+00  0.28380370594E+04  0.28380370594E+04  0.00000000000E+00 0. -1.
         21   -1    0    0  502  503 -0.00000000000E+00 -0.00000000000E+00 -0.33544675341E+02  0.33544675341E+02  0.00000000000E+00 0. -1.
         -6    2    1    2    0  503 -0.91365627774E+02  0.59023392621E+02  0.34363344469E+03  0.40238340377E+03  0.17887711006E+03 0.  0.
        -24    2    3    3    0    0 -0.58923940255E+02  0.20363080164E+02  0.68608379392E+02  0.12272654369E+03  0.80423933214E+02 0.  0.
          6    2    1    2  501    0  0.91365627774E+02 -0.59023392621E+02  0.24608589394E+04  0.24691983310E+04  0.17112054054E+03 0.  0.
         24    2    5    5    0    0 -0.13686302468E+02  0.74389072144E+01  0.90375142954E+03  0.90712950006E+03  0.76646143193E+02 0.  0.
          5    1    5    5  501    0  0.10505193024E+03 -0.66462299835E+02  0.15571075098E+04  0.15620688309E+04  0.47000000000E+01 0. -1.
        -13    1    6    6    0    0 -0.35658371663E+02 -0.14658495089E+02  0.69462439775E+03  0.69569349925E+03  0.00000000000E+00 0.  1.
         14    1    6    6    0    0  0.21972069195E+02  0.22097402304E+02  0.20912703179E+03  0.21143600081E+03  0.00000000000E+00 0. -1.
         -5    1    3    3    0  503 -0.32441687519E+02  0.38660312457E+02  0.27502506530E+03  0.27965686008E+03  0.47000000000E+01 0.  1.
         13    1    4    4    0    0 -0.49438179186E+02  0.26663383742E+02  0.85532933147E+02  0.10232767097E+03  0.00000000000E+00 0. -1.
        -14    1    4    4    0    0 -0.94857610693E+01 -0.63003035781E+01 -0.16924553755E+02  0.20398872715E+02  0.00000000000E+00 0.  1.
</event>
<event>
12    1  0.1629553E-001  0.2726617E+03  0.7818608E-02  0.1100940E+00
         21   -1    0    0  503  502  0.00000000000E+00  0.00000000000E+00  0.84748510053E+02  0.84748510053E+02  0.00000000000E+00 0. -1.
         21   -1    0    0  501  503 -0.00000000000E+00 -0.00000000000E+00 -0.85487731873E+03  0.85487731873E+03  0.00000000000E+00 0.  1.
          6    2    1    2  501    0 -0.52744561158E+02 -0.19435353198E+03 -0.34812973064E+03  0.43720407196E+03  0.17145788712E+03 0.  0.
         24    2    3    3    0    0 -0.53727950452E+02 -0.75878543178E+02 -0.26157946577E+03  0.29040377095E+03  0.85242520470E+02 0.  0.
         -6    2    1    2    0  502  0.52744561158E+02  0.19435353198E+03 -0.42199907803E+03  0.50242175682E+03  0.18381815943E+03 0.  0.
        -24    2    5    5    0    0  0.41030830181E+02  0.21344738360E+03 -0.30381517119E+03  0.38204188931E+03  0.80056432324E+02 0.  0.
          5    1    3    3  501    0  0.98338929428E+00 -0.11847498881E+03 -0.86550264871E+02  0.14680030101E+03  0.47000000000E+01 0. -1.
        -13    1    4    4    0    0 -0.34049105726E+02 -0.36821088816E+02 -0.38897631076E+02  0.63467786204E+02  0.00000000000E+00 0.  1.
         14    1    4    4    0    0 -0.19678844727E+02 -0.39057454362E+02 -0.22268183469E+03  0.22693598475E+03  0.00000000000E+00 0. -1.
         -5    1    5    5    0  502  0.11713730977E+02 -0.19093851616E+02 -0.11818390685E+03  0.12037986751E+03  0.47000000000E+01 0.  1.
         11    1    6    6    0    0  0.33536816647E+02  0.10797916482E+03 -0.93793723997E+02  0.14690636734E+03  0.00000000000E+00 0. -1.
        -12    1    6    6    0    0  0.74940135347E+01  0.10546821878E+03 -0.21002144719E+03  0.23513552197E+03  0.00000000000E+00 0.  1.
</event>
<event>
12    1  0.1629553E-001  0.3729199E+03  0.7818608E-02  0.1053633E+00
         21   -1    0    0  501  502  0.00000000000E+00  0.00000000000E+00  0.69126524837E+02  0.69126524837E+02  0.00000000000E+00 0.  1.
         21   -1    0    0  502  503 -0.00000000000E+00 -0.00000000000E+00 -0.32776341439E+04  0.32776341439E+04  0.00000000000E+00 0.  1.
         -6    2    1    2    0  503  0.17135724872E+03  0.28188957350E+03 -0.26460918835E+04  0.26722409198E+04  0.17390870905E+03 0.  0.
        -24    2    3    3    0    0  0.17347881235E+03  0.25513689828E+03 -0.19730243129E+04  0.19986221468E+04  0.80472425992E+02 0.  0.
          6    2    1    2  501    0 -0.17135724872E+03 -0.28188957350E+03 -0.56241573553E+03  0.67451974892E+03  0.17274372283E+03 0.  0.
         24    2    5    5    0    0 -0.16232615105E+03 -0.14231530115E+03 -0.37765792689E+03  0.44274383111E+03  0.82420664783E+02 0.  0.
          5    1    5    5  501    0 -0.90310976769E+01 -0.13957427235E+03 -0.18475780863E+03  0.23177591781E+03  0.47000000000E+01 0. -1.
        -11    1    6    6    0    0 -0.11777686060E+03 -0.63437561423E+02 -0.17105479319E+03  0.21715306897E+03  0.00000000000E+00 0.  1.
         12    1    6    6    0    0 -0.44549290451E+02 -0.78877739729E+02 -0.20660313371E+03  0.22559076214E+03  0.00000000000E+00 0. -1.
         -5    1    3    3    0  503 -0.21215636240E+01  0.26752675221E+02 -0.67306757066E+03  0.67361877300E+03  0.47000000000E+01 0.  1.
         11    1    4    4    0    0  0.11490306443E+03  0.97744603043E+02 -0.95272539052E+03  0.96459441808E+03  0.00000000000E+00 0. -1.
        -12    1    4    4    0    0  0.58575747915E+02  0.15739229524E+03 -0.10202989223E+04  0.10340277287E+04  0.00000000000E+00 0.  1.
</event>
<event>
12    1  0.1629553E-001  0.1754068E+03  0.7818608E-02  0.1172403E+00
         21   -1    0    0  501  502  0.00000000000E+00  0.00000000000E+00  0.10143123201E+03  0.10143123201E+03  0.00000000000E+00 0. -1.
         21   -1    0    0  502  503 -0.00000000000E+00 -0.00000000000E+00 -0.52036627699E+03  0.52036627699E+03  0.00000000000E+00 0. -1.
         -6    2    1    2    0  503 -0.92390317684E+01 -0.32939805625E+02 -0.41039338968E+03  0.44618282817E+03  0.17171485478E+03 0.  0.
        -24    2    3    3    0    0 -0.70104610587E+02 -0.26614487123E+02 -0.23397515698E+03  0.25939387997E+03  0.83173454487E+02 0.  0.
          6    2    1    2  501    0  0.92390317684E+01  0.32939805625E+02 -0.85416552987E+01  0.17561468084E+03  0.17203826827E+03 0.  0.
         24    2    5    5    0    0 -0.45486433236E+02  0.63307104510E+02 -0.17044444892E+02  0.11227877639E+03  0.78988641185E+02 0.  0.
          5    1    5    5  501    0  0.54725465005E+02 -0.30367298884E+02  0.85027895936E+01  0.63335904449E+02  0.47000000000E+01 0. -1.
        -13    1    6    6    0    0 -0.57889536721E+02  0.13854522480E+02 -0.14315339175E+02  0.61221525550E+02  0.00000000000E+00 0.  1.
         14    1    6    6    0    0  0.12403103485E+02  0.49452582029E+02 -0.27291057173E+01  0.51057250841E+02  0.00000000000E+00 0. -1.
         -5    1    3    3    0  503  0.60865578819E+02 -0.63253185018E+01 -0.17641823270E+03  0.18678894820E+03  0.47000000000E+01 0.  1.
         11    1    4    4    0    0 -0.37939859586E+02 -0.56134119008E+02 -0.12920892767E+03  0.14589523383E+03  0.00000000000E+00 0. -1.
        -12    1    4    4    0    0 -0.32164751001E+02  0.29519631885E+02 -0.10476622931E+03  0.11349864615E+03  0.00000000000E+00 0.  1.
</event>
<event>
12    1  0.1629553E-001  0.2436044E+03  0.7818608E-02  0.1117503E+00
         21   -1    0    0  501  502  0.00000000000E+00  0.00000000000E+00  0.37676970388E+03  0.37676970388E+03  0.00000000000E+00 0. -1.
         21   -1    0    0  502  503 -0.00000000000E+00 -0.00000000000E+00 -0.43163623704E+03  0.43163623704E+03  0.00000000000E+00 0. -1.
         -6    2    1    2    0  503 -0.10049490800E+03  0.14035322901E+03 -0.34974926543E+03  0.42591552163E+03  0.17111758375E+03 0.  0.
        -24    2    3    3    0    0 -0.12370526699E+03  0.14361659666E+03 -0.34524905918E+03  0.40159038670E+03  0.78416872615E+02 0.  0.
          6    2    1    2  501    0  0.10049490800E+03 -0.14035322901E+03  0.29488273227E+03  0.38249041929E+03  0.17188612403E+03 0.  0.
         24    2    5    5    0    0  0.28472572419E+02 -0.23402765823E+02  0.49784245673E+02  0.10149222394E+03  0.80397907772E+02 0.  0.
          5    1    5    5  501    0  0.72022335581E+02 -0.11695046319E+03  0.24509848659E+03  0.28099819536E+03  0.47000000000E+01 0. -1.
        -11    1    6    6    0    0  0.41225820752E+02 -0.23439239558E+01  0.61619536755E+02  0.74175667075E+02  0.00000000000E+00 0.  1.
         12    1    6    6    0    0 -0.12753248333E+02 -0.21058841867E+02 -0.11835291082E+02  0.27316556862E+02  0.00000000000E+00 0. -1.
         -5    1    3    3    0  503  0.23210358992E+02 -0.32633676471E+01 -0.45002062544E+01  0.24325134928E+02  0.47000000000E+01 0.  1.
         11    1    4    4    0    0 -0.81675666177E+02  0.13410622578E+03 -0.30285723592E+03  0.34114205192E+03  0.00000000000E+00 0. -1.
        -12    1    4    4    0    0 -0.42029600816E+02  0.95103708823E+01 -0.42391823256E+02  0.60448334783E+02  0.00000000000E+00 0.  1.
</event>
<event>
12    1  0.1629553E-001  0.1741742E+03  0.7818608E-02  0.1174125E+00
         21   -1    0    0  501  502  0.00000000000E+00  0.00000000000E+00  0.69864191555E+03  0.69864191555E+03  0.00000000000E+00 0.  1.
         21   -1    0    0  502  503 -0.00000000000E+00 -0.00000000000E+00 -0.68131386482E+02  0.68131386482E+02  0.00000000000E+00 0.  1.
         -6    2    1    2    0  503 -0.15628105057E+02  0.74447179135E+01  0.83090638860E+02  0.19297854986E+03  0.17331187192E+03 0.  0.
        -24    2    3    3    0    0 -0.75895688074E+02  0.12119144826E+02  0.35401908827E+02  0.11584012362E+03  0.79111376889E+02 0.  0.
          6    2    1    2  501    0  0.15628105057E+02 -0.74447179135E+01  0.54741989021E+03  0.57379475217E+03  0.17109126200E+03 0.  0.
         24    2    5    5    0    0  0.67875632910E+02  0.21513265573E+02  0.41774358340E+03  0.43094376855E+03  0.78312885549E+02 0.  0.
          5    1    5    5  501    0 -0.52247527853E+02 -0.28957983486E+02  0.12967630681E+03  0.14285098363E+03  0.47000000000E+01 0. -1.
        -11    1    6    6    0    0  0.11354146598E+02 -0.28032598512E+02  0.10290934289E+03  0.10726171768E+03  0.00000000000E+00 0.  1.
         12    1    6    6    0    0  0.56521486312E+02  0.49545864085E+02  0.31483424050E+03  0.32368205087E+03  0.00000000000E+00 0. -1.
         -5    1    3    3    0  503  0.60267583017E+02 -0.46744269121E+01  0.47688730032E+02  0.77138426233E+02  0.47000000000E+01 0.  1.
         11    1    4    4    0    0 -0.44340875037E+02 -0.20199458937E+02 -0.12189411947E+02  0.50226617485E+02  0.00000000000E+00 0. -1.
        -12    1    4    4    0    0 -0.31554813037E+02  0.32318603762E+02  0.47591320774E+02  0.65613506140E+02  0.00000000000E+00 0.  1.
</event>
<event>
12    1  0.1629553E-001  0.2056567E+03  0.7818608E-02  0.1145253E+00
         21   -1    0    0  503  502  0.00000000000E+00  0.00000000000E+00  0.22915122082E+02  0.22915122082E+02  0.00000000000E+00 0. -1.
         21   -1    0    0  501  503 -0.00000000000E+00 -0.00000000000E+00 -0.18474555707E+04  0.18474555707E+04  0.00000000000E+00 0. -1.
          6    2    1    2  501    0  0.73938153334E+02 -0.82792579846E+02 -0.98512951267E+03  0.10063671379E+04  0.17312769211E+03 0.  0.
         24    2    3    3    0    0  0.10895667110E+02 -0.10894919648E+03 -0.55730194267E+03  0.57310388849E+03  0.76641820988E+02 0.  0.
         -6    2    1    2    0  502 -0.73938153334E+02  0.82792579846E+02 -0.83941093595E+03  0.86400355486E+03  0.17195918589E+03 0.  0.
        -24    2    5    5    0    0 -0.21753119827E+01  0.10212746851E+03 -0.62714142531E+03  0.63904982969E+03  0.68143713416E+02 0.  0.
          5    1    3    3  501    0  0.63042486224E+02  0.26156616631E+02 -0.42782757000E+03  0.43326324944E+03  0.47000000000E+01 0. -1.
        -11    1    4    4    0    0  0.30763031875E+02 -0.11342928025E+02 -0.17458555125E+03  0.17763766733E+03  0.00000000000E+00 0.  1.
         12    1    4    4    0    0 -0.19867364765E+02 -0.97606268452E+02 -0.38271639142E+03  0.39546622116E+03  0.00000000000E+00 0. -1.
         -5    1    5    5    0  502 -0.71762841351E+02 -0.19334888666E+02 -0.21226951064E+03  0.22495372517E+03  0.47000000000E+01 0.  1.
         11    1    6    6    0    0  0.13724904529E+02 -0.46989035980E+01 -0.89437136501E+02  0.90606037795E+02  0.00000000000E+00 0. -1.
        -12    1    6    6    0    0 -0.15900216512E+02  0.10682637211E+03 -0.53770428881E+03  0.54844379189E+03  0.00000000000E+00 0.  1.
</event>
<event>
12    1  0.1629553E-001  0.1975528E+03  0.7818608E-02  0.1152358E+00
         21   -1    0    0  501  502  0.00000000000E+00  0.00000000000E+00  0.10024502680E+04  0.10024502680E+04  0.00000000000E+00 0.  1.
         21   -1    0    0  502  503 -0.00000000000E+00 -0.00000000000E+00 -0.12045430309E+03  0.12045430309E+03  0.00000000000E+00 0.  1.
         -6    2    1    2    0  503  0.90532567130E+02  0.20908298414E+02 -0.21382743185E+02  0.19870667622E+03  0.17433823108E+03 0.  0.
        -24    2    3    3    0    0  0.99454598726E+02  0.37144845428E+02  0.36956294488E+02  0.13731643740E+03  0.78861140792E+02 0.  0.
          6    2    1    2  501    0 -0.90532567130E+02 -0.20908298414E+02  0.90337870814E+03  0.92419789490E+03  0.17150905506E+03 0.  0.
         24    2    5    5    0    0 -0.42875709358E+02  0.17953309031E+02  0.22435939165E+03  0.24238360729E+03  0.79069771108E+02 0.  0.
          5    1    5    5  501    0 -0.47656857772E+02 -0.38861607446E+02  0.67901931649E+03  0.68181428761E+03  0.47000000000E+01 0. -1.
        -13    1    6    6    0    0 -0.28901476055E+02  0.84350814594E+01  0.22343092547E+03  0.22545027029E+03  0.00000000000E+00 0.  1.
         14    1    6    6    0    0 -0.13974233303E+02  0.95182275721E+01  0.92846618015E+00  0.16933337000E+02  0.00000000000E+00 0. -1.
         -5    1    3    3    0  503 -0.89220315962E+01 -0.16236547014E+02 -0.58339037673E+02  0.61390238828E+02  0.47000000000E+01 0.  1.
         11    1    4    4    0    0  0.11523105970E+02  0.32542935920E+02  0.35118186262E+02  0.49245422690E+02  0.00000000000E+00 0. -1.
        -12    1    4    4    0    0  0.87931492756E+02  0.46019095076E+01  0.18381082251E+01  0.88071014706E+02  0.00000000000E+00 0.  1.
</event>
<event>
12    1  0.1629553E-001  0.2502274E+03  0.7818608E-02  0.1113433E+00
         21   -1    0    0  501  502  0.00000000000E+00  0.00000000000E+00  0.31977579427E+03  0.31977579427E+03  0.00000000000E+00 0.  1.
         21   -1    0    0  502  503 -0.00000000000E+00 -0.00000000000E+00 -0.22454600268E+03  0.22454600268E+03  0.00000000000E+00 0. -1.
         -6    2    1    2    0  503 -0.16700738938E+03  0.71967393788E+02 -0.51854984894E+02  0.25554389011E+03  0.17188067500E+03 0.  0.
        -24    2    3    3    0    0 -0.44277986653E+02  0.81089021905E+02 -0.49099643110E+02  0.13235544787E+03  0.81063062197E+02 0.  0.
          6    2    1    2  501    0  0.16700738938E+03 -0.71967393788E+02  0.14708477649E+03  0.28877790684E+03  0.16937524651E+03 0.  0.
         24    2    5    5    0    0  0.12195785014E+03 -0.10583815593E+03  0.71300372873E+02  0.19421546533E+03  0.80996736610E+02 0.  0.
          5    1    5    5  501    0  0.45049539238E+02  0.33870762138E+02  0.75784403616E+02  0.94562441513E+02  0.47000000000E+01 0. -1.
        -13    1    6    6    0    0  0.17792323415E+02 -0.38674732037E+02  0.54476977211E+02  0.69137852994E+02  0.00000000000E+00 0.  1.
         14    1    6    6    0    0  0.10416552672E+03 -0.67163423889E+02  0.16823395662E+02  0.12507761234E+03  0.00000000000E+00 0. -1.
         -5    1    3    3    0  503 -0.12272940272E+03 -0.91216281168E+01 -0.27553417838E+01  0.12318844224E+03  0.47000000000E+01 0.  1.
         11    1    4    4    0    0 -0.27328752956E+02  0.92249740040E+02 -0.22342172575E+02  0.98772708533E+02  0.00000000000E+00 0. -1.
        -12    1    4    4    0    0 -0.16949233697E+02 -0.11160718135E+02 -0.26757470535E+02  0.33582739340E+02  0.00000000000E+00 0.  1.
</event>
<event>
12    1  0.1629553E-001  0.2431724E+03  0.7818608E-02  0.1117815E+00
         21   -1    0    0  501  502  0.00000000000E+00  0.00000000000E+00  0.12913971150E+03  0.12913971150E+03  0.00000000000E+00 0.  1.
         21   -1    0    0  502  503 -0.00000000000E+00 -0.00000000000E+00 -0.49623220358E+03  0.49623220358E+03  0.00000000000E+00 0. -1.
         -6    2    1    2    0  503  0.11439052467E+03 -0.12745328709E+03 -0.94878928996E+02  0.26036088619E+03  0.17162822427E+03 0.  0.
        -24    2    3    3    0    0  0.96013907663E+01 -0.10141514045E+03 -0.79214399859E+02  0.15115367426E+03  0.78710194262E+02 0.  0.
          6    2    1    2  501    0 -0.11439052467E+03  0.12745328709E+03 -0.27221356308E+03  0.36501102889E+03  0.17263630778E+03 0.  0.
         24    2    5    5    0    0 -0.51701056906E+02  0.52854210476E+02 -0.30928017594E+02  0.10475001364E+03  0.67449657039E+02 0.  0.
          5    1    5    5  501    0 -0.62689467761E+02  0.74599076618E+02 -0.24128554548E+03  0.26026101525E+03  0.47000000000E+01 0. -1.
        -11    1    6    6    0    0 -0.28596715261E+02  0.55159460593E+02 -0.45789866227E+02  0.77181928363E+02  0.00000000000E+00 0.  1.
         12    1    6    6    0    0 -0.23104341645E+02 -0.23052501178E+01  0.14861848633E+02  0.27568085275E+02  0.00000000000E+00 0. -1.
         -5    1    3    3    0  503  0.10478913390E+03 -0.26038146647E+02 -0.15664529137E+02  0.10920721193E+03  0.47000000000E+01 0.  1.
         13    1    4    4    0    0 -0.20927870976E+02 -0.28622459601E+02  0.49087354661E+01  0.35795483808E+02  0.00000000000E+00 0. -1.
        -14    1    4    4    0    0  0.30529261742E+02 -0.72792680846E+02 -0.84123135325E+02  0.11535819045E+03  0.00000000000E+00 0.  1.
</event>
<event>
12    1  0.1629553E-001  0.2476386E+03  0.7818608E-02  0.1116028E+00
         21   -1    0    0  503  502  0.00000000000E+00  0.00000000000E+00  0.18074449769E+03  0.18074449769E+03  0.00000000000E+00 0.  1.
         21   -1    0    0  501  503 -0.00000000000E+00 -0.00000000000E+00 -0.66989498343E+03  0.66989498343E+03  0.00000000000E+00 0.  1.
          6    2    1    2  501    0  0.15032460726E+03 -0.73830817727E+02 -0.54607828881E+03  0.59654180492E+03  0.17208181287E+03 0.  0.
         24    2    3    3    0    0  0.90103708816E+02 -0.10356587117E+03 -0.46540736511E+03  0.49146746009E+03  0.78049220451E+02 0.  0.
         -6    2    1    2    0  502 -0.15032460726E+03  0.73830817727E+02  0.56927803067E+02  0.25409767619E+03  0.18241813805E+03 0.  0.
        -24    2    5    5    0    0 -0.13372759657E+03  0.11771564581E+03  0.24597190302E+02  0.19692515288E+03  0.80215027982E+02 0.  0.
          5    1    3    3  501    0  0.60220898439E+02  0.29735053442E+02 -0.80670923698E+02  0.10507434483E+03  0.47000000000E+01 0. -1.
        -11    1    4    4    0    0  0.18440315015E+02 -0.72156622202E+00 -0.14524514001E+02  0.23484620130E+02  0.00000000000E+00 0.  1.
         12    1    4    4    0    0  0.71663393801E+02 -0.10284430495E+03 -0.45088285111E+03  0.46798283996E+03  0.00000000000E+00 0. -1.
         -5    1    5    5    0  502 -0.16597010686E+02 -0.43884828082E+02  0.32330612765E+02  0.57172523307E+02  0.47000000000E+01 0.  1.
         11    1    6    6    0    0 -0.51311909557E+02  0.50136488773E+01 -0.11263286961E+02  0.52772250005E+02  0.00000000000E+00 0. -1.
        -12    1    6    6    0    0 -0.82415687012E+02  0.11270199693E+03  0.35860477262E+02  0.14415290288E+03  0.00000000000E+00 0.  1.
</event>
<event>
12    1  0.1629553E-001  0.2219144E+03  0.7818608E-02  0.1132703E+00
         21   -1    0    0  501  502  0.00000000000E+00  0.00000000000E+00  0.33189891925E+02  0.33189891925E+02  0.00000000000E+00 0. -1.
         21   -1    0    0  502  503 -0.00000000000E+00 -0.00000000000E+00 -0.16910801562E+04  0.16910801562E+04  0.00000000000E+00 0.  1.
         -6    2    1    2    0  503  0.41033155428E+02  0.13374980365E+03 -0.52296566320E+03  0.56810128628E+03  0.17225927194E+03 0.  0.
        -24    2    3    3    0    0  0.13347068489E+02  0.13836756223E+03 -0.27619218951E+03  0.31969218737E+03  0.81223411695E+02 0.  0.
          6    2    1    2  501    0 -0.41033155428E+02 -0.13374980365E+03 -0.11349246011E+04  0.11561687619E+04  0.17058612461E+03 0.  0.
         24    2    5    5    0    0 -0.53863402955E+02 -0.20626221002E+02 -0.68008124812E+03  0.68726991782E+03  0.80639498487E+02 0.  0.
          5    1    5    5  501    0  0.12830247527E+02 -0.11312358265E+03 -0.45484335299E+03  0.46889884406E+03  0.47000000000E+01 0. -1.
        -13    1    6    6    0    0 -0.75085574169E+02 -0.19987912755E+02 -0.51487278137E+03  0.52070273775E+03  0.00000000000E+00 0.  1.
         14    1    6    6    0    0  0.21222171214E+02 -0.63830824628E+00 -0.16520846675E+03  0.16656718007E+03  0.00000000000E+00 0. -1.
         -5    1    3    3    0  503  0.27686086939E+02 -0.46177585771E+01 -0.24677347369E+03  0.24840909891E+03  0.47000000000E+01 0.  1.
         13    1    4    4    0    0  0.25669205553E+02  0.20806988003E+02 -0.22978964593E+02  0.40247629462E+02  0.00000000000E+00 0. -1.
        -14    1    4    4    0    0 -0.12322137064E+02  0.11756057423E+03 -0.25321322492E+03  0.27944455791E+03  0.00000000000E+00 0.  1.
</event>
<event>
12    1  0.1629553E-001  0.2249605E+03  0.7818608E-02  0.1130499E+00
         21   -1    0    0  501  502  0.00000000000E+00  0.00000000000E+00  0.26892155207E+03  0.26892155207E+03  0.00000000000E+00 0.  1.
         21   -1    0    0  502  503 -0.00000000000E+00 -0.00000000000E+00 -0.22677380016E+03  0.22677380016E+03  0.00000000000E+00 0. -1.
         -6    2    1    2    0  503  0.14158039941E+03 -0.25286779267E+02 -0.82688725173E+02  0.23967611887E+03  0.17298203947E+03 0.  0.
        -24    2    3    3    0    0 -0.66913546879E+00 -0.69692193440E+01 -0.17093291373E+02  0.81893628993E+02  0.79783257010E+02 0.  0.
          6    2    1    2  501    0 -0.14158039941E+03  0.25286779267E+02  0.12483647708E+03  0.25601923336E+03  0.17110602309E+03 0.  0.
         24    2    5    5    0    0 -0.13296385267E+03 -0.24495689348E+02  0.48794908388E+02  0.16460288237E+03  0.80210603345E+02 0.  0.
          5    1    5    5  501    0 -0.86165467464E+01  0.49782468615E+02  0.76041568690E+02  0.91416350989E+02  0.47000000000E+01 0. -1.
        -13    1    6    6    0    0 -0.74400727135E+02 -0.11352103750E+02  0.68157411446E+02  0.10153704345E+03  0.00000000000E+00 0.  1.
         14    1    6    6    0    0 -0.58563125532E+02 -0.13143585598E+02 -0.19362503059E+02  0.63065838923E+02  0.00000000000E+00 0. -1.
         -5    1    3    3    0  503  0.14224953488E+03 -0.18317559923E+02 -0.65595433800E+02  0.15778248987E+03  0.47000000000E+01 0.  1.
         11    1    4    4    0    0  0.18948391869E+02  0.26446312369E+02 -0.26567916864E+02  0.42003609355E+02  0.00000000000E+00 0. -1.
        -12    1    4    4    0    0 -0.19617527338E+02 -0.33415531713E+02  0.94746254916E+01  0.39890019638E+02  0.00000000000E+00 0.  1.
</event>
<event>
12    1  0.1629553E-001  0.1804494E+03  0.7818608E-02  0.1167851E+00
         21   -1    0    0  501  502  0.00000000000E+00  0.00000000000E+00  0.77216165474E+03  0.77216165474E+03  0.00000000000E+00 0.  1.
         21   -1    0    0  502  503 -0.00000000000E+00 -0.00000000000E+00 -0.78275932104E+02  0.78275932104E+02  0.00000000000E+00 0.  1.
         -6    2    1    2    0  503 -0.15893626124E+02  0.20781254883E+02  0.55283915394E+02  0.18683059486E+03  0.17653580931E+03 0.  0.
        -24    2    3    3    0    0 -0.45013646421E+02  0.73206695652E+02  0.32259194207E+02  0.12242073376E+03  0.80998344368E+02 0.  0.
          6    2    1    2  501    0  0.15893626124E+02 -0.20781254883E+02  0.63860180724E+03  0.66360699198E+03  0.17854272231E+03 0.  0.
         24    2    5    5    0    0  0.53684356347E+02 -0.66249331011E+02  0.49183937370E+03  0.50531363414E+03  0.78516974919E+02 0.  0.
          5    1    5    5  501    0 -0.37790730223E+02  0.45468076128E+02  0.14676243354E+03  0.15829335784E+03  0.47000000000E+01 0. -1.
        -13    1    6    6    0    0  0.26413815566E+02 -0.80783894139E+02  0.36468049869E+03  0.37445372655E+03  0.00000000000E+00 0.  1.
         14    1    6    6    0    0  0.27270540781E+02  0.14534563128E+02  0.12715887501E+03  0.13085990759E+03  0.00000000000E+00 0. -1.
         -5    1    3    3    0  503  0.29120020297E+02 -0.52425440769E+02  0.23024721187E+02  0.64409861106E+02  0.47000000000E+01 0.  1.
         13    1    4    4    0    0 -0.58678100347E+02  0.18516734933E+02  0.13343960533E+02  0.62960703741E+02  0.00000000000E+00 0. -1.
        -14    1    4    4    0    0  0.13664453926E+02  0.54689960719E+02  0.18915233674E+02  0.59460030016E+02  0.00000000000E+00 0.  1.
</event>
<event>
12    1  0.1629553E-001  0.2285248E+03  0.7818608E-02  0.1128502E+00
         21   -1    0    0  503  502  0.00000000000E+00  0.00000000000E+00  0.28723601458E+03  0.28723601458E+03  0.00000000000E+00 0. -1.
         21   -1    0    0  501  503 -0.00000000000E+00 -0.00000000000E+00 -0.31061091282E+03  0.31061091282E+03  0.00000000000E+00 0. -1.
          6    2    1    2  501    0  0.11386969032E+03  0.88128067771E+02 -0.20678687116E+03  0.30482211852E+03  0.17153090436E+03 0.  0.
         24    2    3    3    0    0  0.25650530601E+02  0.53381879253E+02 -0.29339251970E+02  0.10357683208E+03  0.79748314618E+02 0.  0.
         -6    2    1    2    0  502 -0.11386969032E+03 -0.88128067771E+02  0.18341197292E+03  0.29302480887E+03  0.17745625969E+03 0.  0.
        -24    2    5    5    0    0 -0.13635535584E+03 -0.11301773078E+03  0.14828225706E+03  0.24422637227E+03  0.79329078003E+02 0.  0.
          5    1    3    3  501    0  0.88219159718E+02  0.34746188518E+02 -0.17744761919E+03  0.20124528644E+03  0.47000000000E+01 0. -1.
        -11    1    4    4    0    0 -0.10490590182E+02  0.34893663219E+02 -0.46862418157E+02  0.59360815786E+02  0.00000000000E+00 0.  1.
         12    1    4    4    0    0  0.36141120783E+02  0.18488216034E+02  0.17523166187E+02  0.44216016292E+02  0.00000000000E+00 0. -1.
         -5    1    5    5    0  502  0.22485665520E+02  0.24889663010E+02  0.35129715858E+02  0.48798436603E+02  0.47000000000E+01 0.  1.
         13    1    6    6    0    0 -0.63072136038E+02 -0.36526569239E+02  0.10925461463E+03  0.13133489796E+03  0.00000000000E+00 0. -1.
        -14    1    6    6    0    0 -0.73283219801E+02 -0.76491161542E+02  0.39027642436E+02  0.11289147431E+03  0.00000000000E+00 0.  1.
</event>
<event>
12    1  0.1629553E-001  0.2019323E+03  0.7818608E-02  0.1148283E+00
         21   -1    0    0  503  502  0.00000000000E+00  0.00000000000E+00  0.75295986451E+03  0.75295986451E+03  0.00000000000E+00 0.  1.
         21   -1    0    0  501  503 -0.00000000000E+00 -0.00000000000E+00 -0.66731969778E+02  0.66731969778E+02  0.00000000000E+00 0.  1.
          6    2    1    2  501    0 -0.93559755115E+01  0.10243135618E+03  0.16315999218E+03  0.25899878676E+03  0.17285679475E+03 0.  0.
         24    2    3    3    0    0  0.24912501174E+02  0.12429095490E+03  0.86650653046E+02  0.17223508741E+03  0.78023813532E+02 0.  0.
         -6    2    1    2    0  502  0.93559755115E+01 -0.10243135618E+03  0.52306790255E+03  0.56069304752E+03  0.17377268442E+03 0.  0.
        -24    2    5    5    0    0  0.35332223160E+02 -0.12518076410E+03  0.48833638335E+03  0.51149274845E+03  0.78954535798E+02 0.  0.
          5    1    3    3  501    0 -0.34268476685E+02 -0.21859598721E+02  0.76509339131E+02  0.86763699350E+02  0.47000000000E+01 0. -1.
        -13    1    4    4    0    0 -0.89085266408E+00  0.86313211940E+02  0.15715075399E+02  0.87736695679E+02  0.00000000000E+00 0.  1.
         14    1    4    4    0    0  0.25803353838E+02  0.37977742963E+02  0.70935577647E+02  0.84498391736E+02  0.00000000000E+00 0. -1.
         -5    1    5    5    0  502 -0.25976247649E+02  0.22749407915E+02  0.34731519205E+02  0.49200299071E+02  0.47000000000E+01 0.  1.
         13    1    6    6    0    0  0.32378062204E+02 -0.16072849061E+02  0.65677358290E+02  0.74967931684E+02  0.00000000000E+00 0. -1.
        -14    1    6    6    0    0  0.29541609564E+01 -0.10910791504E+03  0.42265902506E+03  0.43652481677E+03  0.00000000000E+00 0.  1.
</event>
<event>
12    1  0.1629553E-001  0.2173256E+03  0.7818608E-02  0.1136082E+00
         21   -1    0    0  501  502  0.00000000000E+00  0.00000000000E+00  0.18092815818E+03  0.18092815818E+03  0.00000000000E+00 0. -1.
         21   -1    0    0  502  503 -0.00000000000E+00 -0.00000000000E+00 -0.26244275896E+03  0.26244275896E+03  0.00000000000E+00 0. -1.
         -6    2    1    2    0  503  0.12075649268E+03  0.55925939628E+02 -0.18809008001E+02  0.21813806286E+03  0.17181558264E+03 0.  0.
        -24    2    3    3    0    0  0.11027695720E+03 -0.14529379029E+02  0.17165509576E+02  0.13820040899E+03  0.80203417517E+02 0.  0.
          6    2    1    2  501    0 -0.12075649268E+03 -0.55925939628E+02 -0.62705592780E+02  0.22523285428E+03  0.17055206253E+03 0.  0.
         24    2    5    5    0    0 -0.45727710260E+02  0.31366935826E+02 -0.71615307976E+01  0.97339941584E+02  0.79679787622E+02 0.  0.
          5    1    5    5  501    0 -0.75028782416E+02 -0.87292875454E+02 -0.55544061983E+02  0.12789291269E+03  0.47000000000E+01 0. -1.
        -11    1    6    6    0    0 -0.22508496902E+02 -0.19750520492E+02  0.18932864349E+02  0.35428362155E+02  0.00000000000E+00 0.  1.
         12    1    6    6    0    0 -0.23219213358E+02  0.51117456318E+02 -0.26094395147E+02  0.61911579430E+02  0.00000000000E+00 0. -1.
         -5    1    3    3    0  503  0.10479535475E+02  0.70455318657E+02 -0.35974517577E+02  0.79937653867E+02  0.47000000000E+01 0.  1.
         11    1    4    4    0    0  0.49330995356E+02 -0.46684454780E+02  0.39306523421E+01  0.68032605777E+02  0.00000000000E+00 0. -1.
        -12    1    4    4    0    0  0.60945961845E+02  0.32155075751E+02  0.13234857234E+02  0.70167803213E+02  0.00000000000E+00 0.  1.
</event>
<event>
12    1  0.1629553E-001  0.2266003E+03  0.7818608E-02  0.1130920E+00
         21   -1    0    0  501  502  0.00000000000E+00  0.00000000000E+00  0.31751817741E+03  0.31751817741E+03  0.00000000000E+00 0.  1.
         21   -1    0    0  502  503 -0.00000000000E+00 -0.00000000000E+00 -0.27896268339E+03  0.27896268339E+03  0.00000000000E+00 0.  1.
         -6    2    1    2    0  503 -0.55455225735E+02 -0.11887652910E+03  0.21816719906E+03  0.30733027241E+03  0.17218611547E+03 0.  0.
        -24    2    3    3    0    0 -0.99932212147E+01 -0.39352881936E+02  0.22814490162E+02  0.91516521254E+02  0.78779812860E+02 0.  0.
          6    2    1    2  501    0  0.55455225735E+02  0.11887652910E+03 -0.17961170504E+03  0.28915058840E+03  0.18477225698E+03 0.  0.
         24    2    5    5    0    0 -0.44274724908E+02  0.66057181190E+02 -0.92041302858E+02  0.14622888988E+03  0.81163319002E+02 0.  0.
          5    1    5    5  501    0  0.99729950643E+02  0.52819347907E+02 -0.87570402179E+02  0.14292169851E+03  0.47000000000E+01 0. -1.
        -13    1    6    6    0    0 -0.44099578868E+02  0.70445764317E+02 -0.36935595393E+02  0.90948429198E+02  0.00000000000E+00 0.  1.
         14    1    6    6    0    0 -0.17514603920E+00 -0.43885831267E+01 -0.55105707465E+02  0.55280460682E+02  0.00000000000E+00 0. -1.
         -5    1    3    3    0  503 -0.45462004520E+02 -0.79523647162E+02  0.19535270890E+03  0.21581375115E+03  0.47000000000E+01 0.  1.
         13    1    4    4    0    0 -0.20553246418E+02  0.16080195738E+02 -0.79045334117E+01  0.27267018205E+02  0.00000000000E+00 0. -1.
        -14    1    4    4    0    0  0.10560025204E+02 -0.55433077674E+02  0.30719023574E+02  0.64249503050E+02  0.00000000000E+00 0.  1.
</event>
<event>
12    1  0.1629553E-001  0.1751566E+03  0.7818608E-02  0.1172694E+00
         21   -1    0    0  503  502  0.00000000000E+00  0.00000000000E+00  0.51393424046E+02  0.51393424046E+02  0.00000000000E+00 0. -1.
         21   -1    0    0  501  503 -0.00000000000E+00 -0.00000000000E+00 -0.62368054246E+03  0.62368054246E+03  0.00000000000E+00 0. -1.
          6    2    1    2  501    0  0.33983824797E+02  0.64973865233E+01 -0.21456635079E+03  0.27698116098E+03  0.17170535307E+03 0.  0.
         24    2    3    3    0    0  0.12316815738E+02 -0.54250936062E+02 -0.71880515872E+02  0.12032499142E+03  0.78844321191E+02 0.  0.
         -6    2    1    2    0  502 -0.33983824797E+02 -0.64973865233E+01 -0.35772076763E+03  0.39809280553E+03  0.17122096202E+03 0.  0.
        -24    2    5    5    0    0  0.16775170847E+02 -0.46868148199E+02 -0.12283096916E+03  0.15436840899E+03  0.79146250946E+02 0.  0.
          5    1    3    3  501    0  0.21667009060E+02  0.60748322585E+02 -0.14268583491E+03  0.15665616957E+03  0.47000000000E+01 0. -1.
        -13    1    4    4    0    0 -0.29731479167E+02 -0.26943737769E+01 -0.24982387179E+02  0.38927370483E+02  0.00000000000E+00 0.  1.
         14    1    4    4    0    0  0.42048294905E+02 -0.51556562285E+02 -0.46898128692E+02  0.81397620935E+02  0.00000000000E+00 0. -1.
         -5    1    5    5    0  502 -0.50758995645E+02  0.40370761675E+02 -0.23488979847E+03  0.24372439653E+03  0.47000000000E+01 0.  1.
         11    1    6    6    0    0  0.44098219734E+02 -0.11968069344E+02 -0.41414496024E+02  0.61668858822E+02  0.00000000000E+00 0. -1.
        -12    1    6    6    0    0 -0.27323048887E+02 -0.34900078855E+02 -0.81416473134E+02  0.92699550172E+02  0.00000000000E+00 0.  1.
</event>
<event>
12    1  0.1629553E-001  0.1977754E+03  0.7818608E-02  0.1151890E+00
         21   -1    0    0  501  502  0.00000000000E+00  0.00000000000E+00  0.14873087288E+04  0.14873087288E+04  0.00000000000E+00 0.  1.
         21   -1    0    0  502  503 -0.00000000000E+00 -0.00000000000E+00 -0.26905761030E+02  0.26905761030E+02  0.00000000000E+00 0.  1.
         -6    2    1    2    0  503 -0.27158852893E+02  0.93767673171E+02  0.60017223097E+03  0.63154126760E+03  0.17060974775E+03 0.  0.
        -24    2    3    3    0    0 -0.33816834541E+02  0.20422598795E+02  0.49573413510E+03  0.50366150171E+03  0.79761612056E+02 0.  0.
          6    2    1    2  501    0  0.27158852893E+02 -0.93767673171E+02  0.86023073684E+03  0.88267322228E+03  0.17200324675E+03 0.  0.
         24    2    5    5    0    0  0.67661578477E+02 -0.84838171175E+02  0.78703061201E+03  0.79840843093E+03  0.79140595434E+02 0.  0.
          5    1    5    5  501    0 -0.40502725584E+02 -0.89295019955E+01  0.73200124830E+02  0.84264791347E+02  0.47000000000E+01 0. -1.
        -11    1    6    6    0    0  0.36798145095E+02 -0.63591519634E+02  0.26386591327E+03  0.27390364189E+03  0.00000000000E+00 0.  1.
         12    1    6    6    0    0  0.30863433381E+02 -0.21246651541E+02  0.52316469874E+03  0.52450478904E+03  0.00000000000E+00 0. -1.
         -5    1    3    3    0  503  0.66579816479E+01  0.73345074376E+02  0.10443809587E+03  0.12787976589E+03  0.47000000000E+01 0.  1.
         11    1    4    4    0    0 -0.41212751750E+02  0.42786850006E+02  0.25741877701E+03  0.26418484476E+03  0.00000000000E+00 0. -1.
        -12    1    4    4    0    0  0.73959172087E+01 -0.22364251211E+02  0.23831535809E+03  0.23947665695E+03  0.00000000000E+00 0.  1.
</event>
<event>
12    1  0.1629553E-001  0.2375099E+03  0.7818608E-02  0.1122347E+00
         21   -1    0    0  501  502  0.00000000000E+00  0.00000000000E+00  0.16519349549E+04  0.16519349549E+04  0.00000000000E+00 0. -1.
         21   -1    0    0  502  503 -0.00000000000E+00 -0.00000000000E+00 -0.37594114077E+02  0.37594114077E+02  0.00000000000E+00 0.  1.
         -6    2    1    2    0  503  0.15897374739E+03 -0.45231993644E+02  0.10811353563E+04  0.11058176205E+04  0.16328002241E+03 0.  0.
        -24    2    3    3    0    0  0.99533273018E+02 -0.21297960307E+02  0.96515223674E+03  0.97322734201E+03  0.72747120868E+02 0.  0.
          6    2    1    2  501    0 -0.15897374739E+03  0.45231993644E+02  0.53320548461E+03  0.58371144849E+03  0.17056488698E+03 0.  0.
         24    2    5    5    0    0 -0.95425208395E+02 -0.38158344131E+02  0.23360411905E+03  0.26625998214E+03  0.75904308358E+02 0.  0.
          5    1    5    5  501    0 -0.63548538999E+02  0.83390337776E+02  0.29960136556E+03  0.31745146635E+03  0.47000000000E+01 0. -1.
        -13    1    6    6    0    0 -0.95094002389E+02 -0.11185451979E+02  0.20839495874E+03  0.22933914287E+03  0.00000000000E+00 0.  1.
         14    1    6    6    0    0 -0.33120600593E+00 -0.26972892152E+02  0.25209160314E+02  0.36920839268E+02  0.00000000000E+00 0. -1.
         -5    1    3    3    0  503  0.59440474376E+02 -0.23934033338E+02  0.11598311951E+03  0.13259027851E+03  0.47000000000E+01 0.  1.
         11    1    4    4    0    0  0.61952994380E+02  0.18157306275E+02  0.66869925188E+03  0.67180841819E+03  0.00000000000E+00 0. -1.
        -12    1    4    4    0    0  0.37580278638E+02 -0.39455266581E+02  0.29645298486E+03  0.30141892382E+03  0.00000000000E+00 0.  1.
</event>
<event>
12    1  0.1629553E-001  0.1830988E+03  0.7818608E-02  0.1164850E+00
         21   -1    0    0  503  502  0.00000000000E+00  0.00000000000E+00  0.23933945144E+03  0.23933945144E+03  0.00000000000E+00 0. -1.
         21   -1    0    0  501  503 -0.00000000000E+00 -0.00000000000E+00 -0.71153883509E+03  0.71153883509E+03  0.00000000000E+00 0. -1.
          6    2    1    2  501    0  0.60204168013E+02 -0.62215708303E+01 -0.66218723297E+03  0.68702118936E+03  0.17275107331E+03 0.  0.
         24    2    3    3    0    0  0.95820673643E+02  0.13119388005E+02 -0.31709690419E+03  0.33952725678E+03  0.73311606246E+02 0.  0.
         -6    2    1    2    0  502 -0.60204168013E+02  0.62215708303E+01  0.18998784932E+03  0.26385709718E+03  0.17280606196E+03 0.  0.
        -24    2    5    5    0    0  0.34527579369E+02  0.98700338691E+01  0.12150951868E+03  0.14681527981E+03  0.74165975691E+02 0.  0.
          5    1    3    3  501    0 -0.35616505630E+02 -0.19340958836E+02 -0.34509032878E+03  0.34749393258E+03  0.47000000000E+01 0. -1.
        -11    1    4    4    0    0  0.44906585492E+02  0.40557159593E+02 -0.12436793769E+03  0.13830715289E+03  0.00000000000E+00 0.  1.
         12    1    4    4    0    0  0.50914088151E+02 -0.27437771588E+02 -0.19272896649E+03  0.20122010388E+03  0.00000000000E+00 0. -1.
         -5    1    5    5    0  502 -0.94731747382E+02 -0.36484630387E+01  0.68478330645E+02  0.11704181737E+03  0.47000000000E+01 0.  1.
         13    1    6    6    0    0 -0.23029818169E+01  0.36651053375E+02  0.49997957850E+02  0.62035467500E+02  0.00000000000E+00 0. -1.
        -14    1    6    6    0    0  0.36830561186E+02 -0.26781019506E+02  0.71511560828E+02  0.84779812309E+02  0.00000000000E+00 0.  1.
</event>
<event>
12    1  0.1629553E-001  0.1848515E+03  0.7818608E-02  0.1163217E+00
         21   -1    0    0  503  502  0.00000000000E+00  0.00000000000E+00  0.76162350665E+02  0.76162350665E+02  0.00000000000E+00 0. -1.
         21   -1    0    0  501  503 -0.00000000000E+00 -0.00000000000E+00 -0.48458554251E+03  0.48458554251E+03  0.00000000000E+00 0. -1.
          6    2    1    2  501    0 -0.52061621919E+02  0.41996785322E+02 -0.28093393697E+03  0.33629442526E+03  0.17232504480E+03 0.  0.
         24    2    3    3    0    0  0.17389376020E+02 -0.21431131955E+02 -0.17805922351E+03  0.19682457735E+03  0.79203177712E+02 0.  0.
         -6    2    1    2    0  502  0.52061621919E+02 -0.41996785322E+02 -0.12748925487E+03  0.22445346791E+03  0.17219670931E+03 0.  0.
        -24    2    5    5    0    0 -0.20519042927E+02  0.22621393544E+02 -0.75344726804E+02  0.11406957526E+03  0.80014258569E+02 0.  0.
          5    1    3    3  501    0 -0.69450997939E+02  0.63427917277E+02 -0.10287471346E+03  0.13946984791E+03  0.47000000000E+01 0. -1.
        -11    1    4    4    0    0  0.10013177970E+02 -0.49768770523E+02 -0.13919763477E+03  0.14816604124E+03  0.00000000000E+00 0.  1.
         12    1    4    4    0    0  0.73761980503E+01  0.28337638568E+02 -0.38861588738E+02  0.48658536112E+02  0.00000000000E+00 0. -1.
         -5    1    5    5    0  502  0.72580664846E+02 -0.64618178866E+02 -0.52144528069E+02  0.11038389265E+03  0.47000000000E+01 0.  1.
         13    1    6    6    0    0  0.11387713835E+02 -0.21412710216E+02 -0.46666026167E+02  0.52591845218E+02  0.00000000000E+00 0. -1.
        -14    1    6    6    0    0 -0.31906756762E+02  0.44034103760E+02 -0.28678700637E+02  0.61477730043E+02  0.00000000000E+00 0.  1.
</event>
<event>
12    1  0.1629553E-001  0.2498564E+03  0.7818608E-02  0.1113461E+00
         21   -1    0    0  501  502  0.00000000000E+00  0.00000000000E+00  0.22265563087E+03  0.22265563087E+03  0.00000000000E+00 0.  1.
         21   -1    0    0  502  503 -0.00000000000E+00 -0.00000000000E+00 -0.29648670842E+03  0.29648670842E+03  0.00000000000E+00 0. -1.
         -6    2    1    2    0  503  0.17574649503E+02 -0.17647590827E+03 -0.98309310118E+02  0.26850129959E+03  0.17599890035E+03 0.  0.
        -24    2    3    3    0    0  0.18166747691E+02 -0.25791889805E+02 -0.73956157078E+02  0.11578852979E+03  0.83319974549E+02 0.  0.
          6    2    1    2  501    0 -0.17574649503E+02  0.17647590827E+03  0.24478232564E+02  0.25064103969E+03  0.17541132348E+03 0.  0.
         24    2    5    5    0    0 -0.76614423792E+02  0.13708211703E+03  0.37467593132E+02  0.17833350741E+03  0.75747888343E+02 0.  0.
          5    1    5    5  501    0  0.59039774289E+02  0.39393791233E+02 -0.12989360568E+02  0.72307532276E+02  0.47000000000E+01 0. -1.
        -11    1    6    6    0    0 -0.15834981964E+02 -0.70959990838E+01  0.80412939899E+01  0.19124912178E+02  0.00000000000E+00 0.  1.
         12    1    6    6    0    0 -0.60779441828E+02  0.14417811612E+03  0.29426299142E+02  0.15920859524E+03  0.00000000000E+00 0. -1.
         -5    1    3    3    0  503 -0.59209818794E+00 -0.15068401846E+03 -0.24353153041E+02  0.15271276981E+03  0.47000000000E+01 0.  1.
         11    1    4    4    0    0 -0.26555942663E+02  0.12403509979E+02 -0.16829413357E+02  0.33797844672E+02  0.00000000000E+00 0. -1.
        -12    1    4    4    0    0  0.44722690354E+02 -0.38195399784E+02 -0.57126743721E+02  0.81990685114E+02  0.00000000000E+00 0.  1.
</event>
<event>
12    1  0.1629553E-001  0.1794910E+03  0.7818608E-02  0.1169826E+00
         21   -1    0    0  501  502  0.00000000000E+00  0.00000000000E+00  0.10051368233E+04  0.10051368233E+04  0.00000000000E+00 0. -1.
         21   -1    0    0  502  503 -0.00000000000E+00 -0.00000000000E+00 -0.18696815545E+03  0.18696815545E+03  0.00000000000E+00 0. -1.
         -6    2    1    2    0  503  0.51014053909E+02  0.85778443880E+01 -0.13418893313E+03  0.22410641928E+03  0.17187496700E+03 0.  0.
        -24    2    3    3    0    0 -0.26154704487E+02 -0.21651833537E+02 -0.10644586894E+03  0.13658146107E+03  0.78555089155E+02 0.  0.
          6    2    1    2  501    0 -0.51014053909E+02 -0.85778443880E+01  0.95235760099E+03  0.96799855947E+03  0.16540918315E+03 0.  0.
         24    2    5    5    0    0 -0.82584979174E+02 -0.31219156539E+02  0.51100286294E+03  0.52491228442E+03  0.81326907524E+02 0.  0.
          5    1    5    5  501    0  0.31570925265E+02  0.22641312151E+02  0.44135473805E+03  0.44308627505E+03  0.47000000000E+01 0. -1.
        -11    1    6    6    0    0 -0.24401895446E+02 -0.52241182814E+02  0.22234710908E+03  0.22970161210E+03  0.00000000000E+00 0.  1.
         12    1    6    6    0    0 -0.58183083728E+02  0.21022026274E+02  0.28865575386E+03  0.29521067233E+03  0.00000000000E+00 0. -1.
         -5    1    3    3    0  503  0.77168758396E+02  0.30229677925E+02 -0.27743064193E+02  0.87524958216E+02  0.47000000000E+01 0.  1.
         13    1    4    4    0    0 -0.12818386098E+02 -0.92418612416E+01 -0.11526404408E+03  0.11634226609E+03  0.00000000000E+00 0. -1.
        -14    1    4    4    0    0 -0.13336318388E+02 -0.12409972296E+02  0.88181751443E+01  0.20239194979E+02  0.00000000000E+00 0.  1.
</event>
<event>
12    1  0.1629553E-001  0.1895586E+03  0.7818608E-02  0.1158951E+00
         21   -1    0    0  503  502  0.00000000000E+00  0.00000000000E+00  0.56299107565E+03  0.56299107565E+03  0.00000000000E+00 0. -1.
         21   -1    0    0  501  503 -0.00000000000E+00 -0.00000000000E+00 -0.64180486862E+02  0.64180486862E+02  0.00000000000E+00 0. -1.
          6    2    1    2  501    0  0.52424528628E+02 -0.60575279546E+02  0.22168028816E+03  0.29141321072E+03  0.17135289180E+03 0.  0.
         24    2    3    3    0    0 -0.16870275429E+02 -0.33195581586E+01  0.17262259259E+03  0.18890108950E+03  0.74762533954E+02 0.  0.
         -6    2    1    2    0  502 -0.52424528628E+02  0.60575279546E+02  0.27713030063E+03  0.33575835180E+03  0.17179863672E+03 0.  0.
        -24    2    5    5    0    0  0.29651798773E+02  0.63106314306E+02  0.17839753595E+03  0.20725473909E+03  0.79165712072E+02 0.  0.
          5    1    3    3  501    0  0.69294804057E+02 -0.57255721387E+02  0.49057695567E+02  0.10251212121E+03  0.47000000000E+01 0. -1.
        -11    1    4    4    0    0 -0.23883275088E+02 -0.10227452580E+02  0.13139646324E+02  0.29114634133E+02  0.00000000000E+00 0.  1.
         12    1    4    4    0    0  0.70129996589E+01  0.69078944214E+01  0.15948294627E+03  0.15978645537E+03  0.00000000000E+00 0. -1.
         -5    1    5    5    0  502 -0.82076327401E+02 -0.25310347600E+01  0.98732764684E+02  0.12850361271E+03  0.47000000000E+01 0.  1.
         13    1    6    6    0    0 -0.22462630191E+02  0.39390723279E+02  0.10334369049E+03  0.11285440709E+03  0.00000000000E+00 0. -1.
        -14    1    6    6    0    0  0.52114428964E+02  0.23715591026E+02  0.75053845462E+02  0.94400332005E+02  0.00000000000E+00 0.  1.
</event>
<event>
12    1  0.1629553E-001  0.1845330E+03  0.7818608E-02  0.1163689E+00
         21   -1    0    0  503  502  0.00000000000E+00  0.00000000000E+00  0.49428845451E+03  0.49428845451E+03  0.00000000000E+00 0. -1.
         21   -1    0    0  501  503 -0.00000000000E+00 -0.00000000000E+00 -0.11020629984E+03  0.11020629984E+03  0.00000000000E+00 0. -1.
          6    2    1    2  501    0  0.63857250406E+02  0.18422333750E+01  0.65428075060E+01  0.18464895137E+03  0.17312216687E+03 0.  0.
         24    2    3    3    0    0  0.11055059689E+03 -0.65312089241E+01  0.12175800831E+02  0.13664682896E+03  0.79120253890E+02 0.  0.
         -6    2    1    2    0  502 -0.63857250406E+02 -0.18422333750E+01  0.37753934716E+03  0.41984580298E+03  0.17220161838E+03 0.  0.
        -24    2    5    5    0    0 -0.10099428813E+03  0.32831174806E+02  0.24583368222E+03  0.27860176953E+03  0.76857103779E+02 0.  0.
          5    1    3    3  501    0 -0.46693346489E+02  0.83734422990E+01 -0.56329933251E+01  0.48002122412E+02  0.47000000000E+01 0. -1.
        -13    1    4    4    0    0  0.11707619364E+01 -0.13191805490E+02  0.22990323472E+02  0.26532044568E+02  0.00000000000E+00 0.  1.
         14    1    4    4    0    0  0.10937983496E+03  0.66605965660E+01 -0.10814522641E+02  0.11011478439E+03  0.00000000000E+00 0. -1.
         -5    1    5    5    0  502  0.37137037723E+02 -0.34673408181E+02  0.13170566494E+03  0.14124403344E+03  0.47000000000E+01 0.  1.
         13    1    6    6    0    0 -0.75090777651E+02  0.25661311244E+02  0.23758494966E+03  0.25048699784E+03  0.00000000000E+00 0. -1.
        -14    1    6    6    0    0 -0.25903510478E+02  0.71698635618E+01  0.82487325593E+01  0.28114771694E+02  0.00000000000E+00 0.  1.
</event>
<event>
12    1  0.1629553E-001  0.1875920E+03  0.7818608E-02  0.1161984E+00
         21   -1    0    0  501  502  0.00000000000E+00  0.00000000000E+00  0.40588726461E+02  0.40588726461E+02  0.00000000000E+00 0.  1.
         21   -1    0    0  502  503 -0.00000000000E+00 -0.00000000000E+00 -0.84211273554E+03  0.84211273554E+03  0.00000000000E+00 0.  1.
         -6    2    1    2    0  503  0.53971158272E+02 -0.53639995040E+02 -0.38941793364E+03  0.43224654136E+03  0.17146606219E+03 0.  0.
        -24    2    3    3    0    0  0.45521466457E+02  0.28342237472E+02 -0.27189236965E+03  0.28862609737E+03  0.80647858489E+02 0.  0.
          6    2    1    2  501    0 -0.53971158272E+02  0.53639995040E+02 -0.41210607544E+03  0.45045492064E+03  0.16519105037E+03 0.  0.
         24    2    5    5    0    0 -0.85418467871E+02  0.76073436462E+02 -0.35324551886E+03  0.37989397042E+03  0.80333988941E+02 0.  0.
          5    1    5    5  501    0  0.31447309599E+02 -0.22433441421E+02 -0.58860556579E+02  0.70560950219E+02  0.47000000000E+01 0. -1.
        -13    1    6    6    0    0 -0.50894635685E+01  0.16467856594E+02 -0.17214012151E+03  0.17300090860E+03  0.00000000000E+00 0.  1.
         14    1    6    6    0    0 -0.80329004302E+02  0.59605579868E+02 -0.18110539735E+03  0.20689306183E+03  0.00000000000E+00 0. -1.
         -5    1    3    3    0  503  0.84496918151E+01 -0.81982232512E+02 -0.11752556399E+03  0.14362044399E+03  0.47000000000E+01 0.  1.
         11    1    4    4    0    0  0.13025438204E+02 -0.71455250268E+01 -0.20855593064E+03  0.20908442499E+03  0.00000000000E+00 0. -1.
        -12    1    4    4    0    0  0.32496028253E+02  0.35487762498E+02 -0.63336439011E+02  0.79541672386E+02  0.00000000000E+00 0.  1.
</event>
<event>
12    1  0.1629553E-001  0.1813912E+03  0.7818608E-02  0.1166749E+00
         21   -1    0    0  503  502  0.00000000000E+00  0.00000000000E+00  0.90712539267E+02  0.90712539267E+02  0.00000000000E+00 0. -1.
         21   -1    0    0  501  503 -0.00000000000E+00 -0.00000000000E+00 -0.36686554613E+03  0.36686554613E+03  0.00000000000E+00 0. -1.
          6    2    1    2  501    0 -0.28803497441E+02  0.46868697326E+02 -0.16903228866E+03  0.24794088541E+03  0.17284805985E+03 0.  0.
         24    2    3    3    0    0 -0.16216129462E+02  0.96867163225E+02 -0.13885048675E+03  0.18801326580E+03  0.80145619227E+02 0.  0.
         -6    2    1    2    0  502  0.28803497441E+02 -0.46868697326E+02 -0.10712071820E+03  0.20963719999E+03  0.17160009061E+03 0.  0.
        -24    2    5    5    0    0 -0.62368272294E+01  0.38885837075E+02 -0.53939193139E+02  0.10271653252E+03  0.78040009984E+02 0.  0.
          5    1    3    3  501    0 -0.12587367979E+02 -0.49998465899E+02 -0.30181801911E+02  0.59927619605E+02  0.47000000000E+01 0. -1.
        -13    1    4    4    0    0 -0.41402200037E+02  0.30418483527E+02 -0.34951270595E+02  0.62137087348E+02  0.00000000000E+00 0.  1.
         14    1    4    4    0    0  0.25186070575E+02  0.66448679698E+02 -0.10389921616E+03  0.12587617846E+03  0.00000000000E+00 0. -1.
         -5    1    5    5    0  502  0.35040324670E+02 -0.85754534401E+02 -0.53181525060E+02  0.10692066746E+03  0.47000000000E+01 0.  1.
         13    1    6    6    0    0 -0.18697761626E+02  0.48438302233E+02 -0.59949024961E+01  0.52266760651E+02  0.00000000000E+00 0. -1.
        -14    1    6    6    0    0  0.12460934397E+02 -0.95524651584E+01 -0.47944290643E+02  0.50449771872E+02  0.00000000000E+00 0.  1.
</event>
<event>
12    1  0.1629553E-001  0.1953372E+03  0.7818608E-02  0.1155541E+00
         21   -1    0    0  501  502  0.00000000000E+00  0.00000000000E+00  0.13865995767E+03  0.13865995767E+03  0.00000000000E+00 0. -1.
         21   -1    0    0  502  503 -0.00000000000E+00 -0.00000000000E+00 -0.33399379628E+03  0.33399379628E+03  0.00000000000E+00 0. -1.
         -6    2    1    2    0  503 -0.66294110561E+02  0.56191111481E+02 -0.20758389401E+03  0.28503983808E+03  0.17494080751E+03 0.  0.
        -24    2    3    3    0    0 -0.99444387174E+02  0.79386598841E+02 -0.18612822677E+03  0.23900281895E+03  0.79291944420E+02 0.  0.
          6    2    1    2  501    0  0.66294110561E+02 -0.56191111481E+02  0.12250055398E+02  0.18761391587E+03  0.16582088972E+03 0.  0.
         24    2    5    5    0    0  0.54956189532E+02  0.20292937456E+02  0.37585574205E+02  0.10611338392E+03  0.80096122131E+02 0.  0.
          5    1    5    5  501    0  0.11337921030E+02 -0.76484048938E+02 -0.25335518807E+02  0.81500531952E+02  0.47000000000E+01 0. -1.
        -11    1    6    6    0    0  0.37263224052E+02 -0.74012773694E+00 -0.20005195404E+02  0.42300159562E+02  0.00000000000E+00 0.  1.
         12    1    6    6    0    0  0.17692965480E+02  0.21033065193E+02  0.57590769609E+02  0.63813224359E+02  0.00000000000E+00 0. -1.
         -5    1    3    3    0  503  0.33150276613E+02 -0.23195487360E+02 -0.21455667243E+02  0.46037019128E+02  0.47000000000E+01 0.  1.
         13    1    4    4    0    0 -0.93646074591E+02  0.62001627838E+02 -0.98208866812E+02  0.14919373533E+03  0.00000000000E+00 0. -1.
        -14    1    4    4    0    0 -0.57983125828E+01  0.17384971004E+02 -0.87919359957E+02  0.89809083621E+02  0.00000000000E+00 0.  1.
</event>
<event>
12    1  0.1629553E-001  0.2321470E+03  0.7818608E-02  0.1125265E+00
         21   -1    0    0  503  502  0.00000000000E+00  0.00000000000E+00  0.18239550747E+04  0.18239550747E+04  0.00000000000E+00 0. -1.
         21   -1    0    0  501  503 -0.00000000000E+00 -0.00000000000E+00 -0.13973476265E+03  0.13973476265E+03  0.00000000000E+00 0.  1.
          6    2    1    2  501    0  0.91637248010E+02 -0.12425065452E+03 -0.29859390801E+02  0.23405943046E+03  0.17336846136E+03 0.  0.
         24    2    3    3    0    0  0.30792835065E+01 -0.65226953522E+02 -0.64693944375E+02  0.12197978699E+03  0.80185563186E+02 0.  0.
         -6    2    1    2    0  502 -0.91637248010E+02  0.12425065452E+03  0.17140797028E+04  0.17296304068E+04  0.17238476251E+03 0.  0.
        -24    2    5    5    0    0 -0.74811322578E+02  0.14064664566E+02  0.10858705081E+04  0.10915920487E+04  0.81632662924E+02 0.  0.
          5    1    3    3  501    0  0.88557964504E+02 -0.59023701000E+02  0.34834553574E+02  0.11207964347E+03  0.47000000000E+01 0. -1.
        -11    1    4    4    0    0  0.15795088983E+01  0.19023534837E+02 -0.13554797421E+02  0.23412011002E+02  0.00000000000E+00 0.  1.
         12    1    4    4    0    0  0.14997746082E+01 -0.84250488359E+02 -0.51139146955E+02  0.98567775991E+02  0.00000000000E+00 0. -1.
         -5    1    5    5    0  502 -0.16825925432E+02  0.11018598996E+03  0.62820919473E+03  0.63803835816E+03  0.47000000000E+01 0.  1.
         11    1    6    6    0    0 -0.15000356411E+02  0.42313872193E+02  0.38569140415E+03  0.38829542066E+03  0.00000000000E+00 0. -1.
        -12    1    6    6    0    0 -0.59810966167E+02 -0.28249207627E+02  0.70017910393E+03  0.70329662803E+03  0.00000000000E+00 0.  1.
</event>
<event>
12    1  0.1629553E-001  0.2635780E+03  0.7818608E-02  0.1105064E+00
         21   -1    0    0  503  502  0.00000000000E+00  0.00000000000E+00  0.24640685317E+03  0.24640685317E+03  0.00000000000E+00 0.  1.
         21   -1    0    0  501  503 -0.00000000000E+00 -0.00000000000E+00 -0.28212826823E+03  0.28212826823E+03  0.00000000000E+00 0.  1.
          6    2    1    2  501    0 -0.58682989657E+02  0.19099226309E+03 -0.29646347006E+02  0.26524002614E+03  0.17190586883E+03 0.  0.
         24    2    3    3    0    0 -0.80306199326E+02  0.20577963248E+03 -0.38112494448E+02  0.23731163301E+03  0.77909602348E+02 0.  0.
         -6    2    1    2    0  502  0.58682989657E+02 -0.19099226309E+03 -0.60750680511E+01  0.26329509527E+03  0.17136412375E+03 0.  0.
        -24    2    5    5    0    0  0.19252093415E+01 -0.24468989993E+02  0.18010576413E+02  0.85661612004E+02  0.80069301271E+02 0.  0.
          5    1    3    3  501    0  0.21623209669E+02 -0.14787369390E+02  0.84661474422E+01  0.27928393122E+02  0.47000000000E+01 0. -1.
        -13    1    4    4    0    0 -0.61165907473E+02  0.56853758419E+02 -0.57015948079E+01  0.83702606092E+02  0.00000000000E+00 0.  1.
         14    1    4    4    0    0 -0.19140291853E+02  0.14892587406E+03 -0.32410899640E+02  0.15360902692E+03  0.00000000000E+00 0. -1.
         -5    1    5    5    0  502  0.56757780315E+02 -0.16652327309E+03 -0.24085644464E+02  0.17763348327E+03  0.47000000000E+01 0.  1.
         11    1    6    6    0    0  0.28573467687E+02  0.11490606903E+02 -0.10565968775E+02  0.32559434867E+02  0.00000000000E+00 0. -1.
        -12    1    6    6    0    0 -0.26648258346E+02 -0.35959596896E+02  0.28576545188E+02  0.53102177137E+02  0.00000000000E+00 0.  1.
</event>
<event>
12    1  0.1629553E-001  0.3455259E+03  0.7818608E-02  0.1064488E+00
         21   -1    0    0  503  502  0.00000000000E+00  0.00000000000E+00  0.19960835628E+04  0.19960835628E+04  0.00000000000E+00 0.  1.
         21   -1    0    0  501  503 -0.00000000000E+00 -0.00000000000E+00 -0.84140933267E+02  0.84140933267E+02  0.00000000000E+00 0. -1.
          6    2    1    2  501    0 -0.29944967492E+03 -0.27050876941E+01  0.39605890954E+03  0.52546034106E+03  0.17195489202E+03 0.  0.
         24    2    3    3    0    0 -0.22180366246E+03  0.61707976897E+02  0.29330485418E+03  0.38138247310E+03  0.80125615214E+02 0.  0.
         -6    2    1    2    0  502  0.29944967492E+03  0.27050876941E+01  0.15158837200E+04  0.15547641550E+04  0.17236791998E+03 0.  0.
        -24    2    5    5    0    0  0.86109418665E+02 -0.42199568815E+02  0.46580764259E+03  0.48228462073E+03  0.80162708921E+02 0.  0.
          5    1    3    3  501    0 -0.77646012466E+02 -0.64413064591E+02  0.10275405536E+03  0.14407786796E+03  0.47000000000E+01 0. -1.
        -13    1    4    4    0    0 -0.10959827222E+03  0.69369235167E+02  0.13520777442E+03  0.18736332172E+03  0.00000000000E+00 0.  1.
         14    1    4    4    0    0 -0.11220539024E+03 -0.76612582698E+01  0.15809707975E+03  0.19401915138E+03  0.00000000000E+00 0. -1.
         -5    1    5    5    0  502  0.21334025626E+03  0.44904656509E+02  0.10500760774E+04  0.10724795343E+04  0.47000000000E+01 0.  1.
         13    1    6    6    0    0  0.56306097000E+02 -0.35007616915E+02  0.43027588200E+03  0.43535415978E+03  0.00000000000E+00 0. -1.
        -14    1    6    6    0    0  0.29803321665E+02 -0.71919519000E+01  0.35531760588E+02  0.46930460949E+02  0.00000000000E+00 0.  1.
</event>
<event>
12    1  0.1629553E-001  0.1753206E+03  0.7818608E-02  0.1172558E+00
         21   -1    0    0  503  502  0.00000000000E+00  0.00000000000E+00  0.20368422615E+03  0.20368422615E+03  0.00000000000E+00 0.  1.
         21   -1    0    0  501  503 -0.00000000000E+00 -0.00000000000E+00 -0.20374775399E+03  0.20374775399E+03  0.00000000000E+00 0.  1.
          6    2    1    2  501    0 -0.26650672249E+02  0.22154513051E+02  0.10420998978E+03  0.20395346847E+03  0.17186103268E+03 0.  0.
         24    2    3    3    0    0 -0.71779626035E+02  0.33658292395E+02  0.10964425552E+03  0.15683043108E+03  0.79301487908E+02 0.  0.
         -6    2    1    2    0  502  0.26650672249E+02 -0.22154513051E+02 -0.10427351762E+03  0.20347851167E+03  0.17125845222E+03 0.  0.
        -24    2    5    5    0    0  0.77439325360E+02 -0.36602986665E+02 -0.92387943092E+02  0.14914985849E+03  0.79834331679E+02 0.  0.
          5    1    3    3  501    0  0.45128953786E+02 -0.11503779343E+02 -0.54342657414E+01  0.47123037393E+02  0.47000000000E+01 0. -1.
        -13    1    4    4    0    0 -0.54259501300E+02  0.43437586794E+02  0.31785728679E+02  0.76428070599E+02  0.00000000000E+00 0.  1.
         14    1    4    4    0    0 -0.17520124735E+02 -0.97792943988E+01  0.77858526838E+02  0.80402360481E+02  0.00000000000E+00 0. -1.
         -5    1    5    5    0  502 -0.50788653110E+02  0.14448473613E+02 -0.11885574526E+02  0.54328653180E+02  0.47000000000E+01 0.  1.
         13    1    6    6    0    0  0.12052039731E+01 -0.28191947309E+02 -0.59198980719E+02  0.65580162609E+02  0.00000000000E+00 0. -1.
        -14    1    6    6    0    0  0.76234121386E+02 -0.84110393562E+01 -0.33188962372E+02  0.83569695883E+02  0.00000000000E+00 0.  1.
</event>
<event>
12    1  0.1629553E-001  0.2000167E+03  0.7818608E-02  0.1150222E+00
         21   -1    0    0  503  502  0.00000000000E+00  0.00000000000E+00  0.70033808058E+02  0.70033808058E+02  0.00000000000E+00 0. -1.
         21   -1    0    0  501  503 -0.00000000000E+00 -0.00000000000E+00 -0.59584381988E+03  0.59584381988E+03  0.00000000000E+00 0. -1.
          6    2    1    2  501    0  0.65527629867E+02 -0.71883007530E+02 -0.18811043827E+03  0.27457643240E+03  0.17477311920E+03 0.  0.
         24    2    3    3    0    0 -0.16590432822E+02 -0.34740841814E+01 -0.12818236122E+03  0.15195253003E+03  0.79821938919E+02 0.  0.
         -6    2    1    2    0  502 -0.65527629867E+02  0.71883007530E+02 -0.33769957356E+03  0.39130119554E+03  0.17208889158E+03 0.  0.
        -24    2    5    5    0    0 -0.39958082502E+02 -0.22267365932E+02 -0.21189960280E+03  0.23203469807E+03  0.82741618899E+02 0.  0.
          5    1    3    3  501    0  0.82118062689E+02 -0.68408923348E+02 -0.59928077052E+02  0.12262390237E+03  0.47000000000E+01 0. -1.
        -13    1    4    4    0    0 -0.23295608169E+02 -0.27926267615E+02 -0.21389202849E+02  0.42190754691E+02  0.00000000000E+00 0.  1.
         14    1    4    4    0    0  0.67051753468E+01  0.24452183433E+02 -0.10679315837E+03  0.10976177534E+03  0.00000000000E+00 0. -1.
         -5    1    5    5    0  502 -0.25569547365E+02  0.94150373462E+02 -0.12579997076E+03  0.15926649748E+03  0.47000000000E+01 0.  1.
         13    1    6    6    0    0 -0.21122369039E+02  0.30364319365E+02 -0.63948759921E+02  0.73875505140E+02  0.00000000000E+00 0. -1.
        -14    1    6    6    0    0 -0.18835713463E+02 -0.52631685297E+02 -0.14795084288E+03  0.15815919293E+03  0.00000000000E+00 0.  1.
</event>
<event>
12    1  0.1629553E-001  0.2487120E+03  0.7818608E-02  0.1114450E+00
         21   -1    0    0  501  502  0.00000000000E+00  0.00000000000E+00  0.11821664070E+03  0.11821664070E+03  0.00000000000E+00 0.  1.
         21   -1    0    0  502  503 -0.00000000000E+00 -0.00000000000E+00 -0.54140785460E+03  0.54140785460E+03  0.00000000000E+00 0. -1.
         -6    2    1    2    0  503 -0.14138094901E+03 -0.11157817958E+03 -0.27961856264E+03  0.37422480884E+03  0.17152085609E+03 0.  0.
        -24    2    3    3    0    0 -0.57117824698E+02  0.62507377434E+01 -0.71110606226E+02  0.12029256243E+03  0.78179694535E+02 0.  0.
          6    2    1    2  501    0  0.14138094901E+03  0.11157817958E+03 -0.14357265126E+03  0.28539968647E+03  0.16852777796E+03 0.  0.
         24    2    5    5    0    0  0.76962213867E+02  0.56959044923E+02 -0.15577307571E+03  0.19993645657E+03  0.80881520683E+02 0.  0.
          5    1    5    5  501    0  0.64418735148E+02  0.54619134654E+02  0.12200424448E+02  0.85463229902E+02  0.47000000000E+01 0. -1.
        -13    1    6    6    0    0  0.67649449943E+01  0.43587803311E+02 -0.24457159896E+02  0.50436234479E+02  0.00000000000E+00 0.  1.
         14    1    6    6    0    0  0.70197268872E+02  0.13371241612E+02 -0.13131591581E+03  0.14950022209E+03  0.00000000000E+00 0. -1.
         -5    1    3    3    0  503 -0.84263124317E+02 -0.11782891732E+03 -0.20850795642E+03  0.25393224641E+03  0.47000000000E+01 0.  1.
         13    1    4    4    0    0  0.18816467160E+02 -0.67255033356E+01 -0.15202377132E+02  0.25107849409E+02  0.00000000000E+00 0. -1.
        -14    1    4    4    0    0 -0.75934291857E+02  0.12976241079E+02 -0.55908229094E+02  0.95184713021E+02  0.00000000000E+00 0.  1.
</event>
<event>
12    1  0.1629553E-001  0.1919732E+03  0.7818608E-02  0.1158176E+00
         21   -1    0    0  503  502  0.00000000000E+00  0.00000000000E+00  0.13581513797E+03  0.13581513797E+03  0.00000000000E+00 0.  1.
         21   -1    0    0  501  503 -0.00000000000E+00 -0.00000000000E+00 -0.36172530153E+03  0.36172530153E+03  0.00000000000E+00 0.  1.
          6    2    1    2  501    0  0.70428413184E+02 -0.18101351386E+02 -0.24486111126E+03  0.31114414410E+03  0.17766793265E+03 0.  0.
         24    2    3    3    0    0  0.11204039417E+03 -0.25742734154E+02 -0.22311079939E+03  0.26334128060E+03  0.79714885531E+02 0.  0.
         -6    2    1    2    0  502 -0.70428413184E+02  0.18101351386E+02  0.18950947706E+02  0.18639629540E+03  0.17057731448E+03 0.  0.
        -24    2    5    5    0    0  0.11253091635E+02 -0.39933458990E+02  0.60008250184E+01  0.85254300550E+02  0.74235925555E+02 0.  0.
          5    1    3    3  501    0 -0.41611980986E+02  0.76413827677E+01 -0.21750311874E+02  0.47802863500E+02  0.47000000000E+01 0. -1.
        -13    1    4    4    0    0  0.11080744712E+03 -0.45700991623E+02 -0.18909848064E+03  0.22388636929E+03  0.00000000000E+00 0.  1.
         14    1    4    4    0    0  0.12329470468E+01  0.19958257469E+02 -0.34012318747E+02  0.39454911306E+02  0.00000000000E+00 0. -1.
         -5    1    5    5    0  502 -0.81681504819E+02  0.58034810377E+02  0.12950122688E+02  0.10114199485E+03  0.47000000000E+01 0.  1.
         11    1    6    6    0    0 -0.24178631368E+02 -0.31593599607E+02 -0.15820998077E+02  0.42814316894E+02  0.00000000000E+00 0. -1.
        -12    1    6    6    0    0  0.35431723003E+02 -0.83398593826E+01  0.21821823095E+02  0.42439983655E+02  0.00000000000E+00 0.  1.
</event>
<event>
12    1  0.1629553E-001  0.2408534E+03  0.7818608E-02  0.1119825E+00
         21   -1    0    0  503  502  0.00000000000E+00  0.00000000000E+00  0.77728374413E+03  0.77728374413E+03  0.00000000000E+00 0. -1.
         21   -1    0    0  501  503 -0.00000000000E+00 -0.00000000000E+00 -0.75886211899E+02  0.75886211899E+02  0.00000000000E+00 0. -1.
          6    2    1    2  501    0  0.77005201302E+02 -0.14854524944E+03  0.42850166697E+03  0.49155266667E+03  0.17324795338E+03 0.  0.
         24    2    3    3    0    0  0.12139343368E+01 -0.85722182122E+02  0.33977364384E+03  0.35894118140E+03  0.77735940934E+02 0.  0.
         -6    2    1    2    0  502 -0.77005201302E+02  0.14854524944E+03  0.27289586526E+03  0.36161728936E+03  0.16822431016E+03 0.  0.
        -24    2    5    5    0    0 -0.82750818791E+02  0.14400495450E+03  0.28923743479E+03  0.34310342177E+03  0.80476949630E+02 0.  0.
          5    1    3    3  501    0  0.75791266966E+02 -0.62823067321E+02  0.88728023130E+02  0.13261148527E+03  0.47000000000E+01 0. -1.
        -13    1    4    4    0    0  0.18871248493E+02  0.70492753419E+01  0.81212642632E+02  0.83673828798E+02  0.00000000000E+00 0.  1.
         14    1    4    4    0    0 -0.17657314156E+02 -0.92771457463E+02  0.25856100121E+03  0.27526735261E+03  0.00000000000E+00 0. -1.
         -5    1    5    5    0  502  0.57456174883E+01  0.45402949455E+01 -0.16341569525E+02  0.18513867588E+02  0.47000000000E+01 0.  1.
         13    1    6    6    0    0 -0.79312829610E+02  0.57985395994E+02  0.14576229238E+03  0.17578247060E+03  0.00000000000E+00 0. -1.
        -14    1    6    6    0    0 -0.34379891806E+01  0.86019558503E+02  0.14347514240E+03  0.16732095118E+03  0.00000000000E+00 0.  1.
</event>
<event>
12    1  0.1629553E-001  0.1731519E+03  0.7818608E-02  0.1175004E+00
         21   -1    0    0  501  502  0.00000000000E+00  0.00000000000E+00  0.51930749366E+02  0.51930749366E+02  0.00000000000E+00 0.  1.
         21   -1    0    0  502  503 -0.00000000000E+00 -0.00000000000E+00 -0.90962111093E+03  0.90962111093E+03  0.00000000000E+00 0.  1.
         -6    2    1    2    0  503  0.11742871410E+02 -0.17206966426E+02 -0.72047502221E+03  0.74062280926E+03  0.17030535297E+03 0.  0.
        -24    2    3    3    0    0  0.38076596586E+02 -0.57363713007E+02 -0.60841599696E+03  0.61861729907E+03  0.88186816331E+02 0.  0.
          6    2    1    2  501    0 -0.11742871410E+02  0.17206966426E+02 -0.13721533936E+03  0.22092905104E+03  0.17189421606E+03 0.  0.
         24    2    5    5    0    0 -0.36089037437E+02 -0.10089087731E+02 -0.10998747132E+02  0.89435596727E+02  0.80458344559E+02 0.  0.
          5    1    5    5  501    0  0.24346166027E+02  0.27296054156E+02 -0.12621659223E+03  0.13149345431E+03  0.47000000000E+01 0. -1.
        -13    1    6    6    0    0 -0.14557992606E+02  0.29990892751E+02 -0.25181458445E+02  0.41779117345E+02  0.00000000000E+00 0.  1.
         14    1    6    6    0    0 -0.21531044831E+02 -0.40079980482E+02  0.14182711313E+02  0.47656479382E+02  0.00000000000E+00 0. -1.
         -5    1    3    3    0  503 -0.26333725177E+02  0.40156746582E+02 -0.11205902525E+03  0.12200551019E+03  0.47000000000E+01 0.  1.
         11    1    4    4    0    0 -0.16311003692E+02  0.62292734451E+01 -0.34846961071E+02  0.38976446542E+02  0.00000000000E+00 0. -1.
        -12    1    4    4    0    0  0.54387600279E+02 -0.63592986452E+02 -0.57356903588E+03  0.57964085252E+03  0.00000000000E+00 0.  1.
</event>
<event>
12    1  0.1629553E-001  0.1919302E+03  0.7818608E-02  0.1158306E+00
         21   -1    0    0  501  502  0.00000000000E+00  0.00000000000E+00  0.59816056118E+03  0.59816056118E+03  0.00000000000E+00 0. -1.
         21   -1    0    0  502  503 -0.00000000000E+00 -0.00000000000E+00 -0.70594891242E+02  0.70594891242E+02  0.00000000000E+00 0. -1.
         -6    2    1    2    0  503 -0.23046867043E+02 -0.79740240338E+02  0.12643480335E+03  0.22407223549E+03  0.16532677705E+03 0.  0.
        -24    2    3    3    0    0 -0.77419384567E+02 -0.46149281715E+02  0.96110473934E+02  0.15317528127E+03  0.78114827545E+02 0.  0.
          6    2    1    2  501    0  0.23046867043E+02  0.79740240338E+02  0.40113086659E+03  0.44468321693E+03  0.17305353877E+03 0.  0.
         24    2    5    5    0    0  0.21073459294E+02 -0.10004463419E+02  0.10155928509E+03  0.13191616522E+03  0.80891323917E+02 0.  0.
          5    1    5    5  501    0  0.19734077489E+01  0.89744703757E+02  0.29957158150E+03  0.31276705171E+03  0.47000000000E+01 0. -1.
        -13    1    6    6    0    0 -0.80778247155E+01 -0.26778391136E+02  0.34257610285E+01  0.28179235664E+02  0.00000000000E+00 0.  1.
         14    1    6    6    0    0  0.29151284009E+02  0.16773927717E+02  0.98133524058E+02  0.10373692956E+03  0.00000000000E+00 0. -1.
         -5    1    3    3    0  503  0.54372517524E+02 -0.33590958623E+02  0.30324329411E+02  0.70896954218E+02  0.47000000000E+01 0.  1.
         11    1    4    4    0    0 -0.56242229879E+02 -0.68073704829E+02  0.65211576026E+02  0.10977143234E+03  0.00000000000E+00 0. -1.
        -12    1    4    4    0    0 -0.21177154688E+02  0.21924423114E+02  0.30898897908E+02  0.43403848925E+02  0.00000000000E+00 0.  1.
</event>
<event>
12    1  0.1629553E-001  0.1916147E+03  0.7818608E-02  0.1157101E+00
         21   -1    0    0  503  502  0.00000000000E+00  0.00000000000E+00  0.12898730856E+04  0.12898730856E+04  0.00000000000E+00 0.  1.
         21   -1    0    0  501  503 -0.00000000000E+00 -0.00000000000E+00 -0.45630175590E+02  0.45630175590E+02  0.00000000000E+00 0. -1.
          6    2    1    2  501    0  0.25928875254E+02  0.78945920862E+02  0.21146959234E+03  0.28510480909E+03  0.17222252666E+03 0.  0.
         24    2    3    3    0    0  0.68603006955E+02  0.53671679012E+01  0.12586508234E+03  0.16433587047E+03  0.80181545977E+02 0.  0.
         -6    2    1    2    0  502 -0.25928875254E+02 -0.78945920862E+02  0.10327733177E+04  0.10503984521E+04  0.17265983172E+03 0.  0.
        -24    2    5    5    0    0  0.16550741539E+02 -0.10688818630E+03  0.58598981080E+03  0.60070646857E+03  0.75928858840E+02 0.  0.
          5    1    3    3  501    0 -0.42674131702E+02  0.73578752961E+02  0.85604509998E+02  0.12076893862E+03  0.47000000000E+01 0. -1.
        -13    1    4    4    0    0  0.19691933844E+02 -0.27856931262E+02  0.87336242578E+02  0.93762466614E+02  0.00000000000E+00 0.  1.
         14    1    4    4    0    0  0.48911073112E+02  0.33224099164E+02  0.38528839765E+02  0.70573403856E+02  0.00000000000E+00 0. -1.
         -5    1    5    5    0  502 -0.42479616792E+02  0.27942265437E+02  0.44678350686E+03  0.44969198352E+03  0.47000000000E+01 0.  1.
         11    1    6    6    0    0  0.23004486471E+02 -0.38751791864E+01  0.19235965366E+03  0.19376908878E+03  0.00000000000E+00 0. -1.
        -12    1    6    6    0    0 -0.64537449322E+01 -0.10301300711E+03  0.39363015714E+03  0.40693737979E+03  0.00000000000E+00 0.  1.
</event>
<event>
12    1  0.1629553E-001  0.1915664E+03  0.7818608E-02  0.1157221E+00
         21   -1    0    0  501  502  0.00000000000E+00  0.00000000000E+00  0.26984929511E+03  0.26984929511E+03  0.00000000000E+00 0. -1.
         21   -1    0    0  502  503 -0.00000000000E+00 -0.00000000000E+00 -0.14507288888E+03  0.14507288888E+03  0.00000000000E+00 0. -1.
         -6    2    1    2    0  503 -0.76735337979E+02 -0.29684741132E+02  0.11587812905E+03  0.22388704691E+03  0.17299760990E+03 0.  0.
        -24    2    3    3    0    0 -0.80226542927E+02 -0.63273439851E+02  0.32835755342E+02  0.13411781485E+03  0.80433668646E+02 0.  0.
          6    2    1    2  501    0  0.76735337979E+02  0.29684741132E+02  0.88982771845E+01  0.19103513708E+03  0.17217940734E+03 0.  0.
         24    2    5    5    0    0 -0.92165419903E+01  0.51698092641E+02  0.26661234930E+02  0.10042649520E+03  0.81345080133E+02 0.  0.
          5    1    5    5  501    0  0.85951879969E+02 -0.22013351509E+02 -0.17762957746E+02  0.90608641877E+02  0.47000000000E+01 0. -1.
        -11    1    6    6    0    0 -0.31248093614E+02 -0.79879833252E+01  0.15683319105E+02  0.35863877792E+02  0.00000000000E+00 0.  1.
         12    1    6    6    0    0  0.22031551624E+02  0.59686075967E+02  0.10977915825E+02  0.64562617412E+02  0.00000000000E+00 0. -1.
         -5    1    3    3    0  503  0.34912049487E+01  0.33588698718E+02  0.83042373707E+02  0.89769232059E+02  0.47000000000E+01 0.  1.
         13    1    4    4    0    0 -0.40632352337E+02  0.11971498693E+01  0.41346639814E+02  0.57982461557E+02  0.00000000000E+00 0. -1.
        -14    1    4    4    0    0 -0.39594190590E+02 -0.64470589720E+02 -0.85108844715E+01  0.76135353298E+02  0.00000000000E+00 0.  1.
</event>
<event>
12    1  0.1629553E-001  0.1730774E+03  0.7818608E-02  0.1174694E+00
         21   -1    0    0  501  502  0.00000000000E+00  0.00000000000E+00  0.16145393278E+03  0.16145393278E+03  0.00000000000E+00 0. -1.
         21   -1    0    0  502  503 -0.00000000000E+00 -0.00000000000E+00 -0.18561135710E+03  0.18561135710E+03  0.00000000000E+00 0. -1.
         -6    2    1    2    0  503  0.18476376177E+02 -0.20677603382E+01 -0.71372008205E+01  0.17322448069E+03  0.17207593953E+03 0.  0.
        -24    2    3    3    0    0 -0.50201354569E+01 -0.25140075784E+02 -0.68068975045E+02  0.10380410249E+03  0.74058633258E+02 0.  0.
          6    2    1    2  501    0 -0.18476376177E+02  0.20677603382E+01 -0.17020223504E+02  0.17384080919E+03  0.17200374072E+03 0.  0.
         24    2    5    5    0    0 -0.76615391056E+02  0.15567175059E+02 -0.40479538898E+02  0.10953833080E+03  0.65175131440E+02 0.  0.
          5    1    5    5  501    0  0.58139014879E+02 -0.13499414721E+02  0.23459315394E+02  0.64302478394E+02  0.47000000000E+01 0. -1.
        -11    1    6    6    0    0 -0.23237578626E+01  0.16184554810E+02 -0.30460781912E+02  0.34571648784E+02  0.00000000000E+00 0.  1.
         12    1    6    6    0    0 -0.74291633193E+02 -0.61737975133E+00 -0.10018756986E+02  0.74966682012E+02  0.00000000000E+00 0. -1.
         -5    1    3    3    0  503  0.23496511634E+02  0.23072315445E+02  0.60931774224E+02  0.69420378198E+02  0.47000000000E+01 0.  1.
         11    1    4    4    0    0  0.15156384065E+02 -0.37693229329E+01 -0.72427416301E+02  0.74092202054E+02  0.00000000000E+00 0. -1.
        -12    1    4    4    0    0 -0.20176519522E+02 -0.21370752851E+02  0.43584412556E+01  0.29711900437E+02  0.00000000000E+00 0.  1.
</event>
<event>
12    1  0.1629553E-001  0.2087493E+03  0.7818608E-02  0.1142617E+00
         21   -1    0    0  503  502  0.00000000000E+00  0.00000000000E+00  0.12512417356E+04  0.12512417356E+04  0.00000000000E+00 0. -1.
         21   -1    0    0  501  503 -0.00000000000E+00 -0.00000000000E+00 -0.52233121854E+02  0.52233121854E+02  0.00000000000E+00 0.  1.
          6    2    1    2  501    0  0.58425033275E+02  0.10227878855E+03  0.22248259795E+03  0.30488619110E+03  0.17199606983E+03 0.  0.
         24    2    3    3    0    0  0.91792590259E+02  0.29725465372E+02  0.15964302965E+03  0.20315969551E+03  0.80489018167E+02 0.  0.
         -6    2    1    2    0  502 -0.58425033275E+02 -0.10227878855E+03  0.97652601581E+03  0.99858866635E+03  0.17234218847E+03 0.  0.
        -24    2    5    5    0    0 -0.10780603209E+02 -0.13075761430E+03  0.76042455981E+03  0.77542288825E+03  0.76297898781E+02 0.  0.
          5    1    3    3  501    0 -0.33367556984E+02  0.72553323173E+02  0.62839568291E+02  0.10172649559E+03  0.47000000000E+01 0. -1.
        -13    1    4    4    0    0  0.79713537726E+02  0.20220016673E+02  0.58664245424E+02  0.10101777498E+03  0.00000000000E+00 0.  1.
         14    1    4    4    0    0  0.12079052532E+02  0.95054486993E+01  0.10097878423E+03  0.10214192053E+03  0.00000000000E+00 0. -1.
         -5    1    5    5    0  502 -0.47644430066E+02  0.28478825755E+02  0.21610145600E+03  0.22316577811E+03  0.47000000000E+01 0.  1.
         11    1    6    6    0    0 -0.34645830890E+02 -0.24814361662E+02  0.24548757768E+03  0.24915905951E+03  0.00000000000E+00 0. -1.
        -12    1    6    6    0    0  0.23865227681E+02 -0.10594325264E+03  0.51493698213E+03  0.52626382874E+03  0.00000000000E+00 0.  1.
</event>
<event>
12    1  0.1629553E-001  0.2109272E+03  0.7818608E-02  0.1140881E+00
         21   -1    0    0  501  502  0.00000000000E+00  0.00000000000E+00  0.66439724004E+02  0.66439724004E+02  0.00000000000E+00 0.  1.
         21   -1    0    0  502  503 -0.00000000000E+00 -0.00000000000E+00 -0.84733290902E+03  0.84733290902E+03  0.00000000000E+00 0.  1.
         -6    2    1    2    0  503  0.49101125905E+02 -0.11196064867E+03 -0.60029758569E+03  0.63627626288E+03  0.17188421654E+03 0.  0.
        -24    2    3    3    0    0  0.23502453618E+02 -0.11599676441E+03 -0.27648687919E+03  0.31139621440E+03  0.80715508414E+02 0.  0.
          6    2    1    2  501    0 -0.49101125905E+02  0.11196064867E+03 -0.18059559932E+03  0.27749637014E+03  0.17159066855E+03 0.  0.
         24    2    5    5    0    0 -0.67423564775E+02  0.14024350096E+03 -0.16488611243E+03  0.24001958429E+03  0.78789555918E+02 0.  0.
          5    1    5    5  501    0  0.18322438869E+02 -0.28282852288E+02 -0.15709486889E+02  0.37476785855E+02  0.47000000000E+01 0. -1.
        -13    1    6    6    0    0 -0.47744174225E+02  0.63874739005E+02 -0.13274659410E+03  0.15485847313E+03  0.00000000000E+00 0.  1.
         14    1    6    6    0    0 -0.19679390549E+02  0.76368761956E+02 -0.32139518327E+02  0.85161111156E+02  0.00000000000E+00 0. -1.
         -5    1    3    3    0  503  0.25598672287E+02  0.40361157338E+01 -0.32381070650E+03  0.32488004847E+03  0.47000000000E+01 0.  1.
         11    1    4    4    0    0 -0.24355922736E+02 -0.76235101670E+02 -0.17357929310E+03  0.19114071438E+03  0.00000000000E+00 0. -1.
        -12    1    4    4    0    0  0.47858376354E+02 -0.39761662736E+02 -0.10290758609E+03  0.12025550002E+03  0.00000000000E+00 0.  1.
</event>
<event>
12    1  0.1629553E-001  0.2150468E+03  0.7818608E-02  0.1137695E+00
         21   -1    0    0  501  502  0.00000000000E+00  0.00000000000E+00  0.21804220420E+04  0.21804220420E+04  0.00000000000E+00 0. -1.
         21   -1    0    0  502  503 -0.00000000000E+00 -0.00000000000E+00 -0.22864446318E+02  0.22864446318E+02  0.00000000000E+00 0. -1.
         -6    2    1    2    0  503  0.82796386551E+02 -0.97461087155E+02  0.77866555836E+03  0.80772625731E+03  0.17247536010E+03 0.  0.
        -24    2    3    3    0    0  0.99537420378E+02 -0.63772493893E+02  0.74044467941E+03  0.75389216851E+03  0.78233301342E+02 0.  0.
          6    2    1    2  501    0 -0.82796386551E+02  0.97461087155E+02  0.13788920373E+04  0.13955602310E+04  0.17289072457E+03 0.  0.
         24    2    5    5    0    0 -0.73639118825E+02  0.77570781087E+02  0.53789506322E+03  0.55426511021E+03  0.80241930805E+02 0.  0.
          5    1    5    5  501    0 -0.91572677266E+01  0.19890306068E+02  0.84099697410E+03  0.84129512080E+03  0.47000000000E+01 0. -1.
        -11    1    6    6    0    0 -0.27796352098E+01  0.16689893742E+02  0.27034379899E+03  0.27087275348E+03  0.00000000000E+00 0.  1.
         12    1    6    6    0    0 -0.70859483615E+02  0.60880887345E+02  0.26755126423E+03  0.28339235673E+03  0.00000000000E+00 0. -1.
         -5    1    3    3    0  503 -0.16741033827E+02 -0.33688593262E+02  0.38220878947E+02  0.53834088801E+02  0.47000000000E+01 0.  1.
         11    1    4    4    0    0  0.85776862024E+02 -0.81921363150E+02  0.63990274083E+03  0.65080281001E+03  0.00000000000E+00 0. -1.
        -12    1    4    4    0    0  0.13760558354E+02  0.18148869258E+02  0.10054193858E+03  0.10308935850E+03  0.00000000000E+00 0.  1.
</event>
<event>
12    1  0.1629553E-001  0.1818242E+03  0.7818608E-02  0.1167185E+00
         21   -1    0    0  501  502  0.00000000000E+00  0.00000000000E+00  0.34773948093E+02  0.34773948093E+02  0.00000000000E+00 0. -1.
         21   -1    0    0  502  503 -0.00000000000E+00 -0.00000000000E+00 -0.14513802899E+04  0.14513802899E+04  0.00000000000E+00 0. -1.
         -6    2    1    2    0  503 -0.26501529595E+02 -0.35770325532E+02 -0.11611138926E+04  0.11752640206E+04  0.17629009996E+03 0.  0.
        -24    2    3    3    0    0 -0.44424011373E+02  0.24979736609E+02 -0.37888864106E+03  0.39046454335E+03  0.79425923089E+02 0.  0.
          6    2    1    2  501    0  0.26501529595E+02  0.35770325532E+02 -0.25549244929E+03  0.31089021745E+03  0.17144820909E+03 0.  0.
         24    2    5    5    0    0  0.51760129383E+02 -0.18573273450E+02 -0.10301061006E+03  0.14698773147E+03  0.89275584215E+02 0.  0.
          5    1    5    5  501    0 -0.25258599788E+02  0.54343598982E+02 -0.15248183924E+03  0.16390248598E+03  0.47000000000E+01 0. -1.
        -11    1    6    6    0    0 -0.74653878677E+01 -0.38147856539E+02 -0.58976553563E+02  0.70634445171E+02  0.00000000000E+00 0.  1.
         12    1    6    6    0    0  0.59225517251E+02  0.19574583089E+02 -0.44034056495E+02  0.76353286296E+02  0.00000000000E+00 0. -1.
         -5    1    3    3    0  503  0.17922481778E+02 -0.60750062141E+02 -0.78222525149E+03  0.78479947724E+03  0.47000000000E+01 0.  1.
         13    1    4    4    0    0 -0.41256967759E+02 -0.22157160305E+02 -0.17311784607E+03  0.17934008412E+03  0.00000000000E+00 0. -1.
        -14    1    4    4    0    0 -0.31670436140E+01  0.47136896914E+02 -0.20577079499E+03  0.21112445923E+03  0.00000000000E+00 0.  1.
</event>
<event>
12    1  0.1629553E-001  0.1822577E+03  0.7818608E-02  0.1166001E+00
         21   -1    0    0  501  502  0.00000000000E+00  0.00000000000E+00  0.64598112177E+03  0.64598112177E+03  0.00000000000E+00 0. -1.
         21   -1    0    0  502  503 -0.00000000000E+00 -0.00000000000E+00 -0.52136467565E+02  0.52136467565E+02  0.00000000000E+00 0. -1.
         -6    2    1    2    0  503  0.32906573824E+02  0.44048619203E+02  0.24642716757E+03  0.30650321873E+03  0.17376636820E+03 0.  0.
        -24    2    3    3    0    0 -0.34507808064E+02 -0.17944316393E+02  0.10708905237E+03  0.13969487572E+03  0.80831960609E+02 0.  0.
          6    2    1    2  501    0 -0.32906573824E+02 -0.44048619203E+02  0.34741748663E+03  0.39161437061E+03  0.17216208002E+03 0.  0.
         24    2    5    5    0    0 -0.14174399237E+02  0.32018129205E+02  0.10557860237E+03  0.13736020542E+03  0.80591007945E+02 0.  0.
          5    1    5    5  501    0 -0.18732174587E+02 -0.76066748407E+02  0.24183888426E+03  0.25425416520E+03  0.47000000000E+01 0. -1.
        -13    1    6    6    0    0 -0.25344463942E+02  0.71379971342E+01  0.10686142236E+03  0.11005751426E+03  0.00000000000E+00 0.  1.
         14    1    6    6    0    0  0.11170064705E+02  0.24880132070E+02 -0.12828199889E+01  0.27302691158E+02  0.00000000000E+00 0. -1.
         -5    1    3    3    0  503  0.67414381888E+02  0.61992935596E+02  0.13933811520E+03  0.16680834301E+03  0.47000000000E+01 0.  1.
         13    1    4    4    0    0 -0.19404237520E+02  0.89185895515E+01  0.10676039426E+03  0.10887537580E+03  0.00000000000E+00 0. -1.
        -14    1    4    4    0    0 -0.15103570544E+02 -0.26862905945E+02  0.32865811169E+00  0.30819499917E+02  0.00000000000E+00 0.  1.
</event>
<event>
12    1  0.1629553E-001  0.1922558E+03  0.7818608E-02  0.1156505E+00
         21   -1    0    0  503  502  0.00000000000E+00  0.00000000000E+00  0.57741748248E+02  0.57741748248E+02  0.00000000000E+00 0. -1.
         21   -1    0    0  501  503 -0.00000000000E+00 -0.00000000000E+00 -0.10950894992E+04  0.10950894992E+04  0.00000000000E+00 0. -1.
          6    2    1    2  501    0 -0.41091863772E+02 -0.75482892213E+02 -0.89080857223E+03  0.91131892952E+03  0.17197694805E+03 0.  0.
         24    2    3    3    0    0 -0.59307180313E+02 -0.11118794745E+03 -0.62778417711E+03  0.64521637193E+03  0.79442383434E+02 0.  0.
         -6    2    1    2    0  502  0.41091863772E+02  0.75482892213E+02 -0.14653917876E+03  0.24151231797E+03  0.17166321835E+03 0.  0.
        -24    2    5    5    0    0 -0.24326106887E+02 -0.89182503649E+01 -0.48820962054E+02  0.96688274280E+02  0.79333734196E+02 0.  0.
          5    1    3    3  501    0  0.18215316542E+02  0.35705055241E+02 -0.26302439512E+03  0.26610255759E+03  0.47000000000E+01 0. -1.
        -11    1    4    4    0    0 -0.48360405484E+02 -0.55798882801E+02 -0.19062667987E+03  0.20442792181E+03  0.00000000000E+00 0.  1.
         12    1    4    4    0    0 -0.10946774829E+02 -0.55389064652E+02 -0.43715749724E+03  0.44078845012E+03  0.00000000000E+00 0. -1.
         -5    1    5    5    0  502  0.65417970659E+02  0.84401142577E+02 -0.97718216711E+02  0.14482404369E+03  0.47000000000E+01 0.  1.
         13    1    6    6    0    0 -0.76958604462E+01 -0.91833047799E+01  0.21399213969E+02  0.24525205670E+02  0.00000000000E+00 0. -1.
        -14    1    6    6    0    0 -0.16630246441E+02  0.26505441500E+00 -0.70220176023E+02  0.72163068610E+02  0.00000000000E+00 0.  1.
</event>
<event>
12    1  0.1629553E-001  0.2290381E+03  0.7818608E-02  0.1127353E+00
         21   -1    0    0  503  502  0.00000000000E+00  0.00000000000E+00  0.63144956587E+02  0.63144956587E+02  0.00000000000E+00 0. -1.
         21   -1    0    0  501  503 -0.00000000000E+00 -0.00000000000E+00 -0.89163114817E+03  0.89163114817E+03  0.00000000000E+00 0. -1.
          6    2    1    2  501    0 -0.40958694529E+02  0.14563447272E+03 -0.53986370178E+03  0.58643946776E+03  0.17196342211E+03 0.  0.
         24    2    3    3    0    0  0.30483731997E+02  0.52784924199E+02 -0.34110937155E+03  0.35567891490E+03  0.80227059088E+02 0.  0.
         -6    2    1    2    0  502  0.40958694529E+02 -0.14563447272E+03 -0.28862248980E+03  0.36833663700E+03  0.17170300589E+03 0.  0.
        -24    2    5    5    0    0 -0.17492913191E+02 -0.14841156986E+03 -0.21872476216E+03  0.27705638150E+03  0.81164776044E+02 0.  0.
          5    1    3    3  501    0 -0.71442426526E+02  0.92849548522E+02 -0.19875433023E+03  0.23076055286E+03  0.47000000000E+01 0. -1.
        -13    1    4    4    0    0  0.52519663636E+02  0.31000746692E+02 -0.14758143889E+03  0.15968607475E+03  0.00000000000E+00 0.  1.
         14    1    4    4    0    0 -0.22035931639E+02  0.21784177508E+02 -0.19352793266E+03  0.19599284016E+03  0.00000000000E+00 0. -1.
         -5    1    5    5    0  502  0.58451607720E+02  0.27770971361E+01 -0.69897727648E+02  0.91280255499E+02  0.47000000000E+01 0.  1.
         11    1    6    6    0    0 -0.44664231035E+02 -0.51372501619E+02 -0.72277158138E+02  0.99287537209E+02  0.00000000000E+00 0. -1.
        -12    1    6    6    0    0  0.27171317844E+02 -0.97039068238E+02 -0.14644760402E+03  0.17776884429E+03  0.00000000000E+00 0.  1.
</event>
<event>
12    1  0.1629553E-001  0.2365806E+03  0.7818608E-02  0.1122163E+00
         21   -1    0    0  503  502  0.00000000000E+00  0.00000000000E+00  0.44907385116E+03  0.44907385116E+03  0.00000000000E+00 0.  1.
         21   -1    0    0  501  503 -0.00000000000E+00 -0.00000000000E+00 -0.13792933629E+03  0.13792933629E+03  0.00000000000E+00 0.  1.
          6    2    1    2  501    0  0.11686945855E+03  0.11198053068E+03  0.24757421500E+03  0.34243742177E+03  0.17254647577E+03 0.  0.
         24    2    3    3    0    0  0.13012669383E+03  0.33879054329E+02  0.14654443854E+03  0.21396680012E+03  0.78903563403E+02 0.  0.
         -6    2    1    2    0  502 -0.11686945855E+03 -0.11198053068E+03  0.63570299872E+02  0.24456576567E+03  0.17196837243E+03 0.  0.
        -24    2    5    5    0    0 -0.53190207848E+02  0.58856462698E+01  0.54381068223E+02  0.11020053721E+03  0.79517411793E+02 0.  0.
          5    1    3    3  501    0 -0.13257235273E+02  0.78101476356E+02  0.10102977646E+03  0.12847062165E+03  0.47000000000E+01 0. -1.
        -13    1    4    4    0    0  0.15447270904E+02  0.70077097386E+01  0.73362598972E+02  0.75298055102E+02  0.00000000000E+00 0.  1.
         14    1    4    4    0    0  0.11467942292E+03  0.26871344590E+02  0.73181839563E+02  0.13866874501E+03  0.00000000000E+00 0. -1.
         -5    1    5    5    0  502 -0.63679250707E+02 -0.11786617695E+03  0.91892316489E+01  0.13436522846E+03  0.47000000000E+01 0.  1.
         13    1    6    6    0    0 -0.70201855671E+02 -0.11872364457E+02  0.42077257742E+02  0.82702776233E+02  0.00000000000E+00 0. -1.
        -14    1    6    6    0    0  0.17011647824E+02  0.17758010727E+02  0.12303810481E+02  0.27497760981E+02  0.00000000000E+00 0.  1.
</event>
<event>
12    1  0.1629553E-001  0.1879252E+03  0.7818608E-02  0.1160654E+00
         21   -1    0    0  503  502  0.00000000000E+00  0.00000000000E+00  0.21657434567E+03  0.21657434567E+03  0.00000000000E+00 0. -1.
         21   -1    0    0  501  503 -0.00000000000E+00 -0.00000000000E+00 -0.41736309602E+03  0.41736309602E+03  0.00000000000E+00 0. -1.
          6    2    1    2  501    0 -0.11536627051E+02  0.74497046459E+02 -0.34823634167E+03  0.39507205357E+03  0.17067651907E+03 0.  0.
         24    2    3    3    0    0 -0.25251211421E+02 -0.23014880485E+02 -0.15441824815E+03  0.17762272822E+03  0.80854992530E+02 0.  0.
         -6    2    1    2    0  502  0.11536627051E+02 -0.74497046459E+02  0.14744759132E+03  0.23886538812E+03  0.17214231833E+03 0.  0.
        -24    2    5    5    0    0 -0.26518156071E+01  0.16266340087E+02  0.11279080656E+03  0.14056743813E+03  0.82254560191E+02 0.  0.
          5    1    3    3  501    0  0.13714584370E+02  0.97511926944E+02 -0.19381809352E+03  0.21744932535E+03  0.47000000000E+01 0. -1.
        -13    1    4    4    0    0 -0.78061118871E+00 -0.26108355748E+02 -0.55220017693E+01  0.26697342512E+02  0.00000000000E+00 0.  1.
         14    1    4    4    0    0 -0.24470600232E+02  0.30934752627E+01 -0.14889624638E+03  0.15092538571E+03  0.00000000000E+00 0. -1.
         -5    1    5    5    0  502  0.14188442658E+02 -0.90763386546E+02  0.34656784758E+02  0.98297949989E+02  0.47000000000E+01 0.  1.
         13    1    6    6    0    0 -0.12957596063E+02 -0.45828262186E+01  0.11624538784E+03  0.11705508014E+03  0.00000000000E+00 0. -1.
        -14    1    6    6    0    0  0.10305780456E+02  0.20849166306E+02 -0.34545812816E+01  0.23512357991E+02  0.00000000000E+00 0.  1.
</event>
<event>
12    1  0.1629553E-001  0.2206293E+03  0.7818608E-02  0.1133918E+00
         21   -1    0    0  503  502  0.00000000000E+00  0.00000000000E+00  0.57030516525E+03  0.57030516525E+03  0.00000000000E+00 0.  1.
         21   -1    0    0  501  503 -0.00000000000E+00 -0.00000000000E+00 -0.12393253516E+03  0.12393253516E+03  0.00000000000E+00 0.  1.
          6    2    1    2  501    0 -0.12168539292E+03 -0.59187734332E+02  0.25997436644E+02  0.21948242100E+03  0.17083952607E+03 0.  0.
         24    2    3    3    0    0 -0.15377036380E+03 -0.63198644321E+02  0.14054485813E+02  0.18469367527E+03  0.79213835193E+02 0.  0.
         -6    2    1    2    0  502  0.12168539292E+03  0.59187734332E+02  0.42037519344E+03  0.47475527941E+03  0.17426057880E+03 0.  0.
        -24    2    5    5    0    0  0.14708094842E+03  0.11227107630E+02  0.29522160952E+03  0.33826108349E+03  0.74201809554E+02 0.  0.
          5    1    3    3  501    0  0.32084970875E+02  0.40109099889E+01  0.11942950831E+02  0.34788745731E+02  0.47000000000E+01 0. -1.
        -11    1    4    4    0    0 -0.97364207305E+02 -0.70706792845E+01 -0.17343570632E+02  0.99149295570E+02  0.00000000000E+00 0.  1.
         12    1    4    4    0    0 -0.56406156492E+02 -0.56127965037E+02  0.31398056445E+02  0.85544379698E+02  0.00000000000E+00 0. -1.
         -5    1    5    5    0  502 -0.25395555500E+02  0.47960626702E+02  0.12515358392E+03  0.13649419592E+03  0.47000000000E+01 0.  1.
         11    1    6    6    0    0  0.20346661992E+02 -0.11762964502E+02  0.10461178401E+02  0.25725284092E+02  0.00000000000E+00 0. -1.
        -12    1    6    6    0    0  0.12673428643E+03  0.22990072132E+02  0.28476043112E+03  0.31253579940E+03  0.00000000000E+00 0.  1.
</event>
<event>
12    1  0.1629553E-001  0.1747461E+03  0.7818608E-02  0.1173147E+00
         21   -1    0    0  503  502  0.00000000000E+00  0.00000000000E+00  0.84221845272E+03  0.84221845272E+03  0.00000000000E+00 0. -1.
         21   -1    0    0  501  503 -0.00000000000E+00 -0.00000000000E+00 -0.79858258016E+02  0.79858258016E+02  0.00000000000E+00 0. -1.
          6    2    1    2  501    0 -0.73483708961E+01 -0.25342158522E+02  0.39685749999E+02  0.17857516669E+03  0.17209854111E+03 0.  0.
         24    2    3    3    0    0  0.48365560331E+02 -0.52502272309E+02  0.93168969225E+01  0.10939373023E+03  0.82367879792E+02 0.  0.
         -6    2    1    2    0  502  0.73483708961E+01  0.25342158522E+02  0.72267444471E+03  0.74350154405E+03  0.17274249452E+03 0.  0.
        -24    2    5    5    0    0 -0.22025712088E+02  0.44079647576E+02  0.68048629915E+03  0.68858469897E+03  0.93054484077E+02 0.  0.
          5    1    3    3  501    0 -0.55713931227E+02  0.27160113787E+02  0.30368853077E+02  0.69181436462E+02  0.47000000000E+01 0. -1.
        -11    1    4    4    0    0  0.17769983892E+02 -0.20083590325E+02  0.44939285428E+02  0.52332230056E+02  0.00000000000E+00 0.  1.
         12    1    4    4    0    0  0.30595576439E+02 -0.32418681984E+02 -0.35622388505E+02  0.57061500173E+02  0.00000000000E+00 0. -1.
         -5    1    5    5    0  502  0.29374082984E+02 -0.18737489054E+02  0.42188145559E+02  0.54916845074E+02  0.47000000000E+01 0.  1.
         11    1    6    6    0    0  0.31730495140E+02  0.23234063332E+02  0.41772125812E+03  0.41956846343E+03  0.00000000000E+00 0. -1.
        -12    1    6    6    0    0 -0.53756207228E+02  0.20845584244E+02  0.26276504103E+03  0.26901623554E+03  0.00000000000E+00 0.  1.
</event>
<event>
12    1  0.1629553E-001  0.1929494E+03  0.7818608E-02  0.1156229E+00
         21   -1    0    0  503  502  0.00000000000E+00  0.00000000000E+00  0.54908339600E+02  0.54908339600E+02  0.00000000000E+00 0.  1.
         21   -1    0    0  501  503 -0.00000000000E+00 -0.00000000000E+00 -0.12224262032E+04  0.12224262032E+04  0.00000000000E+00 0.  1.
          6    2    1    2  501    0 -0.68279258650E+02  0.52867322039E+02 -0.10109262763E+04  0.10288382407E+04  0.17052618155E+03 0.  0.
         24    2    3    3    0    0  0.97176401523E+01 -0.12501195958E+02 -0.61637314369E+03  0.62134489868E+03  0.76830452477E+02 0.  0.
         -6    2    1    2    0  502  0.68279258650E+02 -0.52867322039E+02 -0.15659158730E+03  0.24849630206E+03  0.17254702554E+03 0.  0.
        -24    2    5    5    0    0  0.81210426224E+02 -0.16129532382E+02 -0.16644178078E+03  0.20804884732E+03  0.93413924754E+02 0.  0.
          5    1    3    3  501    0 -0.77996898802E+02  0.65368517997E+02 -0.39455313258E+03  0.40749334203E+03  0.47000000000E+01 0. -1.
        -13    1    4    4    0    0 -0.24284850012E+02 -0.28233741263E+02 -0.40210723035E+03  0.40382808568E+03  0.00000000000E+00 0.  1.
         14    1    4    4    0    0  0.34002490164E+02  0.15732545305E+02 -0.21426591334E+03  0.21751681300E+03  0.00000000000E+00 0. -1.
         -5    1    5    5    0  502 -0.12931167573E+02 -0.36737789657E+02  0.98501934786E+01  0.40447454744E+02  0.47000000000E+01 0.  1.
         11    1    6    6    0    0 -0.20196434360E+02  0.49537726612E+01 -0.21589290872E+02  0.29975545113E+02  0.00000000000E+00 0. -1.
        -12    1    6    6    0    0  0.10140686058E+03 -0.21083305043E+02 -0.14485248991E+03  0.17807330220E+03  0.00000000000E+00 0.  1.
</event>
<event>
12    1  0.1629553E-001  0.1856604E+03  0.7818608E-02  0.1162480E+00
         21   -1    0    0  503  502  0.00000000000E+00  0.00000000000E+00  0.92355022126E+03  0.92355022126E+03  0.00000000000E+00 0. -1.
         21   -1    0    0  501  503 -0.00000000000E+00 -0.00000000000E+00 -0.43121808312E+02  0.43121808312E+02  0.00000000000E+00 0. -1.
          6    2    1    2  501    0  0.40419989184E+02 -0.55384038921E+02  0.61785398712E+03  0.64508982203E+03  0.17232574327E+03 0.  0.
         24    2    3    3    0    0  0.23498008860E+02  0.28666822925E+02  0.42164940104E+03  0.43091879132E+03  0.80801263358E+02 0.  0.
         -6    2    1    2    0  502 -0.40419989184E+02  0.55384038921E+02  0.26257442583E+03  0.32158220755E+03  0.17253585082E+03 0.  0.
        -24    2    5    5    0    0 -0.55396983414E+02  0.57302667159E+02  0.73982186825E+02  0.13232810824E+03  0.75398559855E+02 0.  0.
          5    1    3    3  501    0  0.16921980324E+02 -0.84050861846E+02  0.19620458608E+03  0.21417103071E+03  0.47000000000E+01 0. -1.
        -13    1    4    4    0    0  0.11768472881E+02  0.11515229746E+02  0.40194713506E+03  0.40228422396E+03  0.00000000000E+00 0.  1.
         14    1    4    4    0    0  0.11729535979E+02  0.17151593179E+02  0.19702265979E+02  0.28634567354E+02  0.00000000000E+00 0. -1.
         -5    1    5    5    0  502  0.14976994230E+02 -0.19186282379E+01  0.18859223901E+03  0.18925409931E+03  0.47000000000E+01 0.  1.
         11    1    6    6    0    0 -0.27752855854E+02  0.72019209141E+02  0.43358858933E+02  0.88526708632E+02  0.00000000000E+00 0. -1.
        -12    1    6    6    0    0 -0.27644127559E+02 -0.14716541982E+02  0.30623327892E+02  0.43801399608E+02  0.00000000000E+00 0.  1.
</event>
<event>
12    1  0.1629553E-001  0.1761153E+03  0.7818608E-02  0.1173363E+00
         21   -1    0    0  503  502  0.00000000000E+00  0.00000000000E+00  0.16490448381E+04  0.16490448381E+04  0.00000000000E+00 0.  1.
         21   -1    0    0  501  503 -0.00000000000E+00 -0.00000000000E+00 -0.31577079156E+02  0.31577079156E+02  0.00000000000E+00 0.  1.
          6    2    1    2  501    0 -0.48879792392E+02 -0.27742325302E+02  0.26867385163E+03  0.32125103205E+03  0.16690631004E+03 0.  0.
         24    2    3    3    0    0 -0.40797211968E+02  0.67557709059E+01  0.59306034795E+02  0.10885418774E+03  0.81375521389E+02 0.  0.
         -6    2    1    2    0  502  0.48879792392E+02  0.27742325302E+02  0.13487939073E+04  0.13593708852E+04  0.15964124906E+03 0.  0.
        -24    2    5    5    0    0  0.20660971363E+02  0.75194453366E+02  0.88247651043E+03  0.88977317337E+03  0.82767306552E+02 0.  0.
          5    1    3    3  501    0 -0.80825804233E+01 -0.34498096208E+02  0.20936781683E+03  0.21239684431E+03  0.47000000000E+01 0. -1.
        -11    1    4    4    0    0 -0.44415661627E+02 -0.28514768077E+02  0.48776942790E+02  0.71868165025E+02  0.00000000000E+00 0.  1.
         12    1    4    4    0    0  0.36184496581E+01  0.35270538983E+02  0.10529092005E+02  0.36986022718E+02  0.00000000000E+00 0. -1.
         -5    1    5    5    0  502  0.28218821029E+02 -0.47452128064E+02  0.46631739689E+03  0.46959771184E+03  0.47000000000E+01 0.  1.
         11    1    6    6    0    0  0.11342677581E+02  0.36973734202E+02  0.11578968962E+03  0.12207770304E+03  0.00000000000E+00 0. -1.
        -12    1    6    6    0    0  0.93182937817E+01  0.38220719164E+02  0.76668682080E+03  0.76769547033E+03  0.00000000000E+00 0.  1.
</event>
<event>
12    1  0.1629553E-001  0.2618770E+03  0.7818608E-02  0.1106573E+00
         21   -1    0    0  503  502  0.00000000000E+00  0.00000000000E+00  0.21860826571E+03  0.21860826571E+03  0.00000000000E+00 0.  1.
         21   -1    0    0  501  503 -0.00000000000E+00 -0.00000000000E+00 -0.31785696793E+03  0.31785696793E+03  0.00000000000E+00 0. -1.
          6    2    1    2  501    0  0.18993848330E+03 -0.29364062940E+02 -0.93936724365E+02  0.27821511922E+03  0.17787824135E+03 0.  0.
         24    2    3    3    0    0  0.13092929317E+02  0.10682433600E+02 -0.38098155039E+02  0.88430747697E+02  0.77993515981E+02 0.  0.
         -6    2    1    2    0  502 -0.18993848330E+03  0.29364062940E+02 -0.53119778561E+01  0.25825011442E+03  0.17241238023E+03 0.  0.
        -24    2    5    5    0    0 -0.11411180485E+03  0.70855995457E+02 -0.43183177842E+02  0.16376422438E+03  0.83137586198E+02 0.  0.
          5    1    3    3  501    0  0.17684555398E+03 -0.40046496540E+02 -0.55838569326E+02  0.18978437152E+03  0.47000000000E+01 0. -1.
        -11    1    4    4    0    0 -0.33993870495E+01  0.42898904980E+02 -0.25958802124E+02  0.50256654171E+02  0.00000000000E+00 0.  1.
         12    1    4    4    0    0  0.16492316366E+02 -0.32216471380E+02 -0.12139352916E+02  0.38174093526E+02  0.00000000000E+00 0. -1.
         -5    1    5    5    0  502 -0.75826678446E+02 -0.41491932516E+02  0.37871199985E+02  0.94485890039E+02  0.47000000000E+01 0.  1.
         11    1    6    6    0    0 -0.92343764073E+02  0.62735721518E+02 -0.67236705736E+02  0.13032235463E+03  0.00000000000E+00 0. -1.
        -12    1    6    6    0    0 -0.21768040779E+02  0.81202739392E+01  0.24053527895E+02  0.33441869750E+02  0.00000000000E+00 0.  1.
</event>
<event>
12    1  0.1629553E-001  0.2026949E+03  0.7818608E-02  0.1147600E+00
         21   -1    0    0  501  502  0.00000000000E+00  0.00000000000E+00  0.67793661192E+03  0.67793661192E+03  0.00000000000E+00 0. -1.
         21   -1    0    0  502  503 -0.00000000000E+00 -0.00000000000E+00 -0.69432567031E+02  0.69432567031E+02  0.00000000000E+00 0. -1.
         -6    2    1    2    0  503  0.10721943496E+03 -0.12208610334E+02  0.16939503997E+03  0.26373506195E+03  0.17092818942E+03 0.  0.
        -24    2    3    3    0    0  0.69433250642E+02 -0.70221642144E+02  0.13746610171E+03  0.18734884145E+03  0.80315651967E+02 0.  0.
          6    2    1    2  501    0 -0.10721943496E+03  0.12208610334E+02  0.43910900491E+03  0.48363411699E+03  0.17158141953E+03 0.  0.
         24    2    5    5    0    0 -0.14383973771E+03  0.16858049299E+02  0.34743031004E+03  0.38469101744E+03  0.79405885136E+02 0.  0.
          5    1    5    5  501    0  0.36620302748E+02 -0.46494389650E+01  0.91678694875E+02  0.98943099558E+02  0.47000000000E+01 0. -1.
        -13    1    6    6    0    0 -0.29726002114E+02  0.30181020669E+02  0.48237685114E+02  0.64198157882E+02  0.00000000000E+00 0.  1.
         14    1    6    6    0    0 -0.11411373559E+03 -0.13322971370E+02  0.29919262492E+03  0.32049285955E+03  0.00000000000E+00 0. -1.
         -5    1    3    3    0  503  0.37786184316E+02  0.58013031811E+02  0.31928938260E+02  0.76386220508E+02  0.47000000000E+01 0.  1.
         11    1    4    4    0    0  0.57935866342E+02 -0.10871537699E+02  0.35507094948E+02  0.68815032750E+02  0.00000000000E+00 0. -1.
        -12    1    4    4    0    0  0.11497384300E+02 -0.59350104446E+02  0.10195900677E+03  0.11853380870E+03  0.00000000000E+00 0.  1.
</event>
<event>
12    1  0.1629553E-001  0.2143609E+03  0.7818608E-02  0.1138171E+00
         21   -1    0    0  501  502  0.00000000000E+00  0.00000000000E+00  0.17310484328E+03  0.17310484328E+03  0.00000000000E+00 0. -1.
         21   -1    0    0  502  503 -0.00000000000E+00 -0.00000000000E+00 -0.29284208557E+03  0.29284208557E+03  0.00000000000E+00 0. -1.
         -6    2    1    2    0  503 -0.93822812032E+02  0.86003301656E+02 -0.13121946881E+03  0.25127877651E+03  0.17240413735E+03 0.  0.
        -24    2    3    3    0    0 -0.12269176092E+03  0.84964203660E+02 -0.80884222647E+02  0.19305315550E+03  0.91951505019E+02 0.  0.
          6    2    1    2  501    0  0.93822812032E+02 -0.86003301656E+02  0.11482226518E+02  0.21466815234E+03  0.17248561143E+03 0.  0.
         24    2    5    5    0    0  0.61300444777E+02  0.51904426859E+01 -0.35795172216E+02  0.10681989872E+03  0.79652439909E+02 0.  0.
          5    1    5    5  501    0  0.32522367255E+02 -0.91193744342E+02  0.47277398734E+02  0.10784825362E+03  0.47000000000E+01 0. -1.
        -11    1    6    6    0    0  0.59511666587E+02  0.97498789957E+01  0.96841012623E+01  0.61077658908E+02  0.00000000000E+00 0.  1.
         12    1    6    6    0    0  0.17887781892E+01 -0.45594363098E+01 -0.45479273478E+02  0.45742239811E+02  0.00000000000E+00 0. -1.
         -5    1    3    3    0  503  0.28868948890E+02  0.10390979960E+01 -0.50335246165E+02  0.58225621003E+02  0.47000000000E+01 0.  1.
         11    1    4    4    0    0 -0.11802695978E+03  0.32920653192E+02 -0.49885099897E+02  0.13229760328E+03  0.00000000000E+00 0. -1.
        -12    1    4    4    0    0 -0.46648011421E+01  0.52043550468E+02 -0.30999122751E+02  0.60755552226E+02  0.00000000000E+00 0.  1.
</event>
<event>
12    1  0.1629553E-001  0.2988559E+03  0.7818608E-02  0.1086157E+00
         21   -1    0    0  501  502  0.00000000000E+00  0.00000000000E+00  0.12750640214E+03  0.12750640214E+03  0.00000000000E+00 0.  1.
         21   -1    0    0  502  503 -0.00000000000E+00 -0.00000000000E+00 -0.12936317797E+04  0.12936317797E+04  0.00000000000E+00 0. -1.
         -6    2    1    2    0  503 -0.22105831834E+03 -0.95212757914E+02 -0.10682191298E+04  0.11092370969E+04  0.17715128713E+03 0.  0.
        -24    2    3    3    0    0 -0.17529146893E+03 -0.10867666341E+03 -0.10095203821E+04  0.10334511204E+04  0.79700063607E+02 0.  0.
          6    2    1    2  501    0  0.22105831834E+03  0.95212757914E+02 -0.97906247744E+02  0.31190108492E+03  0.17252363330E+03 0.  0.
         24    2    5    5    0    0  0.22872420288E+03  0.55363719911E+02 -0.10647648340E+03  0.27016080994E+03  0.79181558739E+02 0.  0.
          5    1    5    5  501    0 -0.76658845445E+01  0.39849038003E+02  0.85702356581E+01  0.41740274974E+02  0.47000000000E+01 0. -1.
        -13    1    6    6    0    0  0.47901767449E+02 -0.44264609639E+01 -0.54603757752E+02  0.72771857487E+02  0.00000000000E+00 0.  1.
         14    1    6    6    0    0  0.18082243543E+03  0.59790180875E+02 -0.51872725650E+02  0.19738895246E+03  0.00000000000E+00 0. -1.
         -5    1    3    3    0  503 -0.45766849407E+02  0.13463905496E+02 -0.58698747739E+02  0.75785976552E+02  0.47000000000E+01 0.  1.
         11    1    4    4    0    0 -0.44714068207E+02 -0.54195996263E+02 -0.48988909154E+03  0.49490188514E+03  0.00000000000E+00 0. -1.
        -12    1    4    4    0    0 -0.13057740072E+03 -0.54480667147E+02 -0.51963129053E+03  0.53854923523E+03  0.00000000000E+00 0.  1.
</event>
<event>
12    1  0.1629553E-001  0.2447899E+03  0.7818608E-02  0.1116721E+00
         21   -1    0    0  503  502  0.00000000000E+00  0.00000000000E+00  0.15161010063E+03  0.15161010063E+03  0.00000000000E+00 0. -1.
         21   -1    0    0  501  503 -0.00000000000E+00 -0.00000000000E+00 -0.44122587564E+03  0.44122587564E+03  0.00000000000E+00 0. -1.
          6    2    1    2  501    0 -0.73165327743E+02  0.15774809050E+03 -0.48431863682E+02  0.24953505897E+03  0.17229183090E+03 0.  0.
         24    2    3    3    0    0 -0.41810423600E+02  0.42946890663E+02  0.32139955376E+02  0.10574231394E+03  0.80968594440E+02 0.  0.
         -6    2    1    2    0  502  0.73165327743E+02 -0.15774809050E+03 -0.24118391133E+03  0.34330091730E+03  0.17160482362E+03 0.  0.
        -24    2    5    5    0    0  0.36881702071E+02 -0.18074848232E+03 -0.19900136155E+03  0.28291071096E+03  0.80041580855E+02 0.  0.
          5    1    3    3  501    0 -0.31354904143E+02  0.11480119984E+03 -0.80571819058E+02  0.14379274503E+03  0.47000000000E+01 0. -1.
        -13    1    4    4    0    0 -0.71862673100E+01  0.40164528697E+02 -0.18121721041E+02  0.44645588548E+02  0.00000000000E+00 0.  1.
         14    1    4    4    0    0 -0.34624156290E+02  0.27823619663E+01  0.50261676417E+02  0.61096725388E+02  0.00000000000E+00 0. -1.
         -5    1    5    5    0  502  0.36283625672E+02  0.23000391820E+02 -0.42182549783E+02  0.60390206342E+02  0.47000000000E+01 0.  1.
         11    1    6    6    0    0 -0.10536572248E+01 -0.10005846954E+02 -0.56256910225E+02  0.57149515439E+02  0.00000000000E+00 0. -1.
        -12    1    6    6    0    0  0.37935359296E+02 -0.17074263537E+03 -0.14274445132E+03  0.22576119552E+03  0.00000000000E+00 0.  1.
</event>
<event>
12    1  0.1629553E-001  0.1947867E+03  0.7818608E-02  0.1154511E+00
         21   -1    0    0  503  502  0.00000000000E+00  0.00000000000E+00  0.65745527106E+02  0.65745527106E+02  0.00000000000E+00 0.  1.
         21   -1    0    0  501  503 -0.00000000000E+00 -0.00000000000E+00 -0.91723676741E+03  0.91723676741E+03  0.00000000000E+00 0.  1.
          6    2    1    2  501    0 -0.82688056140E+02  0.32081909532E+02 -0.72773595655E+03  0.75335348319E+03  0.17342227262E+03 0.  0.
         24    2    3    3    0    0 -0.10381534306E+03 -0.25241971290E+02 -0.52674587208E+03  0.54323091510E+03  0.78891259367E+02 0.  0.
         -6    2    1    2    0  502  0.82688056140E+02 -0.32081909532E+02 -0.12375528376E+03  0.22962881132E+03  0.17189373806E+03 0.  0.
        -24    2    5    5    0    0  0.68239085974E+02 -0.89568511592E+02 -0.97190900710E+02  0.16450401879E+03  0.70259589343E+02 0.  0.
          5    1    3    3  501    0  0.21127286924E+02  0.57323880822E+02 -0.20099008447E+03  0.21012256809E+03  0.47000000000E+01 0. -1.
        -11    1    4    4    0    0 -0.51694219663E+02  0.11463535694E+02 -0.37379557794E+03  0.37752726933E+03  0.00000000000E+00 0.  1.
         12    1    4    4    0    0 -0.52121123402E+02 -0.36705506983E+02 -0.15295029414E+03  0.16570364578E+03  0.00000000000E+00 0. -1.
         -5    1    5    5    0  502  0.14448970166E+02  0.57486602060E+02 -0.26564383046E+02  0.65124792528E+02  0.47000000000E+01 0.  1.
         11    1    6    6    0    0 -0.10115188199E+02 -0.34347070995E+02 -0.17533061469E+02  0.39867863784E+02  0.00000000000E+00 0. -1.
        -12    1    6    6    0    0  0.78354274173E+02 -0.55221440597E+02 -0.79657839242E+02  0.12463615501E+03  0.00000000000E+00 0.  1.
</event>
<event>
12    1  0.1629553E-001  0.1991093E+03  0.7818608E-02  0.1150779E+00
         21   -1    0    0  503  502  0.00000000000E+00  0.00000000000E+00  0.22200823102E+03  0.22200823102E+03  0.00000000000E+00 0.  1.
         21   -1    0    0  501  503 -0.00000000000E+00 -0.00000000000E+00 -0.20597219737E+03  0.20597219737E+03  0.00000000000E+00 0.  1.
          6    2    1    2  501    0  0.92396387910E+02 -0.29127105652E+02 -0.71749832059E+02  0.21037785719E+03  0.17241033499E+03 0.  0.
         24    2    3    3    0    0  0.11528063444E+03 -0.62229856693E+02 -0.65919104062E+02  0.16944415158E+03  0.84875276051E+02 0.  0.
         -6    2    1    2    0  502 -0.92396387910E+02  0.29127105652E+02  0.87785865708E+02  0.21760257121E+03  0.17395125753E+03 0.  0.
        -24    2    5    5    0    0 -0.85281515249E+02  0.39126572974E+02 -0.58903130485E+01  0.12300908715E+03  0.79326629691E+02 0.  0.
          5    1    3    3  501    0 -0.22884246528E+02  0.33102751041E+02 -0.58307279969E+01  0.40933705606E+02  0.47000000000E+01 0. -1.
        -13    1    4    4    0    0  0.84384839436E+01 -0.36915003714E+02 -0.42964488993E+02  0.57270173956E+02  0.00000000000E+00 0.  1.
         14    1    4    4    0    0  0.10684215049E+03 -0.25314852978E+02 -0.22954615069E+02  0.11217397763E+03  0.00000000000E+00 0. -1.
         -5    1    5    5    0  502 -0.71148726607E+01 -0.99994673219E+01  0.93676178756E+02  0.94593484057E+02  0.47000000000E+01 0.  1.
         13    1    6    6    0    0 -0.31854364707E+02 -0.10099555149E+02 -0.31555313750E+02  0.45961281433E+02  0.00000000000E+00 0. -1.
        -14    1    6    6    0    0 -0.53427150543E+02  0.49226128123E+02  0.25665000701E+02  0.77047805719E+02  0.00000000000E+00 0.  1.
</event>
<event>
12    1  0.1629553E-001  0.1885357E+03  0.7818608E-02  0.1159847E+00
         21   -1    0    0  503  502  0.00000000000E+00  0.00000000000E+00  0.57657508836E+02  0.57657508836E+02  0.00000000000E+00 0.  1.
         21   -1    0    0  501  503 -0.00000000000E+00 -0.00000000000E+00 -0.61706809446E+03  0.61706809446E+03  0.00000000000E+00 0.  1.
          6    2    1    2  501    0 -0.28542542253E+02 -0.68983119650E+02 -0.29565720124E+03  0.35051646968E+03  0.17284463357E+03 0.  0.
         24    2    3    3    0    0  0.38644527552E+02 -0.77460097301E+02 -0.21341433414E+03  0.24387716788E+03  0.80230473086E+02 0.  0.
         -6    2    1    2    0  502  0.28542542253E+02  0.68983119650E+02 -0.26375338439E+03  0.32420913362E+03  0.17312529288E+03 0.  0.
        -24    2    5    5    0    0 -0.49833102301E+02  0.40292443745E+02 -0.11711052715E+03  0.15541306104E+03  0.79570879489E+02 0.  0.
          5    1    3    3  501    0 -0.67187069805E+02  0.84769776514E+01 -0.82242867096E+02  0.10663930179E+03  0.47000000000E+01 0. -1.
        -11    1    4    4    0    0  0.31738027650E+02 -0.69038720284E+02 -0.81171490672E+02  0.11118659180E+03  0.00000000000E+00 0.  1.
         12    1    4    4    0    0  0.69064999016E+01 -0.84213770175E+01 -0.13224284347E+03  0.13269057608E+03  0.00000000000E+00 0. -1.
         -5    1    5    5    0  502  0.78375644555E+02  0.28690675905E+02 -0.14664285724E+03  0.16879607259E+03  0.47000000000E+01 0.  1.
         11    1    6    6    0    0  0.21666970096E+02  0.42114526808E+01 -0.24523333065E+02  0.32993753825E+02  0.00000000000E+00 0. -1.
        -12    1    6    6    0    0 -0.71500072398E+02  0.36080991064E+02 -0.92587194087E+02  0.12241930721E+03  0.00000000000E+00 0.  1.
</event>
<event>
12    1  0.1629553E-001  0.1918878E+03  0.7818608E-02  0.1156853E+00
         21   -1    0    0  503  502  0.00000000000E+00  0.00000000000E+00  0.19634445392E+02  0.19634445392E+02  0.00000000000E+00 0. -1.
         21   -1    0    0  501  503 -0.00000000000E+00 -0.00000000000E+00 -0.23102222356E+04  0.23102222356E+04  0.00000000000E+00 0.  1.
          6    2    1    2  501    0 -0.10270450345E+01  0.83565057617E+02 -0.16537600494E+04  0.16648553205E+04  0.17273321558E+03 0.  0.
         24    2    3    3    0    0 -0.35141733137E+02  0.79561000508E+02 -0.15668268717E+04  0.15712641254E+04  0.79747174592E+02 0.  0.
         -6    2    1    2    0  502  0.10270450345E+01 -0.83565057617E+02 -0.63682774080E+03  0.66500136041E+03  0.17231675549E+03 0.  0.
        -24    2    5    5    0    0  0.24232345508E+02 -0.15608226908E+01 -0.15370512481E+03  0.17439690405E+03  0.78736090931E+02 0.  0.
          5    1    3    3  501    0  0.34114688103E+02  0.40040571090E+01 -0.86933177689E+02  0.93591195103E+02  0.47000000000E+01 0. -1.
        -13    1    4    4    0    0  0.10198502128E+02  0.39934213002E+02 -0.27876264804E+03  0.28179312403E+03  0.00000000000E+00 0.  1.
         14    1    4    4    0    0 -0.45340235265E+02  0.39626787506E+02 -0.12880642237E+04  0.12894710014E+04  0.00000000000E+00 0. -1.
         -5    1    5    5    0  502 -0.23205300473E+02 -0.82004234926E+02 -0.48312261600E+03  0.49060445636E+03  0.47000000000E+01 0.  1.
         13    1    6    6    0    0 -0.17208982303E+02 -0.27554220479E+02 -0.48503607524E+02  0.58377941732E+02  0.00000000000E+00 0. -1.
        -14    1    6    6    0    0  0.41441327811E+02  0.25993397788E+02 -0.10520151728E+03  0.11601896232E+03  0.00000000000E+00 0.  1.
</event>
<event>
12    1  0.1629553E-001  0.2035272E+03  0.7818608E-02  0.1146871E+00
         21   -1    0    0  501  502  0.00000000000E+00  0.00000000000E+00  0.73840295451E+02  0.73840295451E+02  0.00000000000E+00 0.  1.
         21   -1    0    0  502  503 -0.00000000000E+00 -0.00000000000E+00 -0.62657956644E+03  0.62657956644E+03  0.00000000000E+00 0.  1.
         -6    2    1    2    0  503  0.63302884915E+02  0.87429328273E+02 -0.39074483640E+03  0.44057330414E+03  0.17254612853E+03 0.  0.
        -24    2    3    3    0    0  0.67619417166E+02  0.86584257328E+02 -0.40378135892E+03  0.42603413240E+03  0.79977978009E+02 0.  0.
          6    2    1    2  501    0 -0.63302884915E+02 -0.87429328273E+02 -0.16199443460E+03  0.25984655775E+03  0.17212464686E+03 0.  0.
         24    2    5    5    0    0 -0.87092228357E+02 -0.59408116874E+02 -0.49156321973E+02  0.14107934507E+03  0.79828923478E+02 0.  0.
          5    1    5    5  501    0  0.23789343442E+02 -0.28021211399E+02 -0.11283811262E+03  0.11876721269E+03  0.47000000000E+01 0. -1.
        -13    1    6    6    0    0 -0.37179449455E+02 -0.29202244159E+02  0.19362128939E+02  0.51087910143E+02  0.00000000000E+00 0.  1.
         14    1    6    6    0    0 -0.49912778902E+02 -0.30205872715E+02 -0.68518450912E+02  0.89991434924E+02  0.00000000000E+00 0. -1.
         -5    1    3    3    0  503 -0.43165322502E+01  0.84507094563E+00  0.13036522518E+02  0.14539171742E+02  0.47000000000E+01 0.  1.
         11    1    4    4    0    0  0.38011714646E+02 -0.30372991102E+01 -0.77471132045E+02  0.86347506835E+02  0.00000000000E+00 0. -1.
        -12    1    4    4    0    0  0.29607702519E+02  0.89621556438E+02 -0.32631022687E+03  0.33968662556E+03  0.00000000000E+00 0.  1.
</event>
<event>
12    1  0.1629553E-001  0.1810125E+03  0.7818608E-02  0.1167925E+00
         21   -1    0    0  503  502  0.00000000000E+00  0.00000000000E+00  0.32304557577E+03  0.32304557577E+03  0.00000000000E+00 0.  1.
         21   -1    0    0  501  503 -0.00000000000E+00 -0.00000000000E+00 -0.41778849515E+03  0.41778849515E+03  0.00000000000E+00 0.  1.
          6    2    1    2  501    0 -0.68642602933E+01 -0.56240816366E+02 -0.37083422506E+03  0.41069480291E+03  0.16715876037E+03 0.  0.
         24    2    3    3    0    0  0.97283752267E+01 -0.19431690813E+02 -0.35804471059E+03  0.36808155429E+03  0.82557761217E+02 0.  0.
         -6    2    1    2    0  502  0.68642602933E+01  0.56240816366E+02  0.27609130567E+03  0.33013926801E+03  0.17191678137E+03 0.  0.
        -24    2    5    5    0    0 -0.37948559347E+01 -0.39546477794E+02  0.14770734967E+03  0.16953617762E+03  0.73121334369E+02 0.  0.
          5    1    3    3  501    0 -0.16592635520E+02 -0.36809125554E+02 -0.12789514470E+02  0.42613248620E+02  0.47000000000E+01 0. -1.
        -11    1    4    4    0    0  0.44393193182E+02 -0.11423462414E+02 -0.14459391735E+03  0.15168603109E+03  0.00000000000E+00 0.  1.
         12    1    4    4    0    0 -0.34664817955E+02 -0.80082283988E+01 -0.21345079324E+03  0.21639552320E+03  0.00000000000E+00 0. -1.
         -5    1    5    5    0  502  0.10659116228E+02  0.95787294160E+02  0.12838395601E+03  0.16060309039E+03  0.47000000000E+01 0.  1.
         11    1    6    6    0    0  0.24117672224E+02 -0.12155894531E+02  0.11625362199E+03  0.11934962301E+03  0.00000000000E+00 0. -1.
        -12    1    6    6    0    0 -0.27912528159E+02 -0.27390583262E+02  0.31453727673E+02  0.50186554616E+02  0.00000000000E+00 0.  1.
</event>
<event>
12    1  0.1629553E-001  0.2034382E+03  0.7818608E-02  0.1146906E+00
         21   -1    0    0  503  502  0.00000000000E+00  0.00000000000E+00  0.13970615045E+03  0.13970615045E+03  0.00000000000E+00 0. -1.
         21   -1    0    0  501  503 -0.00000000000E+00 -0.00000000000E+00 -0.30291645457E+03  0.30291645457E+03  0.00000000000E+00 0.  1.
          6    2    1    2  501    0 -0.21004788948E+02 -0.10641900394E+03 -0.11504054519E+03  0.23355937481E+03  0.17189953160E+03 0.  0.
         24    2    3    3    0    0 -0.44490286044E+02 -0.98165795086E+02 -0.14259012194E+03  0.19613273711E+03  0.80747748041E+02 0.  0.
         -6    2    1    2    0  502  0.21004788948E+02  0.10641900394E+03 -0.48169758933E+02  0.20906323021E+03  0.17210724270E+03 0.  0.
        -24    2    5    5    0    0  0.15737128208E+02  0.14349574987E+03 -0.33629712762E+02  0.16861652106E+03  0.80385857969E+02 0.  0.
          5    1    3    3  501    0  0.23485497096E+02 -0.82532088579E+01  0.27549576749E+02  0.37426637698E+02  0.47000000000E+01 0. -1.
        -11    1    4    4    0    0 -0.58876353156E+01 -0.70025254124E+02 -0.35197011038E+02  0.78594084070E+02  0.00000000000E+00 0.  1.
         12    1    4    4    0    0 -0.38602650728E+02 -0.28140540962E+02 -0.10739311090E+03  0.11753865304E+03  0.00000000000E+00 0. -1.
         -5    1    5    5    0  502  0.52676607399E+01 -0.37076745923E+02 -0.14540046171E+02  0.40446709144E+02  0.47000000000E+01 0.  1.
         11    1    6    6    0    0  0.36321934530E+02  0.95589240230E+02  0.70252551504E+01  0.10249848772E+03  0.00000000000E+00 0. -1.
        -12    1    6    6    0    0 -0.20584806322E+02  0.47906509637E+02 -0.40654967913E+02  0.66118033341E+02  0.00000000000E+00 0.  1.
</event>
<event>
12    1  0.1629553E-001  0.1974491E+03  0.7818608E-02  0.1152606E+00
         21   -1    0    0  501  502  0.00000000000E+00  0.00000000000E+00  0.14302003452E+04  0.14302003452E+04  0.00000000000E+00 0. -1.
         21   -1    0    0  502  503 -0.00000000000E+00 -0.00000000000E+00 -0.41458921999E+02  0.41458921999E+02  0.00000000000E+00 0.  1.
         -6    2    1    2    0  503  0.86602365745E+02  0.25792830009E+02  0.11353468964E+04  0.11523882728E+04  0.17555886896E+03 0.  0.
        -24    2    3    3    0    0  0.10456637091E+03 -0.31163464855E+02  0.76295080675E+03  0.77520441507E+03  0.83322650904E+02 0.  0.
          6    2    1    2  501    0 -0.86602365745E+02 -0.25792830009E+02  0.25339452689E+03  0.31927099441E+03  0.17193004909E+03 0.  0.
         24    2    5    5    0    0 -0.51405767009E+02 -0.49462161351E+02  0.55844559150E+02  0.11716429595E+03  0.74295350940E+02 0.  0.
          5    1    5    5  501    0 -0.35196598736E+02  0.23669331342E+02  0.19754996774E+03  0.20210669846E+03  0.47000000000E+01 0. -1.
        -13    1    6    6    0    0 -0.60738310139E+02 -0.55857580924E+02  0.28049568898E+02  0.87154976798E+02  0.00000000000E+00 0.  1.
         14    1    6    6    0    0  0.93325431303E+01  0.63954195731E+01  0.27794990252E+02  0.30009319151E+02  0.00000000000E+00 0. -1.
         -5    1    3    3    0  503 -0.17964005162E+02  0.56956294865E+02  0.37239608960E+03  0.37718385776E+03  0.47000000000E+01 0.  1.
         13    1    4    4    0    0  0.65727256325E+02 -0.24551962761E+02  0.22206549548E+03  0.23288614253E+03  0.00000000000E+00 0. -1.
        -14    1    4    4    0    0  0.38839114582E+02 -0.66115020948E+01  0.54088531127E+03  0.54231827254E+03  0.00000000000E+00 0.  1.
</event>
<event>
12    1  0.1629553E-001  0.2452262E+03  0.7818608E-02  0.1116620E+00
         21   -1    0    0  503  502  0.00000000000E+00  0.00000000000E+00  0.16651807021E+03  0.16651807021E+03  0.00000000000E+00 0.  1.
         21   -1    0    0  501  503 -0.00000000000E+00 -0.00000000000E+00 -0.62539945845E+03  0.62539945845E+03  0.00000000000E+00 0. -1.
          6    2    1    2  501    0  0.10563651343E+03 -0.13822279155E+03 -0.48840631018E+03  0.54651316033E+03  0.17283314935E+03 0.  0.
         24    2    3    3    0    0  0.33566741460E+02 -0.65148289732E+02 -0.38421879224E+03  0.40018796174E+03  0.84588998223E+02 0.  0.
         -6    2    1    2    0  502 -0.10563651343E+03  0.13822279155E+03  0.29524921939E+02  0.24540436834E+03  0.17054902494E+03 0.  0.
        -24    2    5    5    0    0 -0.11133297164E+03  0.15363186687E+03 -0.63366260616E+01  0.20567994432E+03  0.79159999842E+02 0.  0.
          5    1    3    3  501    0  0.72069771974E+02 -0.73074501823E+02 -0.10418751794E+03  0.14632519859E+03  0.47000000000E+01 0. -1.
        -11    1    4    4    0    0 -0.20993806234E+02 -0.20702945469E+02 -0.45371329432E+02  0.54110159728E+02  0.00000000000E+00 0.  1.
         12    1    4    4    0    0  0.54560547694E+02 -0.44445344263E+02 -0.33884746281E+03  0.34607780201E+03  0.00000000000E+00 0. -1.
         -5    1    5    5    0  502  0.56964582023E+01 -0.15409075317E+02  0.35861548001E+02  0.39724424013E+02  0.47000000000E+01 0.  1.
         13    1    6    6    0    0 -0.33421503585E+02  0.58322356182E+01  0.15281875315E+02  0.37209509367E+02  0.00000000000E+00 0. -1.
        -14    1    6    6    0    0 -0.77911468051E+02  0.14779963125E+03 -0.21618501377E+02  0.16847043496E+03  0.00000000000E+00 0.  1.
</event>
<event>
12    1  0.1629553E-001  0.1933015E+03  0.7818608E-02  0.1158282E+00
         21   -1    0    0  503  502  0.00000000000E+00  0.00000000000E+00  0.37185020361E+02  0.37185020361E+02  0.00000000000E+00 0. -1.
         21   -1    0    0  501  503 -0.00000000000E+00 -0.00000000000E+00 -0.94557818713E+03  0.94557818713E+03  0.00000000000E+00 0. -1.
          6    2    1    2  501    0  0.55540945175E+02 -0.19676052075E+02 -0.49519003067E+03  0.53158126921E+03  0.18410197089E+03 0.  0.
         24    2    3    3    0    0 -0.51326998703E+01 -0.43254099848E+02 -0.12208638041E+03  0.15281268633E+03  0.80928184586E+02 0.  0.
         -6    2    1    2    0  502 -0.55540945175E+02  0.19676052075E+02 -0.41320313610E+03  0.45118193828E+03  0.17133699581E+03 0.  0.
        -24    2    5    5    0    0 -0.39239461556E+02  0.28194952083E+02 -0.97460564787E+02  0.13486916370E+03  0.79727278654E+02 0.  0.
          5    1    3    3  501    0  0.60673645046E+02  0.23578047774E+02 -0.37310365026E+03  0.37876858288E+03  0.47000000000E+01 0. -1.
        -13    1    4    4    0    0 -0.16940920835E+02  0.17440591536E+02 -0.13382802557E+02  0.27753710313E+02  0.00000000000E+00 0.  1.
         14    1    4    4    0    0  0.11808220964E+02 -0.60694691384E+02 -0.10870357786E+03  0.12505897602E+03  0.00000000000E+00 0. -1.
         -5    1    5    5    0  502 -0.16301483619E+02 -0.85189000086E+01 -0.31574257131E+03  0.31631277459E+03  0.47000000000E+01 0.  1.
         11    1    6    6    0    0 -0.40177637009E+02  0.51609653909E+02 -0.51380912037E+02  0.83173295077E+02  0.00000000000E+00 0. -1.
        -12    1    6    6    0    0  0.93817545285E+00 -0.23414701826E+02 -0.46079652750E+02  0.51695868620E+02  0.00000000000E+00 0.  1.
</event>
<event>
12    1  0.1629553E-001  0.1803290E+03  0.7818608E-02  0.1169101E+00
         21   -1    0    0  501  502  0.00000000000E+00  0.00000000000E+00  0.53004574041E+02  0.53004574041E+02  0.00000000000E+00 0.  1.
         21   -1    0    0  502  503 -0.00000000000E+00 -0.00000000000E+00 -0.71093214052E+03  0.71093214052E+03  0.00000000000E+00 0.  1.
         -6    2    1    2    0  503  0.29777291693E+02  0.33971737932E+01 -0.49064443438E+03  0.52273369123E+03  0.17782104226E+03 0.  0.
        -24    2    3    3    0    0 -0.32562244997E+02  0.41546749119E+02 -0.17428101696E+03  0.19800378837E+03  0.77750853206E+02 0.  0.
          6    2    1    2  501    0 -0.29777291693E+02 -0.33971737932E+01 -0.16728313210E+03  0.24120302333E+03  0.17116373532E+03 0.  0.
         24    2    5    5    0    0 -0.57297929418E+02  0.51063227953E+02 -0.12054258506E+03  0.16419594835E+03  0.80865868437E+02 0.  0.
          5    1    5    5  501    0  0.27520637725E+02 -0.54460401746E+02 -0.46740547044E+02  0.77007074981E+02  0.47000000000E+01 0. -1.
        -13    1    6    6    0    0 -0.29889410794E+02  0.14296304991E+01  0.11473619702E+01  0.29945569964E+02  0.00000000000E+00 0.  1.
         14    1    6    6    0    0 -0.27408518624E+02  0.49633597454E+02 -0.12168994703E+03  0.13425037839E+03  0.00000000000E+00 0. -1.
         -5    1    3    3    0  503  0.62339536690E+02 -0.38149575326E+02 -0.31636341742E+03  0.32472990286E+03  0.47000000000E+01 0.  1.
         11    1    4    4    0    0 -0.43351878850E+02  0.25312944495E+01 -0.45012134884E+02  0.62545064859E+02  0.00000000000E+00 0. -1.
        -12    1    4    4    0    0  0.10789633852E+02  0.39015454670E+02 -0.12926888208E+03  0.13545872351E+03  0.00000000000E+00 0.  1.
</event>
<event>
12    1  0.1629553E-001  0.1950121E+03  0.7818608E-02  0.1154087E+00
         21   -1    0    0  503  502  0.00000000000E+00  0.00000000000E+00  0.17442222070E+03  0.17442222070E+03  0.00000000000E+00 0.  1.
         21   -1    0    0  501  503 -0.00000000000E+00 -0.00000000000E+00 -0.28313567668E+03  0.28313567668E+03  0.00000000000E+00 0. -1.
          6    2    1    2  501    0 -0.90887283129E+02  0.11351932233E+02 -0.16439598735E+03  0.25506028124E+03  0.17216370641E+03 0.  0.
         24    2    3    3    0    0 -0.79525575922E+02 -0.55863628717E+02 -0.96116690943E+02  0.15846228776E+03  0.80167425595E+02 0.  0.
         -6    2    1    2    0  502  0.90887283129E+02 -0.11351932233E+02  0.55682531378E+02  0.20249761614E+03  0.17180039477E+03 0.  0.
        -24    2    5    5    0    0  0.37934594253E+02  0.46848994968E+02 -0.98812132725E+01  0.99969425876E+02  0.79135238443E+02 0.  0.
          5    1    3    3  501    0 -0.11361707207E+02  0.67215560949E+02 -0.68279296412E+02  0.96597993473E+02  0.47000000000E+01 0. -1.
        -13    1    4    4    0    0 -0.61440648175E+02 -0.33236525486E+02 -0.13808722444E+02  0.71206043915E+02  0.00000000000E+00 0.  1.
         14    1    4    4    0    0 -0.18084927747E+02 -0.22627103231E+02 -0.82307968498E+02  0.87256243849E+02  0.00000000000E+00 0. -1.
         -5    1    5    5    0  502  0.52952688875E+02 -0.58200927201E+02  0.65563744650E+02  0.10252819026E+03  0.47000000000E+01 0.  1.
         11    1    6    6    0    0  0.10414808689E+02  0.37250952582E+00 -0.37770004540E+02  0.39181376269E+02  0.00000000000E+00 0. -1.
        -12    1    6    6    0    0  0.27519785565E+02  0.46476485442E+02  0.27888791268E+02  0.60788049607E+02  0.00000000000E+00 0.  1.
</event>
<event>
12    1  0.1629553E-001  0.1947974E+03  0.7818608E-02  0.1154293E+00
         21   -1    0    0  501  502  0.00000000000E+00  0.00000000000E+00  0.12770582941E+03  0.12770582941E+03  0.00000000000E+00 0. -1.
         21   -1    0    0  502  503 -0.00000000000E+00 -0.00000000000E+00 -0.34797198150E+03  0.34797198150E+03  0.00000000000E+00 0. -1.
         -6    2    1    2    0  503  0.89069613273E+02  0.18122267572E+02 -0.20169028278E+03  0.28040146063E+03  0.17229102230E+03 0.  0.
        -24    2    3    3    0    0  0.60770900490E+02  0.42975353274E+01 -0.22129519602E+03  0.24300650121E+03  0.79806169531E+02 0.  0.
          6    2    1    2  501    0 -0.89069613273E+02 -0.18122267572E+02 -0.18575869307E+02  0.19527635028E+03  0.17183124706E+03 0.  0.
         24    2    5    5    0    0 -0.43284494160E+02 -0.30622004944E+00  0.55862380546E+02  0.10596323969E+03  0.78955439331E+02 0.  0.
          5    1    5    5  501    0 -0.45785119113E+02 -0.17816047523E+02 -0.74438249853E+02  0.89313110587E+02  0.47000000000E+01 0. -1.
        -11    1    6    6    0    0  0.92618182894E+01  0.17479126992E+02 -0.80294295580E+01  0.21348838317E+02  0.00000000000E+00 0.  1.
         12    1    6    6    0    0 -0.52546312450E+02 -0.17785347042E+02  0.63891810104E+02  0.84614401374E+02  0.00000000000E+00 0. -1.
         -5    1    3    3    0  503  0.28298712783E+02  0.13824732245E+02  0.19604913237E+02  0.37394959418E+02  0.47000000000E+01 0.  1.
         13    1    4    4    0    0  0.51655959838E+02 -0.30118167870E+02 -0.99212941298E+02  0.11583889651E+03  0.00000000000E+00 0. -1.
        -14    1    4    4    0    0  0.91149406526E+01  0.34415703198E+02 -0.12208225472E+03  0.12716760471E+03  0.00000000000E+00 0.  1.
</event>
<event>
12    1  0.1629553E-001  0.1806701E+03  0.7818608E-02  0.1167232E+00
         21   -1    0    0  503  502  0.00000000000E+00  0.00000000000E+00  0.39026714339E+03  0.39026714339E+03  0.00000000000E+00 0. -1.
         21   -1    0    0  501  503 -0.00000000000E+00 -0.00000000000E+00 -0.83776285151E+02  0.83776285151E+02  0.00000000000E+00 0. -1.
          6    2    1    2  501    0 -0.70971367203E+01  0.54975092542E+02  0.13959104264E+03  0.22831414555E+03  0.17195656347E+03 0.  0.
         24    2    3    3    0    0  0.26582652730E+02  0.52481897419E+02  0.16570722876E+02  0.10065587783E+03  0.79975183044E+02 0.  0.
         -6    2    1    2    0  502  0.70971367203E+01 -0.54975092542E+02  0.16689981559E+03  0.24572928299E+03  0.17162372192E+03 0.  0.
        -24    2    5    5    0    0 -0.39053957732E+02 -0.61449640793E+01  0.14552381940E+03  0.17506579753E+03  0.88926257385E+02 0.  0.
          5    1    3    3  501    0 -0.33679789451E+02  0.24931951225E+01  0.12302031977E+03  0.12765826771E+03  0.47000000000E+01 0. -1.
        -11    1    4    4    0    0 -0.22760025684E+02 -0.50284259405E+01  0.66039081436E+01  0.24226337721E+02  0.00000000000E+00 0.  1.
         12    1    4    4    0    0  0.49342678414E+02  0.57510323360E+02  0.99668147326E+01  0.76429540114E+02  0.00000000000E+00 0. -1.
         -5    1    5    5    0  502  0.46151094453E+02 -0.48830128463E+02  0.21375996191E+02  0.70663485465E+02  0.47000000000E+01 0.  1.
         11    1    6    6    0    0 -0.18937554468E+02 -0.31263126198E+02  0.13163468839E+02  0.38849593831E+02  0.00000000000E+00 0. -1.
        -12    1    6    6    0    0 -0.20116403264E+02  0.25118162119E+02  0.13236035056E+03  0.13621620370E+03  0.00000000000E+00 0.  1.
</event>
<event>
12    1  0.1629553E-001  0.1837354E+03  0.7818608E-02  0.1165233E+00
         21   -1    0    0  503  502  0.00000000000E+00  0.00000000000E+00  0.11497061937E+04  0.11497061937E+04  0.00000000000E+00 0.  1.
         21   -1    0    0  501  503 -0.00000000000E+00 -0.00000000000E+00 -0.29686941547E+02  0.29686941547E+02  0.00000000000E+00 0.  1.
          6    2    1    2  501    0 -0.10236957688E+02 -0.38033115924E+02  0.67381090232E+03  0.69841236492E+03  0.17946416407E+03 0.  0.
         24    2    3    3    0    0  0.52445958550E+02 -0.57573857658E+02  0.50580717642E+03  0.51797309400E+03  0.79936842166E+02 0.  0.
         -6    2    1    2    0  502  0.10236957688E+02  0.38033115924E+02  0.44620834980E+03  0.48098077029E+03  0.17518360867E+03 0.  0.
        -24    2    5    5    0    0 -0.20022815517E+02 -0.12460259682E+02  0.98300952883E+02  0.12809710435E+03  0.78674135481E+02 0.  0.
          5    1    3    3  501    0 -0.62682916238E+02  0.19540741734E+02  0.16800372590E+03  0.18043927093E+03  0.47000000000E+01 0. -1.
        -13    1    4    4    0    0  0.21249852967E+02 -0.49058676073E+01  0.24547499713E+02  0.32836009658E+02  0.00000000000E+00 0.  1.
         14    1    4    4    0    0  0.31196105584E+02 -0.52667990051E+02  0.48125967670E+03  0.48513708434E+03  0.00000000000E+00 0. -1.
         -5    1    5    5    0  502  0.30259773205E+02  0.50493375606E+02  0.34790739692E+03  0.35288366594E+03  0.47000000000E+01 0.  1.
         11    1    6    6    0    0  0.43843256523E+01  0.14100869057E+02 -0.73234134569E+01  0.16482997429E+02  0.00000000000E+00 0. -1.
        -12    1    6    6    0    0 -0.24407141170E+02 -0.26561128740E+02  0.10562436634E+03  0.11161410693E+03  0.00000000000E+00 0.  1.
</event>
<event>
12    1  0.1629553E-001  0.2237392E+03  0.7818608E-02  0.1131525E+00
         21   -1    0    0  503  502  0.00000000000E+00  0.00000000000E+00  0.13713128926E+03  0.13713128926E+03  0.00000000000E+00 0.  1.
         21   -1    0    0  501  503 -0.00000000000E+00 -0.00000000000E+00 -0.71275520869E+03  0.71275520869E+03  0.00000000000E+00 0. -1.
          6    2    1    2  501    0 -0.19168243801E+02 -0.13958915748E+03 -0.58540926882E+03  0.62593342349E+03  0.17098562559E+03 0.  0.
         24    2    3    3    0    0  0.24200427513E+01 -0.10946750930E+03 -0.21791289201E+03  0.25654332511E+03  0.79620706838E+02 0.  0.
         -6    2    1    2    0  502  0.19168243801E+02  0.13958915748E+03  0.97853493869E+01  0.22395307446E+03  0.17380066756E+03 0.  0.
        -24    2    5    5    0    0 -0.31570430168E+02  0.46264609336E+02 -0.43693601237E+02  0.10493218352E+03  0.77230345139E+02 0.  0.
          5    1    3    3  501    0 -0.21588286553E+02 -0.30121648178E+02 -0.36749637681E+03  0.36939009837E+03  0.47000000000E+01 0. -1.
        -11    1    4    4    0    0  0.57142183379E+01 -0.23362514080E+02 -0.20746330084E+01  0.24140494143E+02  0.00000000000E+00 0.  1.
         12    1    4    4    0    0 -0.32941755866E+01 -0.86104995218E+02 -0.21583825900E+03  0.23240283097E+03  0.00000000000E+00 0. -1.
         -5    1    5    5    0  502  0.50738673969E+02  0.93324548140E+02  0.53478950624E+02  0.11902089095E+03  0.47000000000E+01 0.  1.
         13    1    6    6    0    0  0.56788918084E+01  0.39190747320E+02 -0.52740776350E+02  0.65952664675E+02  0.00000000000E+00 0. -1.
        -14    1    6    6    0    0 -0.37249321976E+02  0.70738620166E+01  0.90471751133E+01  0.38979518841E+02  0.00000000000E+00 0.  1.
</event>
<event>
12    1  0.1629553E-001  0.2129139E+03  0.7818608E-02  0.1139619E+00
         21   -1    0    0  501  502  0.00000000000E+00  0.00000000000E+00  0.36628586080E+03  0.36628586080E+03  0.00000000000E+00 0.  1.
         21   -1    0    0  502  503 -0.00000000000E+00 -0.00000000000E+00 -0.32308070562E+03  0.32308070562E+03  0.00000000000E+00 0. -1.
         -6    2    1    2    0  503 -0.99438232137E+02 -0.73190994724E+02 -0.24984634666E+03  0.32713529225E+03  0.17131672066E+03 0.  0.
        -24    2    3    3    0    0 -0.30392084925E+01 -0.43164412767E+02 -0.18687444525E+03  0.20804743497E+03  0.80556027680E+02 0.  0.
          6    2    1    2  501    0  0.99438232137E+02  0.73190994724E+02  0.29305150183E+03  0.36223127417E+03  0.17345728448E+03 0.  0.
         24    2    5    5    0    0  0.11799022367E+03  0.72210214153E+01  0.18952355422E+03  0.23798820714E+03  0.82130220385E+02 0.  0.
          5    1    5    5  501    0 -0.18551991529E+02  0.65969973309E+02  0.10352794761E+03  0.12424306703E+03  0.47000000000E+01 0. -1.
        -13    1    6    6    0    0  0.20986863700E+01  0.19772609541E+02  0.62485477981E+02  0.65572826164E+02  0.00000000000E+00 0.  1.
         14    1    6    6    0    0  0.11589153730E+03 -0.12551588126E+02  0.12703807624E+03  0.17241538097E+03  0.00000000000E+00 0. -1.
         -5    1    3    3    0  503 -0.96399023645E+02 -0.30026581957E+02 -0.62971901413E+02  0.11908785728E+03  0.47000000000E+01 0.  1.
         11    1    4    4    0    0  0.28495028854E+00 -0.63685238396E+02 -0.98756707619E+02  0.11751075732E+03  0.00000000000E+00 0. -1.
        -12    1    4    4    0    0 -0.33241587810E+01  0.20520825629E+02 -0.88117737627E+02  0.90536677654E+02  0.00000000000E+00 0.  1.
</event>
<event>
12    1  0.1629553E-001  0.2517999E+03  0.7818608E-02  0.1112564E+00
         21   -1    0    0  501  502  0.00000000000E+00  0.00000000000E+00  0.12768567731E+04  0.12768567731E+04  0.00000000000E+00 0.  1.
         21   -1    0    0  502  503 -0.00000000000E+00 -0.00000000000E+00 -0.61499028957E+02  0.61499028957E+02  0.00000000000E+00 0.  1.
         -6    2    1    2    0  503  0.10958591932E+03 -0.14468884628E+03  0.31043231050E+03  0.39971415768E+03  0.17452579322E+03 0.  0.
        -24    2    3    3    0    0 -0.13734436893E+02 -0.46644724282E+02  0.13773955186E+03  0.16590774417E+03  0.78669119533E+02 0.  0.
          6    2    1    2  501    0 -0.10958591932E+03  0.14468884628E+03  0.90492543363E+03  0.93864164436E+03  0.17092150288E+03 0.  0.
         24    2    5    5    0    0 -0.13406417442E+03  0.15712327850E+03  0.74521013077E+03  0.77651555748E+03  0.70550297679E+02 0.  0.
          5    1    5    5  501    0  0.24478255104E+02 -0.12434432225E+02  0.15971530286E+03  0.16212608688E+03  0.47000000000E+01 0. -1.
        -11    1    6    6    0    0 -0.39234327776E+02  0.54599556556E+02  0.37209198864E+03  0.37811756381E+03  0.00000000000E+00 0.  1.
         12    1    6    6    0    0 -0.94829846647E+02  0.10252372195E+03  0.37311814213E+03  0.39839799367E+03  0.00000000000E+00 0. -1.
         -5    1    3    3    0  503  0.12332035621E+03 -0.98044121996E+02  0.17269275864E+03  0.23380641351E+03  0.47000000000E+01 0.  1.
         13    1    4    4    0    0 -0.19833568579E+02  0.18264517941E+02  0.46836407899E+02  0.54042688340E+02  0.00000000000E+00 0. -1.
        -14    1    4    4    0    0  0.60991316854E+01 -0.64909242223E+02  0.90903143961E+02  0.11186505583E+03  0.00000000000E+00 0.  1.
</event>
<event>
12    1  0.1629553E-001  0.2065515E+03  0.7818608E-02  0.1144476E+00
         21   -1    0    0  503  502  0.00000000000E+00  0.00000000000E+00  0.22383017666E+03  0.22383017666E+03  0.00000000000E+00 0. -1.
         21   -1    0    0  501  503 -0.00000000000E+00 -0.00000000000E+00 -0.19024708857E+03  0.19024708857E+03  0.00000000000E+00 0.  1.
          6    2    1    2  501    0  0.19771412892E+02 -0.11226389530E+03  0.83032277139E+01  0.20671829505E+03  0.17224813196E+03 0.  0.
         24    2    3    3    0    0 -0.51869955452E+02 -0.40074531999E+02 -0.92373123637E+01  0.10340541891E+03  0.79441124903E+02 0.  0.
         -6    2    1    2    0  502 -0.19771412892E+02  0.11226389530E+03  0.25279860377E+02  0.20735897017E+03  0.17136096467E+03 0.  0.
        -24    2    5    5    0    0  0.46478256713E+02  0.11884278148E+03  0.20672764571E+02  0.14045892684E+03  0.54931883967E+02 0.  0.
          5    1    3    3  501    0  0.71641368345E+02 -0.72189363300E+02  0.17540540078E+02  0.10331287615E+03  0.47000000000E+01 0. -1.
        -13    1    4    4    0    0 -0.58109550572E+02 -0.20289518290E+02 -0.34624127057E+02  0.70620213782E+02  0.00000000000E+00 0.  1.
         14    1    4    4    0    0  0.62395951196E+01 -0.19785013709E+02  0.25386814694E+02  0.32785205124E+02  0.00000000000E+00 0. -1.
         -5    1    5    5    0  502 -0.66249669605E+02 -0.65788861796E+01  0.46070958058E+01  0.66900043332E+02  0.47000000000E+01 0.  1.
         13    1    6    6    0    0  0.18126544028E+02  0.19297237188E+02 -0.15663273513E+02  0.30761877359E+02  0.00000000000E+00 0. -1.
        -14    1    6    6    0    0  0.28351712685E+02  0.99545544291E+02  0.36336038084E+02  0.10969704948E+03  0.00000000000E+00 0.  1.
</event>
<event>
12    1  0.1629553E-001  0.3268770E+03  0.7818608E-02  0.1072855E+00
         21   -1    0    0  501  502  0.00000000000E+00  0.00000000000E+00  0.71791444148E+03  0.71791444148E+03  0.00000000000E+00 0. -1.
         21   -1    0    0  502  503 -0.00000000000E+00 -0.00000000000E+00 -0.15122314748E+03  0.15122314748E+03  0.00000000000E+00 0.  1.
         -6    2    1    2    0  503 -0.15589520659E+03 -0.22688662948E+03  0.35270500452E+03  0.48088396380E+03  0.17626034254E+03 0.  0.
        -24    2    3    3    0    0 -0.17180074056E+03 -0.20345355458E+03  0.35726640522E+03  0.45181522826E+03  0.74758764432E+02 0.  0.
          6    2    1    2  501    0  0.15589520659E+03  0.22688662948E+03  0.21398628948E+03  0.38825362516E+03  0.17079194152E+03 0.  0.
         24    2    5    5    0    0  0.13992401869E+03  0.15217464925E+03  0.84033342393E+02  0.23743314482E+03  0.81098956501E+02 0.  0.
          5    1    5    5  501    0  0.15971187901E+02  0.74711980232E+02  0.12995294708E+03  0.15082048034E+03  0.47000000000E+01 0. -1.
        -13    1    6    6    0    0  0.88011385707E+02  0.11222009038E+03  0.94515079622E+02  0.17109194304E+03  0.00000000000E+00 0.  1.
         14    1    6    6    0    0  0.51912632986E+02  0.39954558869E+02 -0.10481737230E+02  0.66341201777E+02  0.00000000000E+00 0. -1.
         -5    1    3    3    0  503  0.15905533966E+02 -0.23433074901E+02 -0.45614006946E+01  0.29068735548E+02  0.47000000000E+01 0.  1.
         11    1    4    4    0    0 -0.11870883287E+03 -0.12005950364E+03  0.27732768626E+03  0.32467940646E+03  0.00000000000E+00 0. -1.
        -12    1    4    4    0    0 -0.53091907687E+02 -0.83394050943E+02  0.79938718963E+02  0.12713582180E+03  0.00000000000E+00 0.  1.
</event>
<event>
12    1  0.1629553E-001  0.4330122E+03  0.7818608E-02  0.1032988E+00
         21   -1    0    0  503  502  0.00000000000E+00  0.00000000000E+00  0.10974103873E+04  0.10974103873E+04  0.00000000000E+00 0. -1.
         21   -1    0    0  501  503 -0.00000000000E+00 -0.00000000000E+00 -0.22616592537E+03  0.22616592537E+03  0.00000000000E+00 0.  1.
          6    2    1    2  501    0 -0.11883685765E+02 -0.39567366870E+03  0.76438165349E+03  0.87850945027E+03  0.17550119069E+03 0.  0.
         24    2    3    3    0    0  0.31025764153E+02 -0.35219260215E+03  0.57724099316E+03  0.68159439044E+03  0.79759148939E+02 0.  0.
         -6    2    1    2    0  502  0.11883685765E+02  0.39567366870E+03  0.10686280847E+03  0.44506686243E+03  0.17310684017E+03 0.  0.
        -24    2    5    5    0    0 -0.21098064167E+02  0.14584619594E+03  0.94920414561E+02  0.19274509812E+03  0.80153269226E+02 0.  0.
          5    1    3    3  501    0 -0.42909449918E+02 -0.43481066546E+02  0.18714066034E+03  0.19691505984E+03  0.47000000000E+01 0. -1.
        -11    1    4    4    0    0  0.25780557202E+02 -0.44805056148E+02  0.11942651188E+03  0.13013386156E+03  0.00000000000E+00 0.  1.
         12    1    4    4    0    0  0.52452069508E+01 -0.30738754600E+03  0.45781448128E+03  0.55146052887E+03  0.00000000000E+00 0. -1.
         -5    1    5    5    0  502  0.32981749933E+02  0.24982747276E+03  0.11942393912E+02  0.25232176432E+03  0.47000000000E+01 0.  1.
         13    1    6    6    0    0  0.23900317221E+02  0.10257859657E+03  0.59356746579E+02  0.12090002895E+03  0.00000000000E+00 0. -1.
        -14    1    6    6    0    0 -0.44998381389E+02  0.43267599370E+02  0.35563667982E+02  0.71845069164E+02  0.00000000000E+00 0.  1.
</event>
<event>
12    1  0.1629553E-001  0.1777078E+03  0.7818608E-02  0.1170302E+00
         21   -1    0    0  501  502  0.00000000000E+00  0.00000000000E+00  0.10569868307E+04  0.10569868307E+04  0.00000000000E+00 0.  1.
         21   -1    0    0  502  503 -0.00000000000E+00 -0.00000000000E+00 -0.29723682605E+02  0.29723682605E+02  0.00000000000E+00 0.  1.
         -6    2    1    2    0  503 -0.30971986674E+02 -0.23208902309E+02  0.49959818510E+03  0.53026258109E+03  0.17344204000E+03 0.  0.
        -24    2    3    3    0    0 -0.10105373480E+01 -0.11647696052E+02  0.48980743836E+03  0.49636127348E+03  0.79539280391E+02 0.  0.
          6    2    1    2  501    0  0.30971986674E+02  0.23208902309E+02  0.52766496297E+03  0.55644793220E+03  0.17235449223E+03 0.  0.
         24    2    5    5    0    0  0.31536557072E+02 -0.44557709550E+02  0.19865046132E+03  0.22049367234E+03  0.78584412225E+02 0.  0.
          5    1    5    5  501    0 -0.56457039765E+00  0.67766611859E+02  0.32901450165E+03  0.33595425986E+03  0.47000000000E+01 0. -1.
        -13    1    6    6    0    0  0.55228366919E+02 -0.15105313754E+02  0.13174348396E+03  0.14364779352E+03  0.00000000000E+00 0.  1.
         14    1    6    6    0    0 -0.23691809847E+02 -0.29452395795E+02  0.66906977360E+02  0.76845878819E+02  0.00000000000E+00 0. -1.
         -5    1    3    3    0  503 -0.29961449326E+02 -0.11561206257E+02  0.97907467397E+01  0.33901307608E+02  0.47000000000E+01 0.  1.
         11    1    4    4    0    0 -0.12163919886E+02  0.25271310001E+02  0.80596798470E+02  0.85337236771E+02  0.00000000000E+00 0. -1.
        -12    1    4    4    0    0  0.11153382538E+02 -0.36919006053E+02  0.40921063990E+03  0.41102403671E+03  0.00000000000E+00 0.  1.
</event>
<event>
12    1  0.1629553E-001  0.3134770E+03  0.7818608E-02  0.1078758E+00
         21   -1    0    0  503  502  0.00000000000E+00  0.00000000000E+00  0.40904298016E+03  0.40904298016E+03  0.00000000000E+00 0. -1.
         21   -1    0    0  501  503 -0.00000000000E+00 -0.00000000000E+00 -0.27578897559E+03  0.27578897559E+03  0.00000000000E+00 0.  1.
          6    2    1    2  501    0 -0.13510053869E+03 -0.22418198433E+03 -0.57110087692E+02  0.31808093637E+03  0.17147653574E+03 0.  0.
         24    2    3    3    0    0 -0.30493316320E+02 -0.66445772066E+02 -0.69121710074E+02  0.12837128267E+03  0.79727614076E+02 0.  0.
         -6    2    1    2    0  502  0.13510053869E+03  0.22418198433E+03  0.19036409226E+03  0.36675101938E+03  0.17250537655E+03 0.  0.
        -24    2    5    5    0    0  0.98121236689E+02  0.23601839193E+03  0.18916805874E+03  0.32762187656E+03  0.78861151015E+02 0.  0.
          5    1    3    3  501    0 -0.10460722237E+03 -0.15773621227E+03  0.12011622381E+02  0.18970965370E+03  0.47000000000E+01 0. -1.
        -11    1    4    4    0    0 -0.55558443813E+02 -0.46546625152E+02 -0.31639042506E+02  0.79084499130E+02  0.00000000000E+00 0.  1.
         12    1    4    4    0    0  0.25065127493E+02 -0.19899146914E+02 -0.37482667568E+02  0.49286783544E+02  0.00000000000E+00 0. -1.
         -5    1    5    5    0  502  0.36979302003E+02 -0.11836407593E+02  0.11960335212E+01  0.39129142816E+02  0.47000000000E+01 0.  1.
         11    1    6    6    0    0  0.30271892515E+02  0.15027217591E+03  0.14049402955E+03  0.20793433258E+03  0.00000000000E+00 0. -1.
        -12    1    6    6    0    0  0.67849344173E+02  0.85746216020E+02  0.48674029191E+02  0.11968754398E+03  0.00000000000E+00 0.  1.
</event>
<event>
12    1  0.1629553E-001  0.1796939E+03  0.7818608E-02  0.1168530E+00
         21   -1    0    0  503  502  0.00000000000E+00  0.00000000000E+00  0.21808934028E+03  0.21808934028E+03  0.00000000000E+00 0. -1.
         21   -1    0    0  501  503 -0.00000000000E+00 -0.00000000000E+00 -0.18841316599E+03  0.18841316599E+03  0.00000000000E+00 0. -1.
          6    2    1    2  501    0  0.50991255811E+02 -0.13649335440E+02 -0.80843246393E+02  0.19704197508E+03  0.17176582003E+03 0.  0.
         24    2    3    3    0    0  0.81744036544E+02  0.27554492218E+02 -0.15794710492E+02  0.11399445279E+03  0.72828049783E+02 0.  0.
         -6    2    1    2    0  502 -0.50991255811E+02  0.13649335440E+02  0.11051942068E+03  0.20946053118E+03  0.16991986125E+03 0.  0.
        -24    2    5    5    0    0  0.32832572716E+02 -0.16894097298E+02  0.58830347881E+02  0.10624626008E+03  0.80398193974E+02 0.  0.
          5    1    3    3  501    0 -0.30752780733E+02 -0.41203827658E+02 -0.65048535901E+02  0.83047522295E+02  0.47000000000E+01 0. -1.
        -13    1    4    4    0    0  0.75718251593E+02  0.27675685179E+02 -0.39329966494E+02  0.89699740462E+02  0.00000000000E+00 0.  1.
         14    1    4    4    0    0  0.60257849501E+01 -0.12119296098E+00  0.23535256001E+02  0.24294712327E+02  0.00000000000E+00 0. -1.
         -5    1    5    5    0  502 -0.83823828527E+02  0.30543432738E+02  0.51689072801E+02  0.10321427110E+03  0.47000000000E+01 0.  1.
         13    1    6    6    0    0  0.33631573526E+02  0.38493682236E+01 -0.92329284798E+01  0.35087709271E+02  0.00000000000E+00 0. -1.
        -14    1    6    6    0    0 -0.79900080967E+00 -0.20743465522E+02  0.68063276360E+02  0.71158550808E+02  0.00000000000E+00 0.  1.
</event>
<event>
12    1  0.1629553E-001  0.1934677E+03  0.7818608E-02  0.1155458E+00
         21   -1    0    0  501  502  0.00000000000E+00  0.00000000000E+00  0.96471242558E+02  0.96471242558E+02  0.00000000000E+00 0. -1.
         21   -1    0    0  502  503 -0.00000000000E+00 -0.00000000000E+00 -0.16556104608E+04  0.16556104608E+04  0.00000000000E+00 0. -1.
         -6    2    1    2    0  503  0.86755341266E+02 -0.11399279629E+02 -0.15461723422E+04  0.15581799184E+04  0.17210262451E+03 0.  0.
        -24    2    3    3    0    0  0.55560939589E+02 -0.36995501781E+02 -0.47547779749E+03  0.48671496075E+03  0.79728489006E+02 0.  0.
          6    2    1    2  501    0 -0.86755341266E+02  0.11399279629E+02 -0.12966876042E+02  0.19390178500E+03  0.17254949881E+03 0.  0.
         24    2    5    5    0    0 -0.78033247891E+02 -0.41927664495E+02 -0.48174236379E+02  0.12923737358E+03  0.80835789436E+02 0.  0.
          5    1    5    5  501    0 -0.87220933743E+01  0.53326944124E+02  0.35207360337E+02  0.64664411420E+02  0.47000000000E+01 0. -1.
        -13    1    6    6    0    0  0.89812569960E+01 -0.23607187343E+02 -0.28655419498E+02  0.38198106472E+02  0.00000000000E+00 0.  1.
         14    1    6    6    0    0 -0.87014504887E+02 -0.18320477153E+02 -0.19518816882E+02  0.91039267112E+02  0.00000000000E+00 0. -1.
         -5    1    3    3    0  503  0.31194401676E+02  0.25596222152E+02 -0.10706945447E+04  0.10714649576E+04  0.47000000000E+01 0.  1.
         11    1    4    4    0    0  0.32325036270E+02  0.17914889492E+02 -0.27760098348E+03  0.28005027631E+03  0.00000000000E+00 0. -1.
        -12    1    4    4    0    0  0.23235903319E+02 -0.54910391272E+02 -0.19787681401E+03  0.20666468444E+03  0.00000000000E+00 0.  1.
</event>
<event>
12    1  0.1629553E-001  0.1887040E+03  0.7818608E-02  0.1160156E+00
         21   -1    0    0  503  502  0.00000000000E+00  0.00000000000E+00  0.62193804824E+03  0.62193804824E+03  0.00000000000E+00 0. -1.
         21   -1    0    0  501  503 -0.00000000000E+00 -0.00000000000E+00 -0.62319931464E+02  0.62319931464E+02  0.00000000000E+00 0.  1.
          6    2    1    2  501    0  0.18080313071E+02  0.73949907524E+02  0.17432403675E+03  0.25523498189E+03  0.17017796464E+03 0.  0.
         24    2    3    3    0    0  0.64253727761E+02  0.90054686037E+02  0.12168248508E+03  0.18323101618E+03  0.80799691271E+02 0.  0.
         -6    2    1    2    0  502 -0.18080313071E+02 -0.73949907524E+02  0.38529408003E+03  0.42902299781E+03  0.17266649357E+03 0.  0.
        -24    2    5    5    0    0 -0.34176638902E+00  0.28231501413E+02  0.10706646966E+03  0.13205769758E+03  0.71964380690E+02 0.  0.
          5    1    3    3  501    0 -0.46173414690E+02 -0.16104778513E+02  0.52641551670E+02  0.72003965705E+02  0.47000000000E+01 0. -1.
        -13    1    4    4    0    0  0.46671540904E+02  0.77680112788E+02  0.40519634249E+02  0.99268693015E+02  0.00000000000E+00 0.  1.
         14    1    4    4    0    0  0.17582186857E+02  0.12374573249E+02  0.81162850827E+02  0.83962323170E+02  0.00000000000E+00 0. -1.
         -5    1    5    5    0  502 -0.17738546682E+02 -0.10218140894E+03  0.27822761037E+03  0.29696530024E+03  0.47000000000E+01 0.  1.
         13    1    6    6    0    0  0.15771306671E+02 -0.11973363144E+02  0.76560193634E+02  0.79079446055E+02  0.00000000000E+00 0. -1.
        -14    1    6    6    0    0 -0.16113073060E+02  0.40204864557E+02  0.30506276023E+02  0.52978251521E+02  0.00000000000E+00 0.  1.
</event>
<event>
12    1  0.1629553E-001  0.2231156E+03  0.7818608E-02  0.1131807E+00
         21   -1    0    0  501  502  0.00000000000E+00  0.00000000000E+00  0.62436774041E+03  0.62436774041E+03  0.00000000000E+00 0.  1.
         21   -1    0    0  502  503 -0.00000000000E+00 -0.00000000000E+00 -0.14147614026E+03  0.14147614026E+03  0.00000000000E+00 0.  1.
         -6    2    1    2    0  503  0.13110846991E+03 -0.55108999725E+02 -0.12049577159E+02  0.22344071295E+03  0.17191313842E+03 0.  0.
        -24    2    3    3    0    0  0.84381271631E+02 -0.10355467936E+03 -0.92982994150E+01  0.15591238953E+03  0.79865162732E+02 0.  0.
          6    2    1    2  501    0 -0.13110846991E+03  0.55108999725E+02  0.49494117731E+03  0.54240316772E+03  0.17031733507E+03 0.  0.
         24    2    5    5    0    0 -0.11175279602E+03  0.46809633369E+02  0.49854137551E+03  0.52052685585E+03  0.87891270206E+02 0.  0.
          5    1    5    5  501    0 -0.19355673893E+02  0.82993663553E+01 -0.36001982013E+01  0.21876311866E+02  0.47000000000E+01 0. -1.
        -11    1    6    6    0    0  0.49417572722E+01 -0.10074148495E+02  0.11633006213E+03  0.11686998240E+03  0.00000000000E+00 0.  1.
         12    1    6    6    0    0 -0.11669455329E+03  0.56883781865E+02  0.38221131338E+03  0.40365687345E+03  0.00000000000E+00 0. -1.
         -5    1    3    3    0  503  0.46727198279E+02  0.48445679634E+02 -0.27512777439E+01  0.67528323416E+02  0.47000000000E+01 0.  1.
         13    1    4    4    0    0  0.11145044612E+02 -0.20748608928E+02 -0.35218703207E+02  0.42368311831E+02  0.00000000000E+00 0. -1.
        -14    1    4    4    0    0  0.73236227019E+02 -0.82806070431E+02  0.25920403792E+02  0.11354407770E+03  0.00000000000E+00 0.  1.
</event>
<event>
12    1  0.1629553E-001  0.2100648E+03  0.7818608E-02  0.1144093E+00
         21   -1    0    0  503  502  0.00000000000E+00  0.00000000000E+00  0.48256572423E+03  0.48256572423E+03  0.00000000000E+00 0. -1.
         21   -1    0    0  501  503 -0.00000000000E+00 -0.00000000000E+00 -0.41302288025E+03  0.41302288025E+03  0.00000000000E+00 0. -1.
          6    2    1    2  501    0 -0.95967745327E+02  0.20509350989E+02 -0.36339813756E+03  0.41974446004E+03  0.18573304425E+03 0.  0.
         24    2    3    3    0    0  0.85123944788E+01  0.53464198256E+01 -0.26139536516E+03  0.27286808456E+03  0.77642833408E+02 0.  0.
         -6    2    1    2    0  502  0.95967745327E+02 -0.20509350989E+02  0.43294098154E+03  0.47584414445E+03  0.17134560013E+03 0.  0.
        -24    2    5    5    0    0  0.52667953262E+02  0.29410715712E+02  0.37616837200E+03  0.38859677058E+03  0.76589180132E+02 0.  0.
          5    1    3    3  501    0 -0.10448013981E+03  0.15162931164E+02 -0.10200277240E+03  0.14687637548E+03  0.47000000000E+01 0. -1.
        -11    1    4    4    0    0  0.95299003405E+01  0.31531448295E+02 -0.50131035366E+02  0.59984764224E+02  0.00000000000E+00 0.  1.
         12    1    4    4    0    0 -0.10175058617E+01 -0.26185028470E+02 -0.21126432980E+03  0.21288332034E+03  0.00000000000E+00 0. -1.
         -5    1    5    5    0  502  0.43299792065E+02 -0.49920066701E+02  0.56772609545E+02  0.87247373868E+02  0.47000000000E+01 0.  1.
         13    1    6    6    0    0  0.44040148317E+02 -0.19245703554E+02  0.18892612489E+03  0.19494361348E+03  0.00000000000E+00 0. -1.
        -14    1    6    6    0    0  0.86278049448E+01  0.48656419266E+02  0.18724224711E+03  0.19365315710E+03  0.00000000000E+00 0.  1.
</event>
<event>
12    1  0.1629553E-001  0.1807429E+03  0.7818608E-02  0.1167105E+00
         21   -1    0    0  501  502  0.00000000000E+00  0.00000000000E+00  0.31360746717E+03  0.31360746717E+03  0.00000000000E+00 0. -1.
         21   -1    0    0  502  503 -0.00000000000E+00 -0.00000000000E+00 -0.19544307751E+03  0.19544307751E+03  0.00000000000E+00 0.  1.
         -6    2    1    2    0  503  0.55349427715E+02 -0.13036400233E+02  0.23305766359E+03  0.29488127776E+03  0.17148057189E+03 0.  0.
        -24    2    3    3    0    0  0.22724642946E+02  0.46233887448E+02  0.19558594720E+03  0.21739861446E+03  0.79713945334E+02 0.  0.
          6    2    1    2  501    0 -0.55349427715E+02  0.13036400233E+02 -0.11489327393E+03  0.21416926692E+03  0.17156486709E+03 0.  0.
         24    2    5    5    0    0 -0.72363061738E+02  0.52316367640E+02 -0.12339627680E+03  0.17027427131E+03  0.76113542256E+02 0.  0.
          5    1    5    5  501    0  0.17013634023E+02 -0.39279967407E+02  0.85030028672E+01  0.43894995614E+02  0.47000000000E+01 0. -1.
        -11    1    6    6    0    0  0.79101201817E+01  0.33932988202E+02 -0.40512830602E+02  0.53435073996E+02  0.00000000000E+00 0.  1.
         12    1    6    6    0    0 -0.80273181920E+02  0.18383379438E+02 -0.82883446196E+02  0.11683919731E+03  0.00000000000E+00 0. -1.
         -5    1    3    3    0  503  0.32624784769E+02 -0.59270287682E+02  0.37471716388E+02  0.77482663301E+02  0.47000000000E+01 0.  1.
         13    1    4    4    0    0 -0.96936008119E+01  0.86963139739E+01  0.14830247717E+03  0.14887315577E+03  0.00000000000E+00 0. -1.
        -14    1    4    4    0    0  0.32418243758E+02  0.37537573475E+02  0.47283470029E+02  0.68525458690E+02  0.00000000000E+00 0.  1.
</event>
<event>
12    1  0.1629553E-001  0.1982005E+03  0.7818608E-02  0.1153994E+00
         21   -1    0    0  501  502  0.00000000000E+00  0.00000000000E+00  0.32992851377E+03  0.32992851377E+03  0.00000000000E+00 0. -1.
         21   -1    0    0  502  503 -0.00000000000E+00 -0.00000000000E+00 -0.28334461586E+03  0.28334461586E+03  0.00000000000E+00 0. -1.
         -6    2    1    2    0  503  0.89299790892E+02 -0.38993180125E+02 -0.21498143688E+03  0.29240462677E+03  0.17259353059E+03 0.  0.
        -24    2    3    3    0    0  0.68604528423E+02  0.39869240658E+02 -0.15138405895E+03  0.18889476357E+03  0.80423632894E+02 0.  0.
          6    2    1    2  501    0 -0.89299790892E+02  0.38993180125E+02  0.26156533479E+03  0.32086850285E+03  0.15825691457E+03 0.  0.
         24    2    5    5    0    0 -0.28623695234E+02  0.74392952727E+02  0.13986278859E+03  0.18026860159E+03  0.81126701780E+02 0.  0.
          5    1    5    5  501    0 -0.60676095657E+02 -0.35399772602E+02  0.12170254620E+03  0.14059990126E+03  0.47000000000E+01 0. -1.
        -11    1    6    6    0    0  0.18557292279E+02  0.42669639266E+02  0.10157103807E+03  0.11172173910E+03  0.00000000000E+00 0.  1.
         12    1    6    6    0    0 -0.47180987513E+02  0.31723313461E+02  0.38291750522E+02  0.68546862493E+02  0.00000000000E+00 0. -1.
         -5    1    3    3    0  503  0.20695262469E+02 -0.78862420783E+02 -0.63597377933E+02  0.10350986320E+03  0.47000000000E+01 0.  1.
         13    1    4    4    0    0 -0.86551267587E+00  0.39692241971E+02 -0.79870239291E+02  0.89193488043E+02  0.00000000000E+00 0. -1.
        -14    1    4    4    0    0  0.69470041099E+02  0.17699868671E+00 -0.71513819660E+02  0.99701275524E+02  0.00000000000E+00 0.  1.
</event>
<event>
12    1  0.1629553E-001  0.2883992E+03  0.7818608E-02  0.1091263E+00
         21   -1    0    0  501  502  0.00000000000E+00  0.00000000000E+00  0.16976989997E+03  0.16976989997E+03  0.00000000000E+00 0. -1.
         21   -1    0    0  502  503 -0.00000000000E+00 -0.00000000000E+00 -0.50658954631E+03  0.50658954631E+03  0.00000000000E+00 0.  1.
         -6    2    1    2    0  503  0.32052693436E+02 -0.22911831658E+03 -0.10547967955E+03  0.30708319101E+03  0.17219624053E+03 0.  0.
        -24    2    3    3    0    0  0.20228474664E+02 -0.87917360739E+02  0.13960387236E+02  0.12170373790E+03  0.80487600917E+02 0.  0.
          6    2    1    2  501    0 -0.32052693436E+02  0.22911831658E+03 -0.23133996679E+03  0.36927625528E+03  0.17124308549E+03 0.  0.
         24    2    5    5    0    0 -0.62699971473E+02  0.69231947677E+02 -0.12317668646E+03  0.17376591840E+03  0.79358360048E+02 0.  0.
          5    1    5    5  501    0  0.30647278037E+02  0.15988636890E+03 -0.10816328033E+03  0.19551033687E+03  0.47000000000E+01 0. -1.
        -11    1    6    6    0    0 -0.27803038418E+02  0.42996060700E+02 -0.11943395315E+03  0.12994667885E+03  0.00000000000E+00 0.  1.
         12    1    6    6    0    0 -0.34896933055E+02  0.26235886977E+02 -0.37427333146E+01  0.43819239550E+02  0.00000000000E+00 0. -1.
         -5    1    3    3    0  503  0.11824218772E+02 -0.14120095584E+03 -0.11944006678E+03  0.18537945310E+03  0.47000000000E+01 0.  1.
         13    1    4    4    0    0  0.18834120810E+02  0.83557974777E+01  0.14880655779E+02  0.25416084958E+02  0.00000000000E+00 0. -1.
        -14    1    4    4    0    0  0.13943538542E+01 -0.96273158216E+02 -0.92026854271E+00  0.96287652946E+02  0.00000000000E+00 0.  1.
</event>
<event>
12    1  0.1629553E-001  0.2242373E+03  0.7818608E-02  0.1131079E+00
         21   -1    0    0  501  502  0.00000000000E+00  0.00000000000E+00  0.19167155291E+03  0.19167155291E+03  0.00000000000E+00 0. -1.
         21   -1    0    0  502  503 -0.00000000000E+00 -0.00000000000E+00 -0.26397087153E+03  0.26397087153E+03  0.00000000000E+00 0. -1.
         -6    2    1    2    0  503 -0.13698795647E+03  0.43224303535E+02 -0.62831836080E+02  0.23120532896E+03  0.16992358247E+03 0.  0.
        -24    2    3    3    0    0 -0.16025308291E+03  0.22098456050E+02 -0.20732643814E+02  0.17846066544E+03  0.72449805039E+02 0.  0.
          6    2    1    2  501    0  0.13698795647E+03 -0.43224303535E+02 -0.94674825365E+01  0.22443709549E+03  0.17218692160E+03 0.  0.
         24    2    5    5    0    0  0.10349121958E+03 -0.30241450714E+02 -0.71448479997E+02  0.15264350318E+03  0.81056621558E+02 0.  0.
          5    1    5    5  501    0  0.33496736890E+02 -0.12982852821E+02  0.61980997461E+02  0.71793592304E+02  0.47000000000E+01 0. -1.
        -11    1    6    6    0    0 -0.65670773750E+01  0.14412738845E+02 -0.11689788388E+02  0.19685139035E+02  0.00000000000E+00 0.  1.
         12    1    6    6    0    0  0.11005829696E+03 -0.44654189559E+02 -0.59758691610E+02  0.13295836415E+03  0.00000000000E+00 0. -1.
         -5    1    3    3    0  503  0.23265126433E+02  0.21125847485E+02 -0.42099192266E+02  0.52744663515E+02  0.47000000000E+01 0.  1.
         13    1    4    4    0    0 -0.10979809901E+03  0.46297008518E+02 -0.26917410867E+02  0.12216211587E+03  0.00000000000E+00 0. -1.
        -14    1    4    4    0    0 -0.50454983890E+02 -0.24198552468E+02  0.61847670531E+01  0.56298549576E+02  0.00000000000E+00 0.  1.
</event>
<event>
12    1  0.1629553E-001  0.2113102E+03  0.7818608E-02  0.1140644E+00
         21   -1    0    0  503  502  0.00000000000E+00  0.00000000000E+00  0.33037426049E+03  0.33037426049E+03  0.00000000000E+00 0.  1.
         21   -1    0    0  501  503 -0.00000000000E+00 -0.00000000000E+00 -0.19071032215E+03  0.19071032215E+03  0.00000000000E+00 0. -1.
          6    2    1    2  501    0 -0.49565548702E+02  0.11063372442E+03 -0.71179855313E+02  0.22297661219E+03  0.17307637962E+03 0.  0.
         24    2    3    3    0    0 -0.63546924154E+02  0.27748586004E+02 -0.87564091897E+02  0.13720972908E+03  0.79692182618E+02 0.  0.
         -6    2    1    2    0  502  0.49565548702E+02 -0.11063372442E+03  0.21084379365E+03  0.29810797045E+03  0.17238530138E+03 0.  0.
        -24    2    5    5    0    0  0.36918681961E+01 -0.58735981732E+02  0.20638037113E+03  0.22853942584E+03  0.78573953296E+02 0.  0.
          5    1    3    3  501    0  0.13981375452E+02  0.82885138412E+02  0.16384236584E+02  0.85766883105E+02  0.47000000000E+01 0. -1.
        -13    1    4    4    0    0 -0.55060360041E+01  0.38848776072E+02 -0.11497424615E+02  0.40886851279E+02  0.00000000000E+00 0.  1.
         14    1    4    4    0    0 -0.58040888150E+02 -0.11100190068E+02 -0.76066667281E+02  0.96322877802E+02  0.00000000000E+00 0. -1.
         -5    1    5    5    0  502  0.45873680506E+02 -0.51897742683E+02  0.44634225239E+01  0.69568544612E+02  0.47000000000E+01 0.  1.
         13    1    6    6    0    0  0.17950143858E+02 -0.26576078504E+01  0.47308640867E+01  0.18752376356E+02  0.00000000000E+00 0. -1.
        -14    1    6    6    0    0 -0.14258275662E+02 -0.56078373882E+02  0.20164950704E+03  0.20978704948E+03  0.00000000000E+00 0.  1.
</event>
<event>
12    1  0.1629553E-001  0.1843177E+03  0.7818608E-02  0.1164216E+00
         21   -1    0    0  501  502  0.00000000000E+00  0.00000000000E+00  0.89087367539E+03  0.89087367539E+03  0.00000000000E+00 0.  1.
         21   -1    0    0  502  503 -0.00000000000E+00 -0.00000000000E+00 -0.41063942464E+02  0.41063942464E+02  0.00000000000E+00 0.  1.
         -6    2    1    2    0  503  0.63597102401E+02 -0.39052967491E+01  0.28863803784E+03  0.34127129866E+03  0.17057062943E+03 0.  0.
        -24    2    3    3    0    0  0.93419050696E+02 -0.18254228086E+02  0.27890790994E+03  0.30645742471E+03  0.84060662950E+02 0.  0.
          6    2    1    2  501    0 -0.63597102401E+02  0.39052967491E+01  0.56117169508E+03  0.59066631919E+03  0.17295429017E+03 0.  0.
         24    2    5    5    0    0  0.13629822227E+02  0.40865408263E+02  0.21300555991E+03  0.23209722486E+03  0.81498463708E+02 0.  0.
          5    1    5    5  501    0 -0.77226924628E+02 -0.36960111514E+02  0.34816613517E+03  0.35856909433E+03  0.47000000000E+01 0. -1.
        -11    1    6    6    0    0 -0.29841710428E+02  0.42849117426E+00  0.10115703941E+03  0.10546780508E+03  0.00000000000E+00 0.  1.
         12    1    6    6    0    0  0.43471532655E+02  0.40436917089E+02  0.11184852050E+03  0.12662941978E+03  0.00000000000E+00 0. -1.
         -5    1    3    3    0  503 -0.29821948295E+02  0.14348931337E+02  0.97301278995E+01  0.34813873952E+02  0.47000000000E+01 0.  1.
         11    1    4    4    0    0  0.24250534923E+02 -0.17455798913E+02  0.19697805338E+03  0.19923139028E+03  0.00000000000E+00 0. -1.
        -12    1    4    4    0    0  0.69168515773E+02 -0.79842917277E+00  0.81929856568E+02  0.10722603443E+03  0.00000000000E+00 0.  1.
</event>
<event>
12    1  0.1629553E-001  0.2196041E+03  0.7818608E-02  0.1134681E+00
         21   -1    0    0  503  502  0.00000000000E+00  0.00000000000E+00  0.26521426069E+03  0.26521426069E+03  0.00000000000E+00 0.  1.
         21   -1    0    0  501  503 -0.00000000000E+00 -0.00000000000E+00 -0.18273239129E+03  0.18273239129E+03  0.00000000000E+00 0. -1.
          6    2    1    2  501    0 -0.25937778156E+02  0.13482038817E+03  0.12315515379E+02  0.21994915857E+03  0.17139619317E+03 0.  0.
         24    2    3    3    0    0 -0.54579216013E+01  0.15286196110E+03  0.43452925084E+02  0.17827721163E+03  0.80610417607E+02 0.  0.
         -6    2    1    2    0  502  0.25937778156E+02 -0.13482038817E+03  0.70166354018E+02  0.22799749341E+03  0.16795902585E+03 0.  0.
        -24    2    5    5    0    0  0.63811941681E+02 -0.14032539533E+03  0.38730224185E+02  0.17824734139E+03  0.80677778677E+02 0.  0.
          5    1    3    3  501    0 -0.20479856555E+02 -0.18041572937E+02 -0.31137409705E+02  0.41671946939E+02  0.47000000000E+01 0. -1.
        -13    1    4    4    0    0 -0.34129827548E+02  0.37974559909E+02  0.29705986879E+02  0.59070787917E+02  0.00000000000E+00 0.  1.
         14    1    4    4    0    0  0.28671905946E+02  0.11488740119E+03  0.13746938205E+02  0.11920642371E+03  0.00000000000E+00 0. -1.
         -5    1    5    5    0  502 -0.37874163524E+02  0.55050071677E+01  0.31436129832E+02  0.49750152014E+02  0.47000000000E+01 0.  1.
         11    1    6    6    0    0 -0.14267969905E+02 -0.12153378017E+02 -0.89554207472E+01  0.20772075563E+02  0.00000000000E+00 0. -1.
        -12    1    6    6    0    0  0.78079911585E+02 -0.12817201732E+03  0.47685644932E+02  0.15747526583E+03  0.00000000000E+00 0.  1.
</event>
<event>
12    1  0.1629553E-001  0.1777916E+03  0.7818608E-02  0.1170563E+00
         21   -1    0    0  501  502  0.00000000000E+00  0.00000000000E+00  0.68622916332E+02  0.68622916332E+02  0.00000000000E+00 0.  1.
         21   -1    0    0  502  503 -0.00000000000E+00 -0.00000000000E+00 -0.65849431044E+03  0.65849431044E+03  0.00000000000E+00 0.  1.
         -6    2    1    2    0  503 -0.10279433286E+02  0.23060374171E+02 -0.49878005998E+03  0.52951995861E+03  0.17598974609E+03 0.  0.
        -24    2    3    3    0    0  0.90792823009E+01  0.74785040055E+01 -0.49773562104E+03  0.50420720688E+03  0.79660514892E+02 0.  0.
          6    2    1    2  501    0  0.10279433286E+02 -0.23060374171E+02 -0.91091334131E+02  0.19759726816E+03  0.17352118495E+03 0.  0.
         24    2    5    5    0    0 -0.28707731357E+02 -0.72830908742E+02 -0.58415535792E+02  0.12627474076E+03  0.80027871545E+02 0.  0.
          5    1    5    5  501    0  0.38987164643E+02  0.49770534571E+02 -0.32675798338E+02  0.71322527405E+02  0.47000000000E+01 0. -1.
        -11    1    6    6    0    0  0.18205855480E+02 -0.43842540225E+02 -0.21962242434E+01  0.47523098679E+02  0.00000000000E+00 0.  1.
         12    1    6    6    0    0 -0.46913586837E+02 -0.28988368517E+02 -0.56219311549E+02  0.78751642080E+02  0.00000000000E+00 0. -1.
         -5    1    3    3    0  503 -0.19358715587E+02  0.15581870166E+02 -0.10444389362E+01  0.25312751722E+02  0.47000000000E+01 0.  1.
         13    1    4    4    0    0 -0.69867463293E+01 -0.34437068569E+02 -0.19117247599E+03  0.19437500326E+03  0.00000000000E+00 0. -1.
        -14    1    4    4    0    0  0.16066028630E+02  0.41915572575E+02 -0.30656314505E+03  0.30983220363E+03  0.00000000000E+00 0.  1.
</event>
<event>
12    1  0.1629553E-001  0.1762644E+03  0.7818608E-02  0.1171732E+00
         21   -1    0    0  501  502  0.00000000000E+00  0.00000000000E+00  0.23698391746E+03  0.23698391746E+03  0.00000000000E+00 0.  1.
         21   -1    0    0  502  503 -0.00000000000E+00 -0.00000000000E+00 -0.13534273827E+03  0.13534273827E+03  0.00000000000E+00 0.  1.
         -6    2    1    2    0  503 -0.22440892768E+02 -0.31553206903E+02  0.15089567137E+02  0.17690908890E+03  0.17195910027E+03 0.  0.
        -24    2    3    3    0    0  0.22063718014E+02  0.35549200825E+02  0.29902655286E+02  0.94903533693E+02  0.79761886778E+02 0.  0.
          6    2    1    2  501    0  0.22440892768E+02  0.31553206903E+02  0.86551612052E+02  0.19541756683E+03  0.17087318497E+03 0.  0.
         24    2    5    5    0    0  0.76001391485E+02 -0.87439029549E+01  0.57754007497E+02  0.12231506267E+03  0.75978824860E+02 0.  0.
          5    1    5    5  501    0 -0.53560498718E+02  0.40297109858E+02  0.28797604555E+02  0.73102504156E+02  0.47000000000E+01 0. -1.
        -13    1    6    6    0    0  0.44209409883E+02  0.54049497521E+01 -0.10448799548E+02  0.45747817610E+02  0.00000000000E+00 0.  1.
         14    1    6    6    0    0  0.31791981602E+02 -0.14148852707E+02  0.68202807045E+02  0.76567245059E+02  0.00000000000E+00 0. -1.
         -5    1    3    3    0  503 -0.44504610782E+02 -0.67102407729E+02 -0.14813088149E+02  0.82005555204E+02  0.47000000000E+01 0.  1.
         13    1    4    4    0    0  0.17393789050E+02 -0.68726307712E+01 -0.21234965173E+02  0.28296655229E+02  0.00000000000E+00 0. -1.
        -14    1    4    4    0    0  0.46699289648E+01  0.42421831596E+02  0.51137620460E+02  0.66606878465E+02  0.00000000000E+00 0.  1.
</event>
<event>
12    1  0.1629553E-001  0.1803032E+03  0.7818608E-02  0.1167592E+00
         21   -1    0    0  503  502  0.00000000000E+00  0.00000000000E+00  0.30667667791E+03  0.30667667791E+03  0.00000000000E+00 0. -1.
         21   -1    0    0  501  503 -0.00000000000E+00 -0.00000000000E+00 -0.14235078338E+03  0.14235078338E+03  0.00000000000E+00 0. -1.
          6    2    1    2  501    0  0.89684545922E+01 -0.52458758794E+02 -0.31652086096E+02  0.18272575694E+03  0.17191420285E+03 0.  0.
         24    2    3    3    0    0  0.69141005710E+02 -0.13942194945E+02 -0.48404845886E+01  0.10627176048E+03  0.79343514630E+02 0.  0.
         -6    2    1    2    0  502 -0.89684545922E+01  0.52458758794E+02  0.19597798063E+03  0.26630170435E+03  0.17226977186E+03 0.  0.
        -24    2    5    5    0    0 -0.29700701758E+02  0.63517657552E+02  0.49967841533E+02  0.11833827632E+03  0.81182128265E+02 0.  0.
          5    1    3    3  501    0 -0.60172551118E+02 -0.38516563849E+02 -0.26811601507E+02  0.76453996456E+02  0.47000000000E+01 0. -1.
        -11    1    4    4    0    0  0.12938075088E+02  0.12949698689E+02  0.29808231614E+02  0.34980268082E+02  0.00000000000E+00 0.  1.
         12    1    4    4    0    0  0.56202930622E+02 -0.26891893634E+02 -0.34648716203E+02  0.71291492397E+02  0.00000000000E+00 0. -1.
         -5    1    5    5    0  502  0.20732247166E+02 -0.11058898758E+02  0.14601013910E+03  0.14796342803E+03  0.47000000000E+01 0.  1.
         11    1    6    6    0    0  0.23771191651E+02  0.36904710665E+02  0.36547948799E+02  0.57120747397E+02  0.00000000000E+00 0. -1.
        -12    1    6    6    0    0 -0.53471893409E+02  0.26612946887E+02  0.13419892734E+02  0.61217528925E+02  0.00000000000E+00 0.  1.
</event>
<event>
12    1  0.1629553E-001  0.2165523E+03  0.7818608E-02  0.1136496E+00
         21   -1    0    0  503  502  0.00000000000E+00  0.00000000000E+00  0.67017534654E+03  0.67017534654E+03  0.00000000000E+00 0.  1.
         21   -1    0    0  501  503 -0.00000000000E+00 -0.00000000000E+00 -0.10807672351E+03  0.10807672351E+03  0.00000000000E+00 0.  1.
          6    2    1    2  501    0 -0.46408946044E+02 -0.12370730310E+03  0.49881142480E+02  0.22213908068E+03  0.17146531917E+03 0.  0.
         24    2    3    3    0    0 -0.63060073300E+02 -0.15213284568E+03  0.38683575989E+02  0.18702858360E+03  0.79764004748E+02 0.  0.
         -6    2    1    2    0  502  0.46408946044E+02  0.12370730310E+03  0.51221748055E+03  0.55611298938E+03  0.17157395624E+03 0.  0.
        -24    2    5    5    0    0  0.65387728199E+02  0.74796521669E+02  0.18654387474E+03  0.22620717519E+03  0.80628743333E+02 0.  0.
          5    1    3    3  501    0  0.16651127256E+02  0.28425542580E+02  0.11197566491E+02  0.35110497080E+02  0.47000000000E+01 0. -1.
        -13    1    4    4    0    0  0.89226393656E+00  0.50525558704E+01 -0.93491588053E+01  0.10664484335E+02  0.00000000000E+00 0.  1.
         14    1    4    4    0    0 -0.63952337236E+02 -0.15718540155E+03  0.48032734795E+02  0.17636409926E+03  0.00000000000E+00 0. -1.
         -5    1    5    5    0  502 -0.18978782156E+02  0.48910781428E+02  0.32567360581E+03  0.32990581419E+03  0.47000000000E+01 0.  1.
         13    1    6    6    0    0 -0.10242668460E+02  0.40068157067E+02  0.87925033564E+02  0.97165739822E+02  0.00000000000E+00 0. -1.
        -14    1    6    6    0    0  0.75630396660E+02  0.34728364602E+02  0.98618841172E+02  0.12904143537E+03  0.00000000000E+00 0.  1.
</event>
<event>
12    1  0.1629553E-001  0.1843832E+03  0.7818608E-02  0.1166765E+00
         21   -1    0    0  501  502  0.00000000000E+00  0.00000000000E+00  0.29137850638E+03  0.29137850638E+03  0.00000000000E+00 0.  1.
         21   -1    0    0  502  503 -0.00000000000E+00 -0.00000000000E+00 -0.10871208819E+03  0.10871208819E+03  0.00000000000E+00 0.  1.
         -6    2    1    2    0  503  0.10118628809E+02 -0.67199308615E+02  0.90811872142E+02  0.20553338081E+03  0.17140315277E+03 0.  0.
        -24    2    3    3    0    0 -0.28988676351E+02 -0.85792662040E+02  0.10737054544E+03  0.15893537904E+03  0.74372686289E+02 0.  0.
          6    2    1    2  501    0 -0.10118628809E+02  0.67199308615E+02  0.91854546048E+02  0.19455721376E+03  0.15747100708E+03 0.  0.
         24    2    5    5    0    0 -0.22185719688E+02  0.36751203086E+02  0.12071165671E+03  0.15065363022E+03  0.79261309263E+02 0.  0.
          5    1    5    5  501    0  0.12067090878E+02  0.30448105529E+02 -0.28857110661E+02  0.43903583547E+02  0.47000000000E+01 0. -1.
        -11    1    6    6    0    0 -0.33260362157E+02 -0.66593522445E+01  0.90419726385E+02  0.96572902942E+02  0.00000000000E+00 0.  1.
         12    1    6    6    0    0  0.11074642469E+02  0.43410555330E+02  0.30291930324E+02  0.54080727275E+02  0.00000000000E+00 0. -1.
         -5    1    3    3    0  503  0.39107305160E+02  0.18593353425E+02 -0.16558673294E+02  0.46598001779E+02  0.47000000000E+01 0.  1.
         11    1    4    4    0    0 -0.24813814567E+02 -0.20648363500E+02  0.83342061488E+02  0.89375497323E+02  0.00000000000E+00 0. -1.
        -12    1    4    4    0    0 -0.41748617836E+01 -0.65144298540E+02  0.24028483948E+02  0.69559881713E+02  0.00000000000E+00 0.  1.
</event>
<event>
12    1  0.1629553E-001  0.3483466E+03  0.7818608E-02  0.1063350E+00
         21   -1    0    0  503  502  0.00000000000E+00  0.00000000000E+00  0.32855157114E+03  0.32855157114E+03  0.00000000000E+00 0.  1.
         21   -1    0    0  501  503 -0.00000000000E+00 -0.00000000000E+00 -0.48462217458E+03  0.48462217458E+03  0.00000000000E+00 0. -1.
          6    2    1    2  501    0  0.20115998128E+03  0.22570472839E+03  0.12070882683E+03  0.36866784443E+03  0.17302426464E+03 0.  0.
         24    2    3    3    0    0  0.43396672634E+02  0.91513739195E+02 -0.68090820618E+00  0.12855528560E+03  0.79170462691E+02 0.  0.
         -6    2    1    2    0  502 -0.20115998128E+03 -0.22570472839E+03 -0.27677943027E+03  0.44450590129E+03  0.17196127696E+03 0.  0.
        -24    2    5    5    0    0 -0.68332941739E+02 -0.58029148775E+02 -0.42222879485E+02  0.12702048753E+03  0.79464832891E+02 0.  0.
          5    1    3    3  501    0  0.15776330865E+03  0.13419098920E+03  0.12138973503E+03  0.24011255883E+03  0.47000000000E+01 0. -1.
        -11    1    4    4    0    0  0.38003325771E+02  0.40261098884E+02  0.35337305050E+02  0.65680544922E+02  0.00000000000E+00 0.  1.
         12    1    4    4    0    0  0.53933468630E+01  0.51252640311E+02 -0.36018213257E+02  0.62874740679E+02  0.00000000000E+00 0. -1.
         -5    1    5    5    0  502 -0.13282703954E+03 -0.16767557962E+03 -0.23455655078E+03  0.31748541376E+03  0.47000000000E+01 0.  1.
         13    1    6    6    0    0 -0.42042852536E+02 -0.64346605509E+02 -0.57475462267E+02  0.95976642224E+02  0.00000000000E+00 0. -1.
        -14    1    6    6    0    0 -0.26290089203E+02  0.63174567340E+01  0.15252582782E+02  0.31043845307E+02  0.00000000000E+00 0.  1.
</event>
<event>
12    1  0.1629553E-001  0.1955565E+03  0.7818608E-02  0.1153802E+00
         21   -1    0    0  503  502  0.00000000000E+00  0.00000000000E+00  0.49460214122E+03  0.49460214122E+03  0.00000000000E+00 0. -1.
         21   -1    0    0  501  503 -0.00000000000E+00 -0.00000000000E+00 -0.25374021658E+03  0.25374021658E+03  0.00000000000E+00 0.  1.
          6    2    1    2  501    0 -0.80585972585E+02  0.42708287852E+02 -0.19209105239E+03  0.27327326554E+03  0.17164267658E+03 0.  0.
         24    2    3    3    0    0  0.10710090625E+02  0.13548708911E+02 -0.32509934536E+02  0.87065114867E+02  0.78899713744E+02 0.  0.
         -6    2    1    2    0  502  0.80585972585E+02 -0.42708287852E+02  0.43295297703E+03  0.47506909226E+03  0.17298631528E+03 0.  0.
        -24    2    5    5    0    0  0.62164638028E+02 -0.94305092525E+02  0.26178533852E+03  0.29528581637E+03  0.76839164385E+02 0.  0.
          5    1    3    3  501    0 -0.91296063210E+02  0.29159578941E+02 -0.15958111785E+03  0.18620815067E+03  0.47000000000E+01 0. -1.
        -11    1    4    4    0    0  0.87377149551E+00 -0.15121239711E+02 -0.49880942398E+02  0.52129874176E+02  0.00000000000E+00 0.  1.
         12    1    4    4    0    0  0.98363191295E+01  0.28669948622E+02  0.17371007862E+02  0.34935240692E+02  0.00000000000E+00 0. -1.
         -5    1    5    5    0  502  0.18421334557E+02  0.51596804673E+02  0.17116763851E+03  0.17978327589E+03  0.47000000000E+01 0.  1.
         11    1    6    6    0    0 -0.13775920665E+02 -0.31487656825E+02  0.10112250857E+03  0.10680360603E+03  0.00000000000E+00 0. -1.
        -12    1    6    6    0    0  0.75940558693E+02 -0.62817435700E+02  0.16066282996E+03  0.18848221033E+03  0.00000000000E+00 0.  1.
</event>
<event>
12    1  0.1629553E-001  0.1753618E+03  0.7818608E-02  0.1172666E+00
         21   -1    0    0  501  502  0.00000000000E+00  0.00000000000E+00  0.10925489232E+03  0.10925489232E+03  0.00000000000E+00 0.  1.
         21   -1    0    0  502  503 -0.00000000000E+00 -0.00000000000E+00 -0.27958806829E+03  0.27958806829E+03  0.00000000000E+00 0.  1.
         -6    2    1    2    0  503  0.24075580422E+02 -0.92707494525E+01 -0.86774424435E+02  0.19565673639E+03  0.17345367506E+03 0.  0.
        -24    2    3    3    0    0  0.57577234553E+02 -0.29728079775E+02 -0.10953714133E+03  0.15003772200E+03  0.79460908782E+02 0.  0.
          6    2    1    2  501    0 -0.24075580422E+02  0.92707494525E+01 -0.83558751540E+02  0.19318622422E+03  0.17225931586E+03 0.  0.
         24    2    5    5    0    0 -0.78895824552E+02  0.21329246287E+02 -0.70218658003E+02  0.13530086676E+03  0.81830170079E+02 0.  0.
          5    1    5    5  501    0  0.54820244130E+02 -0.12058496834E+02 -0.13340093537E+02  0.57885357457E+02  0.47000000000E+01 0. -1.
        -11    1    6    6    0    0 -0.33736135738E+02 -0.11985424984E+02 -0.70624833530E+02  0.79181085985E+02  0.00000000000E+00 0.  1.
         12    1    6    6    0    0 -0.45159688814E+02  0.33314671271E+02  0.40617552689E+00  0.56119780774E+02  0.00000000000E+00 0. -1.
         -5    1    3    3    0  503 -0.33501654132E+02  0.20457330323E+02  0.22762716900E+02  0.45619014393E+02  0.47000000000E+01 0.  1.
         11    1    4    4    0    0  0.84266403323E+01 -0.27450455085E+02 -0.94230497770E+02  0.98508489287E+02  0.00000000000E+00 0. -1.
        -12    1    4    4    0    0  0.49150594221E+02 -0.22776246906E+01 -0.15306643565E+02  0.51529232711E+02  0.00000000000E+00 0.  1.
</event>
<event>
12    1  0.1629553E-001  0.2214205E+03  0.7818608E-02  0.1133231E+00
         21   -1    0    0  503  502  0.00000000000E+00  0.00000000000E+00  0.15665143093E+04  0.15665143093E+04  0.00000000000E+00 0.  1.
         21   -1    0    0  501  503 -0.00000000000E+00 -0.00000000000E+00 -0.32026478431E+02  0.32026478431E+02  0.00000000000E+00 0. -1.
          6    2    1    2  501    0 -0.55637226303E+02 -0.12323904978E+03  0.61992039255E+03  0.65755161760E+03  0.17259626988E+03 0.  0.
         24    2    3    3    0    0 -0.27221046175E+02 -0.84457281234E+02  0.17951772143E+03  0.21450748030E+03  0.76894922408E+02 0.  0.
         -6    2    1    2    0  502  0.55637226303E+02  0.12323904978E+03  0.91456743835E+03  0.94098917016E+03  0.17533868575E+03 0.  0.
        -24    2    5    5    0    0  0.47245747303E+02  0.36853019058E+02  0.22196029597E+03  0.24294926664E+03  0.78534498930E+02 0.  0.
          5    1    3    3  501    0 -0.28416180129E+02 -0.38781768548E+02  0.44040267112E+03  0.44304413730E+03  0.47000000000E+01 0. -1.
        -13    1    4    4    0    0  0.15004744415E+02  0.67887435971E+01  0.19493783942E+02  0.25519345739E+02  0.00000000000E+00 0.  1.
         14    1    4    4    0    0 -0.42225790590E+02 -0.91246024831E+02  0.16002393748E+03  0.18898813457E+03  0.00000000000E+00 0. -1.
         -5    1    5    5    0  502  0.83914790003E+01  0.86386030724E+02  0.69260714239E+03  0.69803990352E+03  0.47000000000E+01 0.  1.
         13    1    6    6    0    0 -0.72909606567E+01  0.43249821163E+02  0.10043333666E+03  0.10959270163E+03  0.00000000000E+00 0. -1.
        -14    1    6    6    0    0  0.54536707960E+02 -0.63968021053E+01  0.12152695931E+03  0.13335656501E+03  0.00000000000E+00 0.  1.
</event>
<event>
12    1  0.1629553E-001  0.1966155E+03  0.7818608E-02  0.1152847E+00
         21   -1    0    0  503  502  0.00000000000E+00  0.00000000000E+00  0.16936756138E+03  0.16936756138E+03  0.00000000000E+00 0. -1.
         21   -1    0    0  501  503 -0.00000000000E+00 -0.00000000000E+00 -0.22941391655E+03  0.22941391655E+03  0.00000000000E+00 0. -1.
          6    2    1    2  501    0  0.20139801628E+02 -0.91073156852E+02 -0.99133155233E+01  0.19686526806E+03  0.17308301025E+03 0.  0.
         24    2    3    3    0    0  0.46779819703E+02 -0.85230779363E+02  0.42610615199E+02  0.13749627585E+03  0.87389496298E+02 0.  0.
         -6    2    1    2    0  502 -0.20139801628E+02  0.91073156852E+02 -0.50133039646E+02  0.20191620987E+03  0.17192121054E+03 0.  0.
        -24    2    5    5    0    0 -0.78440505345E+02  0.50137156489E+02 -0.24737642328E+02  0.12614191089E+03  0.81444357672E+02 0.  0.
          5    1    3    3  501    0 -0.26640018075E+02 -0.58423774886E+01 -0.52523930722E+02  0.59368992212E+02  0.47000000000E+01 0. -1.
        -13    1    4    4    0    0 -0.12253268019E+02 -0.20835492407E+02 -0.18875558750E+02  0.30668339360E+02  0.00000000000E+00 0.  1.
         14    1    4    4    0    0  0.59033087722E+02 -0.64395286957E+02  0.61486173949E+02  0.10682793649E+03  0.00000000000E+00 0. -1.
         -5    1    5    5    0  502  0.58300703717E+02  0.40936000362E+02 -0.25395397318E+02  0.75774298971E+02  0.47000000000E+01 0.  1.
         13    1    6    6    0    0 -0.19444899706E+02  0.41536279412E+02  0.21540621622E+02  0.50669172204E+02  0.00000000000E+00 0. -1.
        -14    1    6    6    0    0 -0.58995605640E+02  0.86008770771E+01 -0.46278263950E+02  0.75472738691E+02  0.00000000000E+00 0.  1.
</event>
<event>
12    1  0.1629553E-001  0.1838684E+03  0.7818608E-02  0.1164658E+00
         21   -1    0    0  501  502  0.00000000000E+00  0.00000000000E+00  0.13611318636E+03  0.13611318636E+03  0.00000000000E+00 0. -1.
         21   -1    0    0  502  503 -0.00000000000E+00 -0.00000000000E+00 -0.25811812881E+03  0.25811812881E+03  0.00000000000E+00 0. -1.
         -6    2    1    2    0  503 -0.14182662723E+02  0.61409259015E+02 -0.10535126310E+03  0.21191149921E+03  0.17272912275E+03 0.  0.
        -24    2    3    3    0    0  0.22164999769E+02  0.85648512014E+02 -0.27141439144E+02  0.12220330272E+03  0.79812496836E+02 0.  0.
          6    2    1    2  501    0  0.14182662723E+02 -0.61409259015E+02 -0.16653679356E+02  0.18231981596E+03  0.17026721716E+03 0.  0.
         24    2    5    5    0    0  0.74758038261E+02 -0.40614239074E+02 -0.17822272928E+02  0.11809159329E+03  0.79935663469E+02 0.  0.
          5    1    5    5  501    0 -0.60575375538E+02 -0.20795019942E+02  0.11685935722E+01  0.64228222666E+02  0.47000000000E+01 0. -1.
        -11    1    6    6    0    0  0.39306478322E+02 -0.34546385325E+02 -0.48099344094E+02  0.71077414692E+02  0.00000000000E+00 0.  1.
         12    1    6    6    0    0  0.35451559939E+02 -0.60678537486E+01  0.30277071166E+02  0.47014178602E+02  0.00000000000E+00 0. -1.
         -5    1    3    3    0  503 -0.36347662493E+02 -0.24239252999E+02 -0.78209823957E+02  0.89708196493E+02  0.47000000000E+01 0.  1.
         13    1    4    4    0    0  0.31296859153E+01 -0.27477403295E+01 -0.31405315924E+02  0.31680260086E+02  0.00000000000E+00 0. -1.
        -14    1    4    4    0    0  0.19035313854E+02  0.88396252344E+02  0.42638767802E+01  0.90523042631E+02  0.00000000000E+00 0.  1.
</event>
<event>
12    1  0.1629553E-001  0.1877770E+03  0.7818608E-02  0.1164747E+00
         21   -1    0    0  501  502  0.00000000000E+00  0.00000000000E+00  0.11242709143E+03  0.11242709143E+03  0.00000000000E+00 0. -1.
         21   -1    0    0  502  503 -0.00000000000E+00 -0.00000000000E+00 -0.48895748699E+03  0.48895748699E+03  0.00000000000E+00 0. -1.
         -6    2    1    2    0  503  0.13433974660E+02 -0.68105170084E+02 -0.38783716728E+03  0.43090354937E+03  0.17447468202E+03 0.  0.
        -24    2    3    3    0    0  0.12912257215E+02 -0.10892453532E+03 -0.35143253808E+03  0.37600473522E+03  0.76442470589E+02 0.  0.
          6    2    1    2  501    0 -0.13433974660E+02  0.68105170084E+02  0.11306771714E+02  0.17048102905E+03  0.15529698102E+03 0.  0.
         24    2    5    5    0    0 -0.60187858977E+01  0.94553488179E+02 -0.16631825547E+02  0.13102024128E+03  0.88955596194E+02 0.  0.
          5    1    5    5  501    0 -0.74151887621E+01 -0.26448318096E+02  0.27938597261E+02  0.39460787770E+02  0.47000000000E+01 0. -1.
        -11    1    6    6    0    0 -0.60955174971E+01  0.10700493844E+02 -0.41715952471E+02  0.43495707749E+02  0.00000000000E+00 0.  1.
         12    1    6    6    0    0  0.76731599344E-01  0.83852994335E+02  0.25084126923E+02  0.87524533534E+02  0.00000000000E+00 0. -1.
         -5    1    3    3    0  503  0.52171744501E+00  0.40819365232E+02 -0.36404629202E+02  0.54898814144E+02  0.47000000000E+01 0.  1.
         11    1    4    4    0    0 -0.21289831451E+02 -0.43886865808E+02 -0.22079255751E+03  0.22611649069E+03  0.00000000000E+00 0. -1.
        -12    1    4    4    0    0  0.34202088665E+02 -0.65037669508E+02 -0.13063998057E+03  0.14988824453E+03  0.00000000000E+00 0.  1.
</event>
<event>
12    1  0.1629553E-001  0.2123852E+03  0.7818608E-02  0.1139900E+00
         21   -1    0    0  501  502  0.00000000000E+00  0.00000000000E+00  0.12922606878E+04  0.12922606878E+04  0.00000000000E+00 0.  1.
         21   -1    0    0  502  503 -0.00000000000E+00 -0.00000000000E+00 -0.80199139302E+02  0.80199139302E+02  0.00000000000E+00 0.  1.
         -6    2    1    2    0  503 -0.10796914818E+03 -0.63777429369E+02  0.88670029959E+02  0.22916809275E+03  0.17009039675E+03 0.  0.
        -24    2    3    3    0    0 -0.99510863596E+02 -0.10483600998E+03  0.51219972774E+02  0.17275934872E+03  0.79556935568E+02 0.  0.
          6    2    1    2  501    0  0.10796914818E+03  0.63777429369E+02  0.11233915186E+04  0.11432917344E+04  0.17141350139E+03 0.  0.
         24    2    5    5    0    0  0.94345737539E+02 -0.16247718347E+02  0.55677004244E+03  0.57086566161E+03  0.82034242234E+02 0.  0.
          5    1    5    5  501    0  0.13623410641E+02  0.80025147715E+02  0.56662147614E+03  0.57242607279E+03  0.47000000000E+01 0. -1.
        -11    1    6    6    0    0  0.55071183686E+02  0.28818049822E+02  0.35600083977E+03  0.36138609988E+03  0.00000000000E+00 0.  1.
         12    1    6    6    0    0  0.39274553853E+02 -0.45065768169E+02  0.20076920267E+03  0.20947956173E+03  0.00000000000E+00 0. -1.
         -5    1    3    3    0  503 -0.84582845849E+01  0.41058580610E+02  0.37450057185E+02  0.56408744030E+02  0.47000000000E+01 0.  1.
         13    1    4    4    0    0 -0.64331071630E+02 -0.37353275431E+02 -0.10040826328E+02  0.75063787247E+02  0.00000000000E+00 0. -1.
        -14    1    4    4    0    0 -0.35179791966E+02 -0.67482734548E+02  0.61260799101E+02  0.97695561472E+02  0.00000000000E+00 0.  1.
</event>
<event>
12    1  0.1629553E-001  0.2002335E+03  0.7818608E-02  0.1149691E+00
         21   -1    0    0  501  502  0.00000000000E+00  0.00000000000E+00  0.74434400622E+03  0.74434400622E+03  0.00000000000E+00 0.  1.
         21   -1    0    0  502  503 -0.00000000000E+00 -0.00000000000E+00 -0.56430728925E+02  0.56430728925E+02  0.00000000000E+00 0.  1.
         -6    2    1    2    0  503  0.95439131692E+02  0.35120626101E+02  0.25605539458E+03  0.32505047385E+03  0.17248582325E+03 0.  0.
        -24    2    3    3    0    0  0.51566730053E+01 -0.30493206009E+02  0.82542434094E+02  0.11868929832E+03  0.79482508897E+02 0.  0.
          6    2    1    2  501    0 -0.95439131692E+02 -0.35120626101E+02  0.43185788271E+03  0.47572426129E+03  0.17166902948E+03 0.  0.
         24    2    5    5    0    0 -0.80708003569E+02  0.17469860856E+02  0.17536198979E+03  0.21343625443E+03  0.89354515076E+02 0.  0.
          5    1    5    5  501    0 -0.14731128123E+02 -0.52590486957E+02  0.25649589293E+03  0.26228800686E+03  0.47000000000E+01 0. -1.
        -13    1    6    6    0    0 -0.86834701093E+02  0.11240344715E+02  0.18232755026E+03  0.20226207318E+03  0.00000000000E+00 0.  1.
         14    1    6    6    0    0  0.61266975237E+01  0.62295161409E+01 -0.69655604732E+01  0.11174181250E+02  0.00000000000E+00 0. -1.
         -5    1    3    3    0  503  0.90282458686E+02  0.65613832110E+02  0.17351296048E+03  0.20636117553E+03  0.47000000000E+01 0.  1.
         11    1    4    4    0    0 -0.67300093157E+01 -0.66431858860E+01 -0.14911754009E+02  0.17657444654E+02  0.00000000000E+00 0. -1.
        -12    1    4    4    0    0  0.11886682321E+02 -0.23850020123E+02  0.97454188103E+02  0.10103185367E+03  0.00000000000E+00 0.  1.
</event>
<event>
12    1  0.1629553E-001  0.1893765E+03  0.7818608E-02  0.1160932E+00
         21   -1    0    0  501  502  0.00000000000E+00  0.00000000000E+00  0.75839719555E+02  0.75839719555E+02  0.00000000000E+00 0. -1.
         21   -1    0    0  502  503 -0.00000000000E+00 -0.00000000000E+00 -0.47076670259E+03  0.47076670259E+03  0.00000000000E+00 0. -1.
         -6    2    1    2    0  503 -0.41973128172E+02 -0.65247111838E+02 -0.25538822753E+03  0.31794119351E+03  0.17275568494E+03 0.  0.
        -24    2    3    3    0    0  0.27939327828E+02 -0.75789459792E+01 -0.13991676468E+03  0.17107691062E+03  0.94088053680E+02 0.  0.
          6    2    1    2  501    0  0.41973128172E+02  0.65247111838E+02 -0.13953875550E+03  0.22866522863E+03  0.16370031584E+03 0.  0.
         24    2    5    5    0    0  0.55990278237E+02 -0.92453274254E+01 -0.11289683074E+03  0.14818239718E+03  0.77407629508E+02 0.  0.
          5    1    5    5  501    0 -0.14017150065E+02  0.74492439263E+02 -0.26641924754E+02  0.80482831448E+02  0.47000000000E+01 0. -1.
        -11    1    6    6    0    0  0.60067867616E+02 -0.54908435216E+01 -0.34296644154E+02  0.69387015232E+02  0.00000000000E+00 0.  1.
         12    1    6    6    0    0 -0.40775893795E+01 -0.37544839038E+01 -0.78600186589E+02  0.78795381949E+02  0.00000000000E+00 0. -1.
         -5    1    3    3    0  503 -0.69912455999E+02 -0.57668165859E+02 -0.11547146285E+03  0.14686428289E+03  0.47000000000E+01 0.  1.
         13    1    4    4    0    0  0.12445184034E+02 -0.48351565226E+02 -0.47634090434E+02  0.69005529031E+02  0.00000000000E+00 0. -1.
        -14    1    4    4    0    0  0.15494143793E+02  0.40772619247E+02 -0.92282674251E+02  0.10207138159E+03  0.00000000000E+00 0.  1.
</event>
<event>
12    1  0.1629553E-001  0.1909485E+03  0.7818608E-02  0.1159212E+00
         21   -1    0    0  501  502  0.00000000000E+00  0.00000000000E+00  0.20371483302E+04  0.20371483302E+04  0.00000000000E+00 0. -1.
         21   -1    0    0  502  503 -0.00000000000E+00 -0.00000000000E+00 -0.23028440753E+02  0.23028440753E+02  0.00000000000E+00 0. -1.
         -6    2    1    2    0  503 -0.28717919030E+02  0.77893344180E+02  0.47687937913E+03  0.51112230666E+03  0.16413402506E+03 0.  0.
        -24    2    3    3    0    0  0.22894498882E+02  0.14967000488E+01  0.14714497881E+03  0.16870858954E+03  0.79275123491E+02 0.  0.
          6    2    1    2  501    0  0.28717919030E+02 -0.77893344180E+02  0.15372405103E+04  0.15490544643E+04  0.17195713087E+03 0.  0.
         24    2    5    5    0    0  0.18055218257E+02 -0.76541600864E+01  0.14239671756E+03  0.15239468741E+03  0.50623497579E+02 0.  0.
          5    1    5    5  501    0  0.10662700773E+02 -0.70239184093E+02  0.13948437927E+04  0.13966597768E+04  0.47000000000E+01 0. -1.
        -13    1    6    6    0    0  0.21979399099E+01 -0.26763114707E+02  0.50421185342E+02  0.57126098939E+02  0.00000000000E+00 0.  1.
         14    1    6    6    0    0  0.15857278347E+02  0.19108954621E+02  0.91975532215E+02  0.95268588472E+02  0.00000000000E+00 0. -1.
         -5    1    3    3    0  503 -0.51612417911E+02  0.76396644131E+02  0.32973440032E+03  0.34241371712E+03  0.47000000000E+01 0.  1.
         11    1    4    4    0    0  0.26917127202E+02  0.21545646756E+02  0.19854857490E+02  0.39786454942E+02  0.00000000000E+00 0. -1.
        -12    1    4    4    0    0 -0.40226283203E+01 -0.20048946707E+02  0.12729012132E+03  0.12892213460E+03  0.00000000000E+00 0.  1.
</event>
<event>
12    1  0.1629553E-001  0.3184295E+03  0.7818608E-02  0.1076400E+00
         21   -1    0    0  501  502  0.00000000000E+00  0.00000000000E+00  0.15296282863E+04  0.15296282863E+04  0.00000000000E+00 0.  1.
         21   -1    0    0  502  503 -0.00000000000E+00 -0.00000000000E+00 -0.67274291395E+02  0.67274291395E+02  0.00000000000E+00 0. -1.
         -6    2    1    2    0  503 -0.21947585075E+03 -0.15229189766E+03  0.63258928383E+03  0.70821362110E+03  0.17330568351E+03 0.  0.
        -24    2    3    3    0    0 -0.13379832639E+03 -0.51173194270E+02  0.47412596882E+03  0.50157784840E+03  0.79146798651E+02 0.  0.
          6    2    1    2  501    0  0.21947585075E+03  0.15229189766E+03  0.82976471105E+03  0.88868895657E+03  0.17290492957E+03 0.  0.
         24    2    5    5    0    0  0.12194602533E+03  0.12372025989E+03  0.35407414074E+03  0.40224058930E+03  0.79066166872E+02 0.  0.
          5    1    5    5  501    0  0.97529825427E+02  0.28571637771E+02  0.47569057032E+03  0.48644836727E+03  0.47000000000E+01 0. -1.
        -13    1    6    6    0    0  0.26856490547E+02  0.56190554347E+02  0.62618933026E+02  0.88316364597E+02  0.00000000000E+00 0.  1.
         14    1    6    6    0    0  0.95089534779E+02  0.67529705545E+02  0.29145520771E+03  0.31392422471E+03  0.00000000000E+00 0. -1.
         -5    1    3    3    0  503 -0.85677524358E+02 -0.10111870339E+03  0.15846331501E+03  0.20663577270E+03  0.47000000000E+01 0.  1.
         11    1    4    4    0    0 -0.21938746311E+02  0.18006780974E+02  0.49618495083E+02  0.57162468500E+02  0.00000000000E+00 0. -1.
        -12    1    4    4    0    0 -0.11185958008E+03 -0.69179975244E+02  0.42450747374E+03  0.44441537990E+03  0.00000000000E+00 0.  1.
</event>
<event>
12    1  0.1629553E-001  0.3304859E+03  0.7818608E-02  0.1071063E+00
         21   -1    0    0  503  502  0.00000000000E+00  0.00000000000E+00  0.13374015022E+03  0.13374015022E+03  0.00000000000E+00 0. -1.
         21   -1    0    0  501  503 -0.00000000000E+00 -0.00000000000E+00 -0.87019924232E+03  0.87019924232E+03  0.00000000000E+00 0.  1.
          6    2    1    2  501    0  0.14569484109E+03  0.24013515536E+03 -0.23944422598E+03  0.40707701180E+03  0.17171568542E+03 0.  0.
         24    2    3    3    0    0  0.11187872203E+03  0.74072249194E+02 -0.11302323640E+03  0.19559468318E+03  0.86483996082E+02 0.  0.
         -6    2    1    2    0  502 -0.14569484109E+03 -0.24013515536E+03 -0.49701486612E+03  0.59686238074E+03  0.17415236099E+03 0.  0.
        -24    2    5    5    0    0 -0.75805051852E+02 -0.22873508806E+03 -0.43324195409E+03  0.50144949648E+03  0.75411274618E+02 0.  0.
          5    1    3    3  501    0  0.33816119065E+02  0.16606290616E+03 -0.12642098958E+03  0.21148232862E+03  0.47000000000E+01 0. -1.
        -11    1    4    4    0    0  0.10205774833E+03  0.83459815619E+02 -0.67551751271E+02  0.14813697688E+03  0.00000000000E+00 0.  1.
         12    1    4    4    0    0  0.98209736942E+01 -0.93875664243E+01 -0.45471485131E+02  0.47457706305E+02  0.00000000000E+00 0. -1.
         -5    1    5    5    0  502 -0.69889789241E+02 -0.11400067299E+02 -0.63772912032E+02  0.95412884264E+02  0.47000000000E+01 0.  1.
         11    1    6    6    0    0  0.43551299758E+01 -0.78899657895E+02 -0.17877128473E+03  0.19545663309E+03  0.00000000000E+00 0. -1.
        -12    1    6    6    0    0 -0.80160181828E+02 -0.14983543016E+03 -0.25447066936E+03  0.30599286339E+03  0.00000000000E+00 0.  1.
</event>
<event>
12    1  0.1629553E-001  0.1810127E+03  0.7818608E-02  0.1166949E+00
         21   -1    0    0  501  502  0.00000000000E+00  0.00000000000E+00  0.12029245990E+03  0.12029245990E+03  0.00000000000E+00 0.  1.
         21   -1    0    0  502  503 -0.00000000000E+00 -0.00000000000E+00 -0.27407500847E+03  0.27407500847E+03  0.00000000000E+00 0.  1.
         -6    2    1    2    0  503 -0.60993046445E+01 -0.53060833717E+02 -0.95447484162E+02  0.20418705985E+03  0.17242238713E+03 0.  0.
        -24    2    3    3    0    0 -0.50791739319E+02  0.14520790693E+02 -0.29553676604E+02  0.99646285267E+02  0.79153699985E+02 0.  0.
          6    2    1    2  501    0  0.60993046445E+01  0.53060833717E+02 -0.58335064410E+02  0.19018040853E+03  0.17295361938E+03 0.  0.
         24    2    5    5    0    0  0.43173926725E+01 -0.23864777736E+02 -0.75157155184E+02  0.11127668463E+03  0.78394738794E+02 0.  0.
          5    1    5    5  501    0  0.17819119720E+01  0.76925611454E+02  0.16822090774E+02  0.78903723903E+02  0.47000000000E+01 0. -1.
        -13    1    6    6    0    0  0.35623302831E+01 -0.50681008598E+02 -0.30725443817E+02  0.59374301910E+02  0.00000000000E+00 0.  1.
         14    1    6    6    0    0  0.75506238944E+00  0.26816230862E+02 -0.44431711366E+02  0.51902382718E+02  0.00000000000E+00 0. -1.
         -5    1    3    3    0  503  0.44692434674E+02 -0.67581624411E+02 -0.65893807559E+02  0.10454077458E+03  0.47000000000E+01 0.  1.
         13    1    4    4    0    0 -0.43610011808E+02 -0.14628867580E+02 -0.46304255470E+02  0.65268070074E+02  0.00000000000E+00 0. -1.
        -14    1    4    4    0    0 -0.71817275106E+01  0.29149658274E+02  0.16750578866E+02  0.34378215193E+02  0.00000000000E+00 0.  1.
</event>
<event>
12    1  0.1629553E-001  0.2105382E+03  0.7818608E-02  0.1141345E+00
         21   -1    0    0  503  502  0.00000000000E+00  0.00000000000E+00  0.99532414655E+02  0.99532414655E+02  0.00000000000E+00 0. -1.
         21   -1    0    0  501  503 -0.00000000000E+00 -0.00000000000E+00 -0.44443249140E+03  0.44443249140E+03  0.00000000000E+00 0. -1.
          6    2    1    2  501    0  0.81322258717E+02 -0.88909321335E+02 -0.18740578193E+03  0.28186389340E+03  0.17265036959E+03 0.  0.
         24    2    3    3    0    0 -0.14639891008E+02 -0.66127611046E+01 -0.54189768232E+02  0.98152014878E+02  0.80244825536E+02 0.  0.
         -6    2    1    2    0  502 -0.81322258717E+02  0.88909321335E+02 -0.15749429481E+03  0.26210101265E+03  0.17138935425E+03 0.  0.
        -24    2    5    5    0    0 -0.78252977251E+02  0.11477177466E+03 -0.16956969280E+03  0.23301162941E+03  0.79021832521E+02 0.  0.
          5    1    3    3  501    0  0.95962149725E+02 -0.82296560231E+02 -0.13321601370E+03  0.18371187852E+03  0.47000000000E+01 0. -1.
        -13    1    4    4    0    0 -0.31670928904E+02  0.12529187983E+02 -0.62532470898E+02  0.71206307346E+02  0.00000000000E+00 0.  1.
         14    1    4    4    0    0  0.17031037895E+02 -0.19141949087E+02  0.83427026660E+01  0.26945707533E+02  0.00000000000E+00 0. -1.
         -5    1    5    5    0  502 -0.30692814653E+01 -0.25862453329E+02  0.12075397987E+02  0.29089383243E+02  0.47000000000E+01 0.  1.
         11    1    6    6    0    0 -0.10183324733E+01  0.54021879044E+02 -0.28486870524E+02  0.61081111718E+02  0.00000000000E+00 0. -1.
        -12    1    6    6    0    0 -0.77234644778E+02  0.60749895620E+02 -0.14108282228E+03  0.17193051769E+03  0.00000000000E+00 0.  1.
</event>
<event>
12    1  0.1629553E-001  0.1921439E+03  0.7818608E-02  0.1161966E+00
         21   -1    0    0  503  502  0.00000000000E+00  0.00000000000E+00  0.39930909041E+03  0.39930909041E+03  0.00000000000E+00 0. -1.
         21   -1    0    0  501  503 -0.00000000000E+00 -0.00000000000E+00 -0.17982198760E+03  0.17982198760E+03  0.00000000000E+00 0. -1.
          6    2    1    2  501    0 -0.14926688114E+00 -0.32208631695E+01 -0.10700211662E+03  0.20029803296E+03  0.16929102991E+03 0.  0.
         24    2    3    3    0    0  0.61534470078E+02 -0.45818300431E+01 -0.37419353291E+02  0.10718204836E+03  0.79248339511E+02 0.  0.
         -6    2    1    2    0  502  0.14926688114E+00  0.32208631695E+01  0.32648921943E+03  0.37883304504E+03  0.19211681178E+03 0.  0.
        -24    2    5    5    0    0 -0.30742359565E+02 -0.56010695099E+02  0.27800985929E+03  0.29615893519E+03  0.79613707326E+02 0.  0.
          5    1    3    3  501    0 -0.61683736959E+02  0.13609668735E+01 -0.69582763334E+02  0.93115984606E+02  0.47000000000E+01 0. -1.
        -13    1    4    4    0    0  0.51633668647E+02  0.16301231255E+02  0.94126821944E+01  0.54957842611E+02  0.00000000000E+00 0.  1.
         14    1    4    4    0    0  0.99008014307E+01 -0.20883061298E+02 -0.46832035486E+02  0.52224205747E+02  0.00000000000E+00 0. -1.
         -5    1    5    5    0  502  0.30891626446E+02  0.59231558269E+02  0.48479360150E+02  0.82674109853E+02  0.47000000000E+01 0.  1.
         11    1    6    6    0    0  0.89933302711E+01 -0.32779417315E+02  0.21745950882E+03  0.22009999584E+03  0.00000000000E+00 0. -1.
        -12    1    6    6    0    0 -0.39735689836E+02 -0.23231277785E+02  0.60550350460E+02  0.76058939350E+02  0.00000000000E+00 0.  1.
</event>
<event>
12    1  0.1629553E-001  0.1784855E+03  0.7818608E-02  0.1170079E+00
         21   -1    0    0  503  502  0.00000000000E+00  0.00000000000E+00  0.13578167208E+04  0.13578167208E+04  0.00000000000E+00 0.  1.
         21   -1    0    0  501  503 -0.00000000000E+00 -0.00000000000E+00 -0.23037183375E+02  0.23037183375E+02  0.00000000000E+00 0.  1.
          6    2    1    2  501    0  0.47859352969E+02  0.15645242716E+01  0.67151507922E+03  0.69483060819E+03  0.17194216194E+03 0.  0.
         24    2    3    3    0    0  0.11555945212E+01 -0.46434042602E+02  0.53253419869E+03  0.54048398973E+03  0.79829910901E+02 0.  0.
         -6    2    1    2    0  502 -0.47859352969E+02 -0.15645242716E+01  0.66326445821E+03  0.68602329599E+03  0.16856825240E+03 0.  0.
        -24    2    5    5    0    0 -0.73942236392E+02 -0.19383127270E+02  0.27048365577E+03  0.29194631343E+03  0.78918197777E+02 0.  0.
          5    1    3    3  501    0  0.46703758448E+02  0.47998566874E+02  0.13898088053E+03  0.15434661846E+03  0.47000000000E+01 0. -1.
        -13    1    4    4    0    0 -0.24300718147E+02 -0.34793670046E+02  0.12536409334E+03  0.13235286274E+03  0.00000000000E+00 0.  1.
         14    1    4    4    0    0  0.25456312668E+02 -0.11640372556E+02  0.40717010535E+03  0.40813112699E+03  0.00000000000E+00 0. -1.
         -5    1    5    5    0  502  0.26082883423E+02  0.17818602999E+02  0.39278080244E+03  0.39407698256E+03  0.47000000000E+01 0.  1.
         13    1    6    6    0    0 -0.66385486897E+02 -0.59956397937E+01  0.96487815068E+02  0.11727266955E+03  0.00000000000E+00 0. -1.
        -14    1    6    6    0    0 -0.75567494958E+01 -0.13387487477E+02  0.17399584070E+03  0.17467364388E+03  0.00000000000E+00 0.  1.
</event>
<event>
12    1  0.1629553E-001  0.2251520E+03  0.7818608E-02  0.1130299E+00
         21   -1    0    0  501  502  0.00000000000E+00  0.00000000000E+00  0.24367245478E+03  0.24367245478E+03  0.00000000000E+00 0.  1.
         21   -1    0    0  502  503 -0.00000000000E+00 -0.00000000000E+00 -0.22674957630E+03  0.22674957630E+03  0.00000000000E+00 0. -1.
         -6    2    1    2    0  503 -0.11211980953E+03 -0.89188315922E+02 -0.60931707851E+02  0.23218948442E+03  0.17226107008E+03 0.  0.
        -24    2    3    3    0    0  0.38508327693E+01 -0.16514452004E+01 -0.35034927748E+02  0.84525586220E+02  0.76808673854E+02 0.  0.
          6    2    1    2  501    0  0.11211980953E+03  0.89188315922E+02  0.77854586324E+02  0.23823254666E+03  0.17368938451E+03 0.  0.
         24    2    5    5    0    0  0.33545464709E+01  0.78455202185E+02  0.15928709738E+02  0.11252659466E+03  0.79006575543E+02 0.  0.
          5    1    5    5  501    0  0.10876526306E+03  0.10733113737E+02  0.61925876586E+02  0.12570595201E+03  0.47000000000E+01 0. -1.
        -11    1    6    6    0    0  0.26611673956E+02  0.81138332334E+02  0.22678854935E+01  0.85421036457E+02  0.00000000000E+00 0.  1.
         12    1    6    6    0    0 -0.23257127485E+02 -0.26831301492E+01  0.13660824245E+02  0.27105558199E+02  0.00000000000E+00 0. -1.
         -5    1    3    3    0  503 -0.11597064230E+03 -0.87536870722E+02 -0.25896780103E+02  0.14766389820E+03  0.47000000000E+01 0.  1.
         13    1    4    4    0    0 -0.13919390029E+02 -0.26199736672E+02 -0.43869052543E+02  0.52959129444E+02  0.00000000000E+00 0. -1.
        -14    1    4    4    0    0  0.17770222799E+02  0.24548291471E+02  0.88341247953E+01  0.31566456776E+02  0.00000000000E+00 0.  1.
</event>
<event>
12    1  0.1629553E-001  0.2003790E+03  0.7818608E-02  0.1149455E+00
         21   -1    0    0  501  502  0.00000000000E+00  0.00000000000E+00  0.80860981478E+02  0.80860981478E+02  0.00000000000E+00 0.  1.
         21   -1    0    0  502  503 -0.00000000000E+00 -0.00000000000E+00 -0.53467389010E+03  0.53467389010E+03  0.00000000000E+00 0. -1.
         -6    2    1    2    0  503  0.92531723127E+02  0.45410878905E+02 -0.30944439500E+03  0.36856518731E+03  0.17163972731E+03 0.  0.
        -24    2    3    3    0    0  0.12852217340E+03  0.12497282789E+02 -0.17346402410E+03  0.22402671980E+03  0.58515573959E+02 0.  0.
          6    2    1    2  501    0 -0.92531723127E+02 -0.45410878905E+02 -0.14436851362E+03  0.24696968427E+03  0.17183564681E+03 0.  0.
         24    2    5    5    0    0 -0.13117508029E+03 -0.30719351885E+02 -0.98928855540E+02  0.18535797641E+03  0.80125406034E+02 0.  0.
          5    1    5    5  501    0  0.38643357159E+02 -0.14691527020E+02 -0.45439658080E+02  0.61611707858E+02  0.47000000000E+01 0. -1.
        -11    1    6    6    0    0 -0.81491303969E+02 -0.56919057059E+02 -0.52091609238E+02  0.11222364917E+03  0.00000000000E+00 0.  1.
         12    1    6    6    0    0 -0.49683776317E+02  0.26199705174E+02 -0.46837246302E+02  0.73134327245E+02  0.00000000000E+00 0. -1.
         -5    1    3    3    0  503 -0.35990450268E+02  0.32913596116E+02 -0.13598037089E+03  0.14453846750E+03  0.47000000000E+01 0.  1.
         13    1    4    4    0    0  0.50149529004E+02  0.31655969307E+02 -0.91325068364E+02  0.10889143109E+03  0.00000000000E+00 0. -1.
        -14    1    4    4    0    0  0.78372644391E+02 -0.19158686518E+02 -0.82138955740E+02  0.11513528872E+03  0.00000000000E+00 0.  1.
</event>
<event>
12    1  0.1629553E-001  0.3042047E+03  0.7818608E-02  0.1083198E+00
         21   -1    0    0  501  502  0.00000000000E+00  0.00000000000E+00  0.15250071746E+03  0.15250071746E+03  0.00000000000E+00 0. -1.
         21   -1    0    0  502  503 -0.00000000000E+00 -0.00000000000E+00 -0.73009618979E+03  0.73009618979E+03  0.00000000000E+00 0.  1.
         -6    2    1    2    0  503  0.55028806251E+02 -0.24468224738E+03 -0.47048595628E+03  0.56008649531E+03  0.17158751549E+03 0.  0.
        -24    2    3    3    0    0 -0.22529922997E+02 -0.15044778804E+03 -0.33870356598E+03  0.38040851056E+03  0.82755029729E+02 0.  0.
          6    2    1    2  501    0 -0.55028806251E+02  0.24468224738E+03 -0.10710951605E+03  0.32251041194E+03  0.17217126846E+03 0.  0.
         24    2    5    5    0    0  0.33280964315E+02  0.10026485939E+03 -0.73875707108E+02  0.14993702585E+03  0.76569099546E+02 0.  0.
          5    1    5    5  501    0 -0.88309770566E+02  0.14441738799E+03 -0.33233808946E+02  0.17257338609E+03  0.47000000000E+01 0. -1.
        -13    1    6    6    0    0 -0.17201133859E+02  0.77708696412E+01  0.35120379058E+01  0.19198953910E+02  0.00000000000E+00 0.  1.
         14    1    6    6    0    0  0.50482098173E+02  0.92493989750E+02 -0.77387745014E+02  0.13073807194E+03  0.00000000000E+00 0. -1.
         -5    1    3    3    0  503  0.77558729248E+02 -0.94234459338E+02 -0.13178239030E+03  0.17967798475E+03  0.47000000000E+01 0.  1.
         13    1    4    4    0    0 -0.30874985162E+02 -0.28587312291E+02 -0.41570563057E+02  0.59149056169E+02  0.00000000000E+00 0. -1.
        -14    1    4    4    0    0  0.83450621654E+01 -0.12186047575E+03 -0.29713300292E+03  0.32125945439E+03  0.00000000000E+00 0.  1.
</event>
<event>
12    1  0.1629553E-001  0.2051732E+03  0.7818608E-02  0.1145629E+00
         21   -1    0    0  501  502  0.00000000000E+00  0.00000000000E+00  0.27578825502E+02  0.27578825502E+02  0.00000000000E+00 0. -1.
         21   -1    0    0  502  503 -0.00000000000E+00 -0.00000000000E+00 -0.19638907336E+04  0.19638907336E+04  0.00000000000E+00 0. -1.
         -6    2    1    2    0  503 -0.66258276584E+02 -0.88439751898E+02 -0.14400454750E+04  0.14544626536E+04  0.17181062764E+03 0.  0.
        -24    2    3    3    0    0 -0.17231724164E+02 -0.57463003714E+02 -0.37840291177E+03  0.39122693947E+03  0.79188543489E+02 0.  0.
          6    2    1    2  501    0  0.66258276584E+02  0.88439751898E+02 -0.49626643303E+03  0.53700690542E+03  0.17287074646E+03 0.  0.
         24    2    5    5    0    0  0.45109187064E+02  0.34659873530E+02 -0.11250262433E+03  0.14888796723E+03  0.79212629778E+02 0.  0.
          5    1    5    5  501    0  0.21149089520E+02  0.53779878368E+02 -0.38376380871E+03  0.38811893819E+03  0.47000000000E+01 0. -1.
        -13    1    6    6    0    0  0.59668272034E+02  0.10945342773E+02 -0.10289954517E+03  0.11945049021E+03  0.00000000000E+00 0.  1.
         14    1    6    6    0    0 -0.14559084970E+02  0.23714530756E+02 -0.96030791562E+01  0.29437477022E+02  0.00000000000E+00 0. -1.
         -5    1    3    3    0  503 -0.49026552420E+02 -0.30976748184E+02 -0.10616425633E+04  0.10632357142E+04  0.47000000000E+01 0.  1.
         11    1    4    4    0    0 -0.30271855023E+02 -0.72856893511E+02 -0.31248362834E+03  0.32228951289E+03  0.00000000000E+00 0. -1.
        -12    1    4    4    0    0  0.13040130859E+02  0.15393889797E+02 -0.65919283422E+02  0.68937426575E+02  0.00000000000E+00 0.  1.
</event>
<event>
12    1  0.1629553E-001  0.2059361E+03  0.7818608E-02  0.1146773E+00
         21   -1    0    0  501  502  0.00000000000E+00  0.00000000000E+00  0.53445816817E+03  0.53445816817E+03  0.00000000000E+00 0.  1.
         21   -1    0    0  502  503 -0.00000000000E+00 -0.00000000000E+00 -0.18601697335E+03  0.18601697335E+03  0.00000000000E+00 0.  1.
         -6    2    1    2    0  503 -0.81199217814E+02  0.79045790248E+02 -0.10140801935E+03  0.22955009607E+03  0.17195380277E+03 0.  0.
        -24    2    3    3    0    0 -0.33199749031E+02 -0.22482250003E+01  0.53756646464E+01  0.86940450232E+02  0.80140291145E+02 0.  0.
          6    2    1    2  501    0  0.81199217814E+02 -0.79045790248E+02  0.44984921417E+03  0.49092504544E+03  0.16062856168E+03 0.  0.
         24    2    5    5    0    0  0.11496474974E+03 -0.50022666909E+02  0.37673810352E+03  0.40519420307E+03  0.80818207544E+02 0.  0.
          5    1    5    5  501    0 -0.33765531922E+02 -0.29023123339E+02  0.73111110642E+02  0.85730842371E+02  0.47000000000E+01 0. -1.
        -11    1    6    6    0    0  0.50845127909E+02 -0.65680593290E+02  0.20245854641E+03  0.21883471019E+03  0.00000000000E+00 0.  1.
         12    1    6    6    0    0  0.64119621827E+02  0.15657926382E+02  0.17427955711E+03  0.18635949289E+03  0.00000000000E+00 0. -1.
         -5    1    3    3    0  503 -0.47999468784E+02  0.81294015248E+02 -0.10678368399E+03  0.14260964584E+03  0.47000000000E+01 0.  1.
         13    1    4    4    0    0  0.22256734632E+02 -0.71859203338E+01 -0.14850524322E+02  0.27704471844E+02  0.00000000000E+00 0. -1.
        -14    1    4    4    0    0 -0.55456483663E+02  0.49376953335E+01  0.20226188968E+02  0.59235978388E+02  0.00000000000E+00 0.  1.
</event>
<event>
12    1  0.1629553E-001  0.2511848E+03  0.7818608E-02  0.1112734E+00
         21   -1    0    0  503  502  0.00000000000E+00  0.00000000000E+00  0.30158809995E+03  0.30158809995E+03  0.00000000000E+00 0.  1.
         21   -1    0    0  501  503 -0.00000000000E+00 -0.00000000000E+00 -0.29660876868E+03  0.29660876868E+03  0.00000000000E+00 0. -1.
          6    2    1    2  501    0 -0.14843395020E+03  0.10755996605E+03 -0.16072744656E+03  0.29820649731E+03  0.17173240548E+03 0.  0.
         24    2    3    3    0    0 -0.16573934191E+03  0.79131779571E+02 -0.89652946414E+02  0.21958517106E+03  0.80303353320E+02 0.  0.
         -6    2    1    2    0  502  0.14843395020E+03 -0.10755996605E+03  0.16570677783E+03  0.29999037132E+03  0.17009909699E+03 0.  0.
        -24    2    5    5    0    0  0.65760852849E+02  0.33452617117E+01  0.34063432713E+02  0.10897500313E+03  0.79872105995E+02 0.  0.
          5    1    3    3  501    0  0.17305391716E+02  0.28428186480E+02 -0.71074500151E+02  0.78621326246E+02  0.47000000000E+01 0. -1.
        -13    1    4    4    0    0 -0.13756693712E+03  0.46693146939E+02 -0.98760433942E+02  0.17566597699E+03  0.00000000000E+00 0.  1.
         14    1    4    4    0    0 -0.28172404790E+02  0.32438632632E+02  0.91074875284E+01  0.43919194071E+02  0.00000000000E+00 0. -1.
         -5    1    5    5    0  502  0.82673097349E+02 -0.11090522776E+03  0.13164334512E+03  0.19101536819E+03  0.47000000000E+01 0.  1.
         13    1    6    6    0    0 -0.18044607197E+02 -0.41681195803E+01  0.11722521922E+02  0.21917996942E+02  0.00000000000E+00 0. -1.
        -14    1    6    6    0    0  0.83805460046E+02  0.75133812920E+01  0.22340910791E+02  0.87057006191E+02  0.00000000000E+00 0.  1.
</event>
<event>
12    1  0.1629553E-001  0.2175328E+03  0.7818608E-02  0.1136440E+00
         21   -1    0    0  503  502  0.00000000000E+00  0.00000000000E+00  0.88273074941E+02  0.88273074941E+02  0.00000000000E+00 0. -1.
         21   -1    0    0  501  503 -0.00000000000E+00 -0.00000000000E+00 -0.54520166284E+03  0.54520166284E+03  0.00000000000E+00 0. -1.
          6    2    1    2  501    0  0.29471951728E+02  0.12646975587E+03 -0.17250753273E+03  0.27763167854E+03  0.17452021370E+03 0.  0.
         24    2    3    3    0    0  0.82130381345E+02  0.83066502238E+02 -0.76402217368E+02  0.15966950546E+03  0.77534565339E+02 0.  0.
         -6    2    1    2    0  502 -0.29471951728E+02 -0.12646975587E+03 -0.28442105517E+03  0.35584305924E+03  0.16989923807E+03 0.  0.
        -24    2    5    5    0    0  0.28191253317E+02 -0.41834518196E+02 -0.19111019220E+03  0.21721703058E+03  0.90084733098E+02 0.  0.
          5    1    3    3  501    0 -0.52658429617E+02  0.43403253635E+02 -0.96105315362E+02  0.11796217308E+03  0.47000000000E+01 0. -1.
        -13    1    4    4    0    0  0.96115854692E+02  0.81534549191E+02 -0.70450642431E+02  0.14439332829E+03  0.00000000000E+00 0.  1.
         14    1    4    4    0    0 -0.13985473347E+02  0.15319530474E+01 -0.59515749377E+01  0.15276177176E+02  0.00000000000E+00 0. -1.
         -5    1    5    5    0  502 -0.57663205045E+02 -0.84635237678E+02 -0.93310862970E+02  0.13862602866E+03  0.47000000000E+01 0.  1.
         11    1    6    6    0    0  0.47809301453E+02 -0.43722903450E+02 -0.18584942708E+03  0.19681826932E+03  0.00000000000E+00 0. -1.
        -12    1    6    6    0    0 -0.19618048136E+02  0.18883852538E+01 -0.52607651185E+01  0.20398761266E+02  0.00000000000E+00 0.  1.
</event>
<event>
12    1  0.1629553E-001  0.1824576E+03  0.7818608E-02  0.1165503E+00
         21   -1    0    0  503  502  0.00000000000E+00  0.00000000000E+00  0.12770867827E+03  0.12770867827E+03  0.00000000000E+00 0.  1.
         21   -1    0    0  501  503 -0.00000000000E+00 -0.00000000000E+00 -0.27732766321E+03  0.27732766321E+03  0.00000000000E+00 0.  1.
          6    2    1    2  501    0  0.39038855969E+02 -0.44409146376E+02 -0.12489284076E+03  0.22091092865E+03  0.17235780275E+03 0.  0.
         24    2    3    3    0    0  0.13430174702E+02 -0.74658783870E+02 -0.14000009028E+03  0.17823582920E+03  0.80085466418E+02 0.  0.
         -6    2    1    2    0  502 -0.39038855969E+02  0.44409146376E+02 -0.24726144176E+02  0.18412541283E+03  0.17261106827E+03 0.  0.
        -24    2    5    5    0    0 -0.22096184271E+02  0.91822354472E+02 -0.41029871326E+02  0.13099380317E+03  0.80971229388E+02 0.  0.
          5    1    3    3  501    0  0.25608681267E+02  0.30249637494E+02  0.15107249522E+02  0.42675099448E+02  0.47000000000E+01 0. -1.
        -13    1    4    4    0    0 -0.15162405923E+02  0.11519023944E+02 -0.30897763717E+02  0.36294052801E+02  0.00000000000E+00 0.  1.
         14    1    4    4    0    0  0.28592580625E+02 -0.86177807814E+02 -0.10910232657E+03  0.14194177640E+03  0.00000000000E+00 0. -1.
         -5    1    5    5    0  502 -0.16942671698E+02 -0.47413208096E+02  0.16303727150E+02  0.53131609661E+02  0.47000000000E+01 0.  1.
         11    1    6    6    0    0  0.22644343988E+02  0.45096359722E+02  0.62757478080E+01  0.50851086373E+02  0.00000000000E+00 0. -1.
        -12    1    6    6    0    0 -0.44740528260E+02  0.46725994750E+02 -0.47305619134E+02  0.80142716799E+02  0.00000000000E+00 0.  1.
</event>
<event>
12    1  0.1629553E-001  0.1768899E+03  0.7818608E-02  0.1171112E+00
         21   -1    0    0  501  502  0.00000000000E+00  0.00000000000E+00  0.28067095852E+02  0.28067095852E+02  0.00000000000E+00 0.  1.
         21   -1    0    0  502  503 -0.00000000000E+00 -0.00000000000E+00 -0.16837474126E+04  0.16837474126E+04  0.00000000000E+00 0.  1.
         -6    2    1    2    0  503  0.11675474773E+02 -0.36400359695E+02 -0.13266398481E+04  0.13382403074E+04  0.17161739720E+03 0.  0.
        -24    2    3    3    0    0 -0.87798603409E+01 -0.55892764012E+02 -0.41637931897E+03  0.42752921416E+03  0.78793430398E+02 0.  0.
          6    2    1    2  501    0 -0.11675474773E+02  0.36400359695E+02 -0.32904046869E+03  0.37357420104E+03  0.17271001926E+03 0.  0.
         24    2    5    5    0    0 -0.14764088490E+02  0.91164546855E+02 -0.22527571937E+03  0.25610987058E+03  0.79461708749E+02 0.  0.
          5    1    5    5  501    0  0.30886137164E+01 -0.54764187161E+02 -0.10376474931E+03  0.11746433046E+03  0.47000000000E+01 0. -1.
        -13    1    6    6    0    0  0.32060527833E+02  0.44008802110E+02 -0.11733072175E+03  0.12934894810E+03  0.00000000000E+00 0.  1.
         14    1    6    6    0    0 -0.46824616323E+02  0.47155744746E+02 -0.10794499762E+03  0.12676092248E+03  0.00000000000E+00 0. -1.
         -5    1    3    3    0  503  0.20455335114E+02  0.19492404317E+02 -0.91026052910E+03  0.91071109327E+03  0.47000000000E+01 0.  1.
         11    1    4    4    0    0  0.29493547849E+02 -0.30536901228E+00 -0.13045536423E+03  0.13374813895E+03  0.00000000000E+00 0. -1.
        -12    1    4    4    0    0 -0.38273408190E+02 -0.55587394999E+02 -0.28592395474E+03  0.29378107521E+03  0.00000000000E+00 0.  1.
</event>
<event>
12    1  0.1629553E-001  0.1900592E+03  0.7818608E-02  0.1158580E+00
         21   -1    0    0  501  502  0.00000000000E+00  0.00000000000E+00  0.53062218077E+03  0.53062218077E+03  0.00000000000E+00 0. -1.
         21   -1    0    0  502  503 -0.00000000000E+00 -0.00000000000E+00 -0.67834747781E+02  0.67834747781E+02  0.00000000000E+00 0. -1.
         -6    2    1    2    0  503  0.57279165232E+02 -0.54386069780E+02  0.23834138052E+03  0.30484278784E+03  0.17286921147E+03 0.  0.
        -24    2    3    3    0    0  0.72349234889E+02 -0.77438956709E+02  0.10569391850E+03  0.16928474944E+03  0.79088040680E+02 0.  0.
          6    2    1    2  501    0 -0.57279165232E+02  0.54386069780E+02  0.22444605247E+03  0.29361414071E+03  0.17203047928E+03 0.  0.
         24    2    5    5    0    0 -0.57072588853E+02  0.39852608648E+02  0.47610381483E+02  0.11611989095E+03  0.79822113693E+02 0.  0.
          5    1    5    5  501    0 -0.20657637841E+00  0.14533461131E+02  0.17683567098E+03  0.17749424976E+03  0.47000000000E+01 0. -1.
        -11    1    6    6    0    0  0.11684625146E+02  0.32774787779E+02  0.26845469401E+02  0.43947655297E+02  0.00000000000E+00 0.  1.
         12    1    6    6    0    0 -0.68757213999E+02  0.70778208695E+01  0.20764912082E+02  0.72172235652E+02  0.00000000000E+00 0. -1.
         -5    1    3    3    0  503 -0.15070069657E+02  0.23052886930E+02  0.13264746202E+03  0.13555803840E+03  0.47000000000E+01 0.  1.
         11    1    4    4    0    0  0.23828114801E+02  0.14752940449E+02  0.20974991304E+02  0.35005407683E+02  0.00000000000E+00 0. -1.
        -12    1    4    4    0    0  0.48521120088E+02 -0.92191897159E+02  0.84718927199E+02  0.13427934175E+03  0.00000000000E+00 0.  1.
</event>
<event>
12    1  0.1629553E-001  0.2357090E+03  0.7818608E-02  0.1123056E+00
         21   -1    0    0  501  502  0.00000000000E+00  0.00000000000E+00  0.34513761638E+03  0.34513761638E+03  0.00000000000E+00 0.  1.
         21   -1    0    0  502  503 -0.00000000000E+00 -0.00000000000E+00 -0.18820979179E+03  0.18820979179E+03  0.00000000000E+00 0. -1.
         -6    2    1    2    0  503 -0.70464461223E+02 -0.14412868177E+03  0.18231235576E+03  0.29627542836E+03  0.16971451671E+03 0.  0.
        -24    2    3    3    0    0 -0.33702090144E+02 -0.48164252425E+02  0.16794858063E+02  0.10139398832E+03  0.80889106302E+02 0.  0.
          6    2    1    2  501    0  0.70464461223E+02  0.14412868177E+03 -0.25384531179E+02  0.23707197980E+03  0.17268593452E+03 0.  0.
         24    2    5    5    0    0  0.16490503453E+02  0.10440830753E+02  0.23431164757E+02  0.84787076424E+02  0.79113091177E+02 0.  0.
          5    1    5    5  501    0  0.53973957770E+02  0.13368785102E+03 -0.48815695936E+02  0.15228490338E+03  0.47000000000E+01 0. -1.
        -13    1    6    6    0    0 -0.29118199456E+02  0.11305484366E+01 -0.59492547897E+01  0.29741239246E+02  0.00000000000E+00 0.  1.
         14    1    6    6    0    0  0.45608702909E+02  0.93102823167E+01  0.29380419547E+02  0.55045837178E+02  0.00000000000E+00 0. -1.
         -5    1    3    3    0  503 -0.36762371079E+02 -0.95964429348E+02  0.16551749770E+03  0.19488144004E+03  0.47000000000E+01 0.  1.
         13    1    4    4    0    0  0.23884080593E+02 -0.67488236582E+01 -0.82738561057E+01  0.26162045436E+02  0.00000000000E+00 0. -1.
        -14    1    4    4    0    0 -0.57586170737E+02 -0.41415428767E+02  0.25068714168E+02  0.75231942884E+02  0.00000000000E+00 0.  1.
</event>
<event>
12    1  0.1629553E-001  0.2222321E+03  0.7818608E-02  0.1132849E+00
         21   -1    0    0  503  502  0.00000000000E+00  0.00000000000E+00  0.83017096459E+02  0.83017096459E+02  0.00000000000E+00 0.  1.
         21   -1    0    0  501  503 -0.00000000000E+00 -0.00000000000E+00 -0.75697085512E+03  0.75697085512E+03  0.00000000000E+00 0. -1.
          6    2    1    2  501    0  0.83959386099E+02 -0.10611079185E+03 -0.53855381935E+03  0.58260393195E+03  0.17629080102E+03 0.  0.
         24    2    3    3    0    0  0.10499664177E+03 -0.13175843064E+03 -0.47313666001E+03  0.50910656983E+03  0.83346395080E+02 0.  0.
         -6    2    1    2    0  502 -0.83959386099E+02  0.10611079185E+03 -0.13539993931E+03  0.25738401962E+03  0.17206019683E+03 0.  0.
        -24    2    5    5    0    0 -0.92808198527E+02  0.77646490165E+02 -0.27527795368E+02  0.14537059458E+03  0.75713216170E+02 0.  0.
          5    1    3    3  501    0 -0.21037255673E+02  0.25647638794E+02 -0.65417159341E+02  0.73497362118E+02  0.47000000000E+01 0. -1.
        -11    1    4    4    0    0  0.17566762145E+02 -0.56452057370E+02 -0.80586148891E+02  0.99947752884E+02  0.00000000000E+00 0.  1.
         12    1    4    4    0    0  0.87429879628E+02 -0.75306373273E+02 -0.39255051112E+03  0.40915881695E+03  0.00000000000E+00 0. -1.
         -5    1    5    5    0  502  0.88488124277E+01  0.28464301684E+02 -0.10787214394E+03  0.11201342504E+03  0.47000000000E+01 0.  1.
         13    1    6    6    0    0  0.11095788930E+01 -0.10151423490E+02 -0.12176917884E+02  0.15892133064E+02  0.00000000000E+00 0. -1.
        -14    1    6    6    0    0 -0.93917777420E+02  0.87797913655E+02 -0.15350877484E+02  0.12947846152E+03  0.00000000000E+00 0.  1.
</event>
<event>
12    1  0.1629553E-001  0.2332380E+03  0.7818608E-02  0.1124403E+00
         21   -1    0    0  503  502  0.00000000000E+00  0.00000000000E+00  0.17473940411E+03  0.17473940411E+03  0.00000000000E+00 0. -1.
         21   -1    0    0  501  503 -0.00000000000E+00 -0.00000000000E+00 -0.31122104622E+03  0.31122104622E+03  0.00000000000E+00 0.  1.
          6    2    1    2  501    0 -0.15647327769E+03  0.20193086260E+02 -0.71826576916E+02  0.24404718695E+03  0.17177987351E+03 0.  0.
         24    2    3    3    0    0 -0.10835427862E+03  0.60912508555E+02  0.36761770604E+00  0.14809094087E+03  0.80497256055E+02 0.  0.
         -6    2    1    2    0  502  0.15647327769E+03 -0.20193086260E+02 -0.64655065192E+02  0.24191326339E+03  0.17161032074E+03 0.  0.
        -24    2    5    5    0    0  0.87699232023E+02 -0.74319460846E+02 -0.12484558026E+02  0.13991627519E+03  0.78779199766E+02 0.  0.
          5    1    3    3  501    0 -0.48118999076E+02 -0.40719422296E+02 -0.72194194622E+02  0.95956246077E+02  0.47000000000E+01 0. -1.
        -11    1    4    4    0    0 -0.11283351844E+01  0.19863044581E+02 -0.23531894656E+02  0.30814992234E+02  0.00000000000E+00 0.  1.
         12    1    4    4    0    0 -0.10722594343E+03  0.41049463975E+02  0.23899512362E+02  0.11727594864E+03  0.00000000000E+00 0. -1.
         -5    1    5    5    0  502  0.68774045670E+02  0.54126374586E+02 -0.52170507166E+02  0.10199698820E+03  0.47000000000E+01 0.  1.
         11    1    6    6    0    0  0.78507640830E+02 -0.16015009056E+02 -0.10973454345E+02  0.80872411143E+02  0.00000000000E+00 0. -1.
        -12    1    6    6    0    0  0.91915911928E+01 -0.58304451790E+02 -0.15111036817E+01  0.59043864046E+02  0.00000000000E+00 0.  1.
</event>
<event>
12    1  0.1629553E-001  0.2003628E+03  0.7818608E-02  0.1149976E+00
         21   -1    0    0  503  502  0.00000000000E+00  0.00000000000E+00  0.31086605536E+02  0.31086605536E+02  0.00000000000E+00 0. -1.
         21   -1    0    0  501  503 -0.00000000000E+00 -0.00000000000E+00 -0.14352943108E+04  0.14352943108E+04  0.00000000000E+00 0.  1.
          6    2    1    2  501    0  0.30654519490E+01 -0.99100672507E+02 -0.94315490734E+03  0.96367330761E+03  0.17115701642E+03 0.  0.
         24    2    3    3    0    0 -0.35449508705E+01 -0.67427933129E+02 -0.26350961400E+03  0.28324206597E+03  0.78928185201E+02 0.  0.
         -6    2    1    2    0  502 -0.30654519490E+01  0.99100672507E+02 -0.46105279790E+03  0.50270760870E+03  0.17411179486E+03 0.  0.
        -24    2    5    5    0    0  0.21588844420E+02  0.11294999652E+03 -0.22403170867E+03  0.26395936296E+03  0.79123693599E+02 0.  0.
          5    1    3    3  501    0  0.66104028195E+01 -0.31672739378E+02 -0.67964529334E+03  0.68043124165E+03  0.47000000000E+01 0. -1.
        -13    1    4    4    0    0 -0.44261377739E+01 -0.41466663679E+02 -0.25094540320E+03  0.25438685162E+03  0.00000000000E+00 0.  1.
         14    1    4    4    0    0  0.88118690337E+00 -0.25961269450E+02 -0.12564210806E+02  0.28855214346E+02  0.00000000000E+00 0. -1.
         -5    1    5    5    0  502 -0.24654296369E+02 -0.13849324009E+02 -0.23702108924E+03  0.23874824575E+03  0.47000000000E+01 0.  1.
         11    1    6    6    0    0 -0.83993279022E+01 -0.88242970876E+01 -0.35437148943E+02  0.37472769494E+02  0.00000000000E+00 0. -1.
        -12    1    6    6    0    0  0.29988172322E+02  0.12177429360E+03 -0.18859455972E+03  0.22648659346E+03  0.00000000000E+00 0.  1.
</event>
<event>
12    1  0.1629553E-001  0.2321351E+03  0.7818608E-02  0.1125221E+00
         21   -1    0    0  501  502  0.00000000000E+00  0.00000000000E+00  0.44675142218E+03  0.44675142218E+03  0.00000000000E+00 0. -1.
         21   -1    0    0  502  503 -0.00000000000E+00 -0.00000000000E+00 -0.13299634525E+03  0.13299634525E+03  0.00000000000E+00 0.  1.
         -6    2    1    2    0  503 -0.15020677048E+03  0.40084162442E+02  0.67781012756E+02  0.24182837609E+03  0.17238875780E+03 0.  0.
        -24    2    3    3    0    0 -0.14379622980E+03  0.85510483695E+02  0.59967428898E+02  0.19505458228E+03  0.80379095624E+02 0.  0.
          6    2    1    2  501    0  0.15020677048E+03 -0.40084162442E+02  0.24597406418E+03  0.33791939134E+03  0.17180646326E+03 0.  0.
         24    2    5    5    0    0  0.14241990977E+03 -0.29945192812E+02  0.10133788197E+03  0.19264327800E+03  0.75245737175E+02 0.  0.
          5    1    5    5  501    0  0.77868607054E+01 -0.10138969631E+02  0.14463618220E+03  0.14527611334E+03  0.47000000000E+01 0. -1.
        -13    1    6    6    0    0 -0.88018576310E+01 -0.27513859728E+01  0.13346163111E+01  0.93179409328E+01  0.00000000000E+00 0.  1.
         14    1    6    6    0    0  0.15122176740E+03 -0.27193806839E+02  0.10000326566E+03  0.18332533707E+03  0.00000000000E+00 0. -1.
         -5    1    3    3    0  503 -0.64105406774E+01 -0.45426321253E+02  0.78135838582E+01  0.46773793806E+02  0.47000000000E+01 0.  1.
         11    1    4    4    0    0 -0.59513562604E+02  0.60420670255E+02  0.65179964746E+02  0.10696237344E+03  0.00000000000E+00 0. -1.
        -12    1    4    4    0    0 -0.84282667197E+02  0.25089813440E+02 -0.52125358480E+01  0.88092208840E+02  0.00000000000E+00 0.  1.
</event>
<event>
12    1  0.1629553E-001  0.1882574E+03  0.7818608E-02  0.1160076E+00
         21   -1    0    0  503  502  0.00000000000E+00  0.00000000000E+00  0.16043434055E+04  0.16043434055E+04  0.00000000000E+00 0.  1.
         21   -1    0    0  501  503 -0.00000000000E+00 -0.00000000000E+00 -0.36743778842E+02  0.36743778842E+02  0.00000000000E+00 0.  1.
          6    2    1    2  501    0  0.68235298466E+02 -0.33377538411E+02  0.26513494999E+03  0.32508752761E+03  0.17209079835E+03 0.  0.
         24    2    3    3    0    0 -0.22493057994E+02 -0.18626738242E+01  0.72032737270E+02  0.10936693074E+03  0.79139137536E+02 0.  0.
         -6    2    1    2    0  502 -0.68235298466E+02  0.33377538411E+02  0.13024646767E+04  0.13159996567E+04  0.17225198553E+03 0.  0.
        -24    2    5    5    0    0 -0.43294140002E+02  0.44338728783E+02  0.12677380656E+04  0.12716123095E+04  0.77445188586E+02 0.  0.
          5    1    3    3  501    0  0.90728356459E+02 -0.31514864587E+02  0.19310221272E+03  0.21572059687E+03  0.47000000000E+01 0. -1.
        -11    1    4    4    0    0  0.19713463333E+01 -0.38266508080E+02  0.36500470584E+02  0.52919714661E+02  0.00000000000E+00 0.  1.
         12    1    4    4    0    0 -0.24464404327E+02  0.36403834255E+02  0.35532266686E+02  0.56447216082E+02  0.00000000000E+00 0. -1.
         -5    1    5    5    0  502 -0.24941158464E+02 -0.10961190372E+02  0.34726611109E+02  0.44387347285E+02  0.47000000000E+01 0.  1.
         13    1    6    6    0    0  0.68401598490E+01  0.31875941783E+02  0.85956970029E+03  0.86018773131E+03  0.00000000000E+00 0. -1.
        -14    1    6    6    0    0 -0.50134299851E+02  0.12462787000E+02  0.40816836529E+03  0.41142457814E+03  0.00000000000E+00 0.  1.
</event>
<event>
12    1  0.1629553E-001  0.2134833E+03  0.7818608E-02  0.1139516E+00
         21   -1    0    0  503  502  0.00000000000E+00  0.00000000000E+00  0.21990777718E+03  0.21990777718E+03  0.00000000000E+00 0. -1.
         21   -1    0    0  501  503 -0.00000000000E+00 -0.00000000000E+00 -0.34681239704E+03  0.34681239704E+03  0.00000000000E+00 0. -1.
          6    2    1    2  501    0  0.50845689601E+02  0.10978556877E+03 -0.24566104434E+03  0.32546038047E+03  0.17588904255E+03 0.  0.
         24    2    3    3    0    0  0.51241480616E+02 -0.39492894047E+01 -0.77358631449E+02  0.12227680141E+03  0.79535979795E+02 0.  0.
         -6    2    1    2    0  502 -0.50845689601E+02 -0.10978556877E+03  0.11875642448E+03  0.24125979375E+03  0.17165385071E+03 0.  0.
        -24    2    5    5    0    0 -0.15592835653E+02 -0.12066679697E+03  0.13760262142E+03  0.19956526200E+03  0.78026918175E+02 0.  0.
          5    1    3    3  501    0 -0.39579101445E+00  0.11373485817E+03 -0.16830241289E+03  0.20318357906E+03  0.47000000000E+01 0. -1.
        -11    1    4    4    0    0  0.60953170369E+02  0.14413763679E+02 -0.27772727615E+02  0.68515472417E+02  0.00000000000E+00 0.  1.
         12    1    4    4    0    0 -0.97116897532E+01 -0.18363053084E+02 -0.49585903835E+02  0.53761328997E+02  0.00000000000E+00 0. -1.
         -5    1    5    5    0  502 -0.35252853948E+02  0.10881228202E+02 -0.18846196942E+02  0.41694531750E+02  0.47000000000E+01 0.  1.
         11    1    6    6    0    0  0.27948706812E+02 -0.69767894331E+02  0.90709049275E+02  0.11779991898E+03  0.00000000000E+00 0. -1.
        -12    1    6    6    0    0 -0.43541542465E+02 -0.50898902637E+02  0.46893572150E+02  0.81765343018E+02  0.00000000000E+00 0.  1.
</event>
<event>
12    1  0.1629553E-001  0.1807539E+03  0.7818608E-02  0.1167475E+00
         21   -1    0    0  501  502  0.00000000000E+00  0.00000000000E+00  0.45962000017E+03  0.45962000017E+03  0.00000000000E+00 0. -1.
         21   -1    0    0  502  503 -0.00000000000E+00 -0.00000000000E+00 -0.98058887235E+02  0.98058887235E+02  0.00000000000E+00 0. -1.
         -6    2    1    2    0  503  0.52708624577E+02  0.17965739340E+01  0.32192224855E+02  0.18197174907E+03  0.17116060101E+03 0.  0.
        -24    2    3    3    0    0 -0.27535283235E+02 -0.34958102821E+02  0.95196480682E+01  0.90724136818E+02  0.78485568905E+02 0.  0.
          6    2    1    2  501    0 -0.52708624577E+02 -0.17965739340E+01  0.32936888808E+03  0.37570713833E+03  0.17288887349E+03 0.  0.
         24    2    5    5    0    0  0.22517801019E+02  0.30946194507E+02  0.11621788804E+03  0.14726339731E+03  0.81946277341E+02 0.  0.
          5    1    5    5  501    0 -0.75226425597E+02 -0.32742768441E+02  0.21315100004E+03  0.22844374102E+03  0.47000000000E+01 0. -1.
        -11    1    6    6    0    0  0.21232377823E+02  0.45513025687E+02  0.12169276054E+03  0.13164868910E+03  0.00000000000E+00 0.  1.
         12    1    6    6    0    0  0.12854231961E+01 -0.14566831180E+02 -0.54748725019E+01  0.15614708205E+02  0.00000000000E+00 0. -1.
         -5    1    3    3    0  503  0.80243907812E+02  0.36754676755E+02  0.22672576787E+02  0.91247612257E+02  0.47000000000E+01 0.  1.
         13    1    4    4    0    0 -0.10026694901E+02  0.12910625149E+02  0.31287305760E+02  0.35300344957E+02  0.00000000000E+00 0. -1.
        -14    1    4    4    0    0 -0.17508588334E+02 -0.47868727970E+02 -0.21767657691E+02  0.55423791861E+02  0.00000000000E+00 0.  1.
</event>
<event>
12    1  0.1629553E-001  0.1801134E+03  0.7818608E-02  0.1167764E+00
         21   -1    0    0  503  502  0.00000000000E+00  0.00000000000E+00  0.45204266892E+03  0.45204266892E+03  0.00000000000E+00 0.  1.
         21   -1    0    0  501  503 -0.00000000000E+00 -0.00000000000E+00 -0.73977153819E+02  0.73977153819E+02  0.00000000000E+00 0.  1.
          6    2    1    2  501    0  0.52935820534E+02  0.54985051652E+01  0.14221830684E+03  0.22926279315E+03  0.17176421883E+03 0.  0.
         24    2    3    3    0    0  0.16530637094E+02  0.11885734257E+02  0.16569551720E+03  0.18522413419E+03  0.80239907919E+02 0.  0.
         -6    2    1    2    0  502 -0.52935820534E+02 -0.54985051652E+01  0.23584720826E+03  0.29675702958E+03  0.17207089908E+03 0.  0.
        -24    2    5    5    0    0 -0.61939046561E+02  0.49758071110E+02  0.10270494615E+03  0.15224647889E+03  0.79488195618E+02 0.  0.
          5    1    3    3  501    0  0.36405183440E+02 -0.63872290922E+01 -0.23477210367E+02  0.44038658964E+02  0.47000000000E+01 0. -1.
        -13    1    4    4    0    0 -0.15687733074E+01  0.40415075960E+02  0.47964198129E+02  0.62740765987E+02  0.00000000000E+00 0.  1.
         14    1    4    4    0    0  0.18099410401E+02 -0.28529341702E+02  0.11773131908E+03  0.12248336820E+03  0.00000000000E+00 0. -1.
         -5    1    5    5    0  502  0.90032260277E+01 -0.55256576275E+02  0.13314226211E+03  0.14451055069E+03  0.47000000000E+01 0.  1.
         11    1    6    6    0    0 -0.14512425572E+01  0.39113288144E+02  0.75564623839E+02  0.85099751999E+02  0.00000000000E+00 0. -1.
        -12    1    6    6    0    0 -0.60487804004E+02  0.10644782966E+02  0.27140322311E+02  0.67146726895E+02  0.00000000000E+00 0.  1.
</event>
<event>
12    1  0.1629553E-001  0.1910695E+03  0.7818608E-02  0.1157570E+00
         21   -1    0    0  501  502  0.00000000000E+00  0.00000000000E+00  0.11207246574E+03  0.11207246574E+03  0.00000000000E+00 0. -1.
         21   -1    0    0  502  503 -0.00000000000E+00 -0.00000000000E+00 -0.37912944237E+03  0.37912944237E+03  0.00000000000E+00 0. -1.
         -6    2    1    2    0  503  0.56431092764E+02 -0.61313139602E+02 -0.22623122777E+03  0.29612179291E+03  0.17194120653E+03 0.  0.
        -24    2    3    3    0    0  0.44139030935E+01 -0.83851968067E+02 -0.20646903890E+03  0.23590202109E+03  0.77263603596E+02 0.  0.
          6    2    1    2  501    0 -0.56431092764E+02  0.61313139602E+02 -0.40825748860E+02  0.19508011519E+03  0.17159761144E+03 0.  0.
         24    2    5    5    0    0  0.31822887429E+02  0.37436984100E+02  0.49047522532E-01  0.94822074109E+02  0.81098701530E+02 0.  0.
          5    1    5    5  501    0 -0.88253980193E+02  0.23876155502E+02 -0.40874796383E+02  0.10025804108E+03  0.47000000000E+01 0. -1.
        -13    1    6    6    0    0  0.31103369852E+02  0.54549124752E+01 -0.35154406318E+02  0.47254713731E+02  0.00000000000E+00 0.  1.
         14    1    6    6    0    0  0.71951757768E+00  0.31982071625E+02  0.35203453841E+02  0.47567360378E+02  0.00000000000E+00 0. -1.
         -5    1    3    3    0  503  0.52017189671E+02  0.22538828465E+02 -0.19762188868E+02  0.60219771825E+02  0.47000000000E+01 0.  1.
         11    1    4    4    0    0  0.12791089972E+02  0.65286035902E+01 -0.73606532224E+02  0.74994374679E+02  0.00000000000E+00 0. -1.
        -12    1    4    4    0    0 -0.83771868784E+01 -0.90380571657E+02 -0.13286250668E+03  0.16090764641E+03  0.00000000000E+00 0.  1.
</event>
<event>
12    1  0.1629553E-001  0.2463234E+03  0.7818608E-02  0.1116237E+00
         21   -1    0    0  501  502  0.00000000000E+00  0.00000000000E+00  0.12491321163E+04  0.12491321163E+04  0.00000000000E+00 0.  1.
         21   -1    0    0  502  503 -0.00000000000E+00 -0.00000000000E+00 -0.18956811059E+03  0.18956811059E+03  0.00000000000E+00 0. -1.
         -6    2    1    2    0  503 -0.14164089695E+03 -0.96697894042E+02 -0.93143978879E+02  0.25996746563E+03  0.17174008264E+03 0.  0.
        -24    2    3    3    0    0 -0.17117910290E+03 -0.86553600896E+02 -0.94330152147E+02  0.22836193919E+03  0.80356621192E+02 0.  0.
          6    2    1    2  501    0  0.14164089695E+03  0.96697894042E+02  0.11527079846E+04  0.11787327613E+04  0.17681232519E+03 0.  0.
         24    2    5    5    0    0  0.16263414794E+03  0.78655237241E+02  0.77051276152E+03  0.79550758909E+03  0.80659135932E+02 0.  0.
          5    1    5    5  501    0 -0.20993250994E+02  0.18042656801E+02  0.38219522311E+03  0.38322517221E+03  0.47000000000E+01 0. -1.
        -11    1    6    6    0    0  0.14631113332E+03  0.68330592299E+02  0.75057320971E+03  0.76774745894E+03  0.00000000000E+00 0.  1.
         12    1    6    6    0    0  0.16323014616E+02  0.10324644942E+02  0.19939551814E+02  0.27760130149E+02  0.00000000000E+00 0. -1.
         -5    1    3    3    0  503  0.29538205956E+02 -0.10144293146E+02  0.11861732675E+01  0.31605526440E+02  0.47000000000E+01 0.  1.
         11    1    4    4    0    0 -0.63222442380E+02 -0.74130754620E+02 -0.59896041167E+02  0.11436774785E+03  0.00000000000E+00 0. -1.
        -12    1    4    4    0    0 -0.10795666052E+03 -0.12422846276E+02 -0.34434110980E+02  0.11399419134E+03  0.00000000000E+00 0.  1.
</event>
<event>
12    1  0.1629553E-001  0.1739037E+03  0.7818608E-02  0.1174052E+00
         21   -1    0    0  501  502  0.00000000000E+00  0.00000000000E+00  0.23743111979E+03  0.23743111979E+03  0.00000000000E+00 0. -1.
         21   -1    0    0  502  503 -0.00000000000E+00 -0.00000000000E+00 -0.14144631013E+03  0.14144631013E+03  0.00000000000E+00 0. -1.
         -6    2    1    2    0  503 -0.14668946686E+02 -0.17685605717E+02 -0.13165048558E+02  0.17355770467E+03  0.17152550743E+03 0.  0.
        -24    2    3    3    0    0  0.15930290610E+01 -0.24968412156E+02  0.51886339902E+02  0.10594657936E+03  0.88918648565E+02 0.  0.
          6    2    1    2  501    0  0.14668946686E+02  0.17685605717E+02  0.10914985823E+03  0.20531972525E+03  0.17237905725E+03 0.  0.
         24    2    5    5    0    0 -0.44590842984E+02 -0.20197049524E+02  0.93856624455E+02  0.13318934858E+03  0.80833610171E+02 0.  0.
          5    1    5    5  501    0  0.59259789669E+02  0.37882655241E+02  0.15293233772E+02  0.72130376673E+02  0.47000000000E+01 0. -1.
        -13    1    6    6    0    0 -0.20365569322E+02 -0.89681894449E+01  0.10268347923E+03  0.10506703452E+03  0.00000000000E+00 0.  1.
         14    1    6    6    0    0 -0.24225273662E+02 -0.11228860079E+02 -0.88268547779E+01  0.28122314057E+02  0.00000000000E+00 0. -1.
         -5    1    3    3    0  503 -0.16261975747E+02  0.72828064391E+01 -0.65051388460E+02  0.67611125308E+02  0.47000000000E+01 0.  1.
         13    1    4    4    0    0  0.28299240924E+02  0.11632328667E+02  0.52350384468E+02  0.60635970027E+02  0.00000000000E+00 0. -1.
        -14    1    4    4    0    0 -0.26706211863E+02 -0.36600740823E+02 -0.46404456646E+00  0.45310609334E+02  0.00000000000E+00 0.  1.
</event>
<event>
12    1  0.1629553E-001  0.2490757E+03  0.7818608E-02  0.1114050E+00
         21   -1    0    0  503  502  0.00000000000E+00  0.00000000000E+00  0.19007752106E+03  0.19007752106E+03  0.00000000000E+00 0.  1.
         21   -1    0    0  501  503 -0.00000000000E+00 -0.00000000000E+00 -0.61285380033E+03  0.61285380033E+03  0.00000000000E+00 0. -1.
          6    2    1    2  501    0 -0.76981533880E+02 -0.16212532946E+03 -0.48672267012E+03  0.54675193099E+03  0.17270766463E+03 0.  0.
         24    2    3    3    0    0  0.14735191563E+02 -0.76108266924E+02 -0.14101620547E+03  0.17885800270E+03  0.78070613933E+02 0.  0.
         -6    2    1    2    0  502  0.76981533880E+02  0.16212532946E+03  0.63946390845E+02  0.25617939040E+03  0.17125408068E+03 0.  0.
        -24    2    5    5    0    0  0.81056158652E+02  0.52373896781E+02 -0.10097705832E+02  0.12364034786E+03  0.76627971635E+02 0.  0.
          5    1    3    3  501    0 -0.91716725444E+02 -0.86017062541E+02 -0.34570646465E+03  0.36789392829E+03  0.47000000000E+01 0. -1.
        -11    1    4    4    0    0 -0.10502233984E+02 -0.77659607937E+02 -0.76290904430E+02  0.10936916258E+03  0.00000000000E+00 0.  1.
         12    1    4    4    0    0  0.25237425547E+02  0.15513410132E+01 -0.64725301036E+02  0.69488840121E+02  0.00000000000E+00 0. -1.
         -5    1    5    5    0  502 -0.40746247714E+01  0.10975143268E+03  0.74044096677E+02  0.13253904253E+03  0.47000000000E+01 0.  1.
         13    1    6    6    0    0  0.38496718008E+02  0.67697051833E+02 -0.89713783981E+01  0.78392434295E+02  0.00000000000E+00 0. -1.
        -14    1    6    6    0    0  0.42559440644E+02 -0.15323155052E+02 -0.11263274336E+01  0.45247913567E+02  0.00000000000E+00 0.  1.
</event>
<event>
12    1  0.1629553E-001  0.2448305E+03  0.7818608E-02  0.1118285E+00
         21   -1    0    0  501  502  0.00000000000E+00  0.00000000000E+00  0.25558385016E+03  0.25558385016E+03  0.00000000000E+00 0. -1.
         21   -1    0    0  502  503 -0.00000000000E+00 -0.00000000000E+00 -0.24237936641E+03  0.24237936641E+03  0.00000000000E+00 0. -1.
         -6    2    1    2    0  503  0.13045758760E+03  0.10151397290E+03 -0.59936658282E+02  0.25206023100E+03  0.18060367712E+03 0.  0.
        -24    2    3    3    0    0  0.15157414858E+03  0.12469780074E+03 -0.60099832477E+02  0.22035036429E+03  0.80112602958E+02 0.  0.
          6    2    1    2  501    0 -0.13045758760E+03 -0.10151397290E+03  0.73141142038E+02  0.24590298557E+03  0.16671647428E+03 0.  0.
         24    2    5    5    0    0 -0.58963056407E+02 -0.46972957703E+02 -0.25824234728E+02  0.11210303741E+03  0.78848583505E+02 0.  0.
          5    1    5    5  501    0 -0.71494531195E+02 -0.54541015200E+02  0.98965376765E+02  0.13379994816E+03  0.47000000000E+01 0. -1.
        -13    1    6    6    0    0 -0.72548814012E+01  0.13580776987E+02  0.15961825969E+02  0.22177707185E+02  0.00000000000E+00 0.  1.
         14    1    6    6    0    0 -0.51708175006E+02 -0.60553734690E+02 -0.41786060697E+02  0.89925330224E+02  0.00000000000E+00 0. -1.
         -5    1    3    3    0  503 -0.21116560982E+02 -0.23183827835E+02  0.16317419466E+00  0.31709866707E+02  0.47000000000E+01 0.  1.
         11    1    4    4    0    0  0.15828451483E+03  0.11909438742E+03 -0.67110607654E+02  0.20914419526E+03  0.00000000000E+00 0. -1.
        -12    1    4    4    0    0 -0.67103662431E+01  0.56034133165E+01  0.70107751777E+01  0.11206169038E+02  0.00000000000E+00 0.  1.
</event>
<event>
12    1  0.1629553E-001  0.1750595E+03  0.7818608E-02  0.1172929E+00
         21   -1    0    0  501  502  0.00000000000E+00  0.00000000000E+00  0.67875693696E+02  0.67875693696E+02  0.00000000000E+00 0.  1.
         21   -1    0    0  502  503 -0.00000000000E+00 -0.00000000000E+00 -0.86782370438E+03  0.86782370438E+03  0.00000000000E+00 0.  1.
         -6    2    1    2    0  503  0.54163299107E+01  0.28556099272E+02 -0.72564592220E+03  0.74646354629E+03  0.17262976020E+03 0.  0.
        -24    2    3    3    0    0 -0.23797340655E+02 -0.31856797062E+02 -0.56451269082E+03  0.57185207804E+03  0.82213454611E+02 0.  0.
          6    2    1    2  501    0 -0.54163299107E+01 -0.28556099272E+02 -0.74302088485E+02  0.18923585178E+03  0.17159434668E+03 0.  0.
         24    2    5    5    0    0  0.59993550161E+02 -0.93052030690E+01 -0.67109191271E+02  0.12051265929E+03  0.79585454902E+02 0.  0.
          5    1    5    5  501    0 -0.65409880071E+02 -0.19250896203E+02 -0.71928972141E+01  0.68723192489E+02  0.47000000000E+01 0. -1.
        -13    1    6    6    0    0  0.14377201034E+02 -0.15200145341E+02  0.15447774220E+02  0.26007346199E+02  0.00000000000E+00 0.  1.
         14    1    6    6    0    0  0.45616349126E+02  0.58949422716E+01 -0.82556965491E+02  0.94505313095E+02  0.00000000000E+00 0. -1.
         -5    1    3    3    0  503  0.29213670566E+02  0.60412896334E+02 -0.16113323138E+03  0.17461146825E+03  0.47000000000E+01 0.  1.
         13    1    4    4    0    0 -0.16842005878E+02 -0.34163638085E+02 -0.95973762102E+02  0.10325584894E+03  0.00000000000E+00 0. -1.
        -14    1    4    4    0    0 -0.69553347770E+01  0.23068410221E+01 -0.46853892872E+03  0.46859622910E+03  0.00000000000E+00 0.  1.
</event>
<event>
12    1  0.1629553E-001  0.1901958E+03  0.7818608E-02  0.1158601E+00
         21   -1    0    0  503  502  0.00000000000E+00  0.00000000000E+00  0.10223083937E+03  0.10223083937E+03  0.00000000000E+00 0.  1.
         21   -1    0    0  501  503 -0.00000000000E+00 -0.00000000000E+00 -0.14466467081E+04  0.14466467081E+04  0.00000000000E+00 0.  1.
          6    2    1    2  501    0 -0.76004858536E+02  0.33990881924E+02 -0.13467022152E+04  0.13600666567E+04  0.17100390564E+03 0.  0.
         24    2    3    3    0    0 -0.36710609634E+02 -0.43189869235E+02 -0.87771589284E+03  0.88312728227E+03  0.79470588796E+02 0.  0.
         -6    2    1    2    0  502  0.76004858536E+02 -0.33990881924E+02  0.22863464345E+01  0.18881089077E+03  0.16944676604E+03 0.  0.
        -24    2    5    5    0    0  0.26480117128E+02 -0.66083823155E+02  0.44934471103E+02  0.11584782185E+03  0.79582302362E+02 0.  0.
          5    1    3    3  501    0 -0.39294248903E+02  0.77180751159E+02 -0.46898632235E+03  0.47693937445E+03  0.47000000000E+01 0. -1.
        -13    1    4    4    0    0 -0.92391138800E+01  0.20939112653E+02 -0.36073338990E+03  0.36145869232E+03  0.00000000000E+00 0.  1.
         14    1    4    4    0    0 -0.27471495754E+02 -0.64128981888E+02 -0.51698250294E+03  0.52166858995E+03  0.00000000000E+00 0. -1.
         -5    1    5    5    0  502  0.49524741408E+02  0.32092941232E+02 -0.42648124668E+02  0.72963068920E+02  0.47000000000E+01 0.  1.
         13    1    6    6    0    0  0.22210808252E+01 -0.79572738797E+01  0.51831387285E+02  0.52485656283E+02  0.00000000000E+00 0. -1.
        -14    1    6    6    0    0  0.24259036303E+02 -0.58126549276E+02 -0.68969161820E+01  0.63362165571E+02  0.00000000000E+00 0.  1.
</event>
<event>
12    1  0.1629553E-001  0.1950513E+03  0.7818608E-02  0.1154185E+00
         21   -1    0    0  503  502  0.00000000000E+00  0.00000000000E+00  0.64439937961E+03  0.64439937961E+03  0.00000000000E+00 0. -1.
         21   -1    0    0  501  503 -0.00000000000E+00 -0.00000000000E+00 -0.14427842850E+03  0.14427842850E+03  0.00000000000E+00 0. -1.
          6    2    1    2  501    0  0.71162991379E+02  0.57496606157E+02 -0.53781602420E+02  0.20143592075E+03  0.17121313720E+03 0.  0.
         24    2    3    3    0    0 -0.48201141395E+01 -0.22070745904E+02 -0.22364583401E+02  0.86921664340E+02  0.80900246080E+02 0.  0.
         -6    2    1    2    0  502 -0.71162991379E+02 -0.57496606157E+02  0.55390255353E+03  0.58724188735E+03  0.17226422840E+03 0.  0.
        -24    2    5    5    0    0 -0.59612195440E+02  0.27027925657E+01  0.15834044335E+03  0.18693093134E+03  0.79439021624E+02 0.  0.
          5    1    3    3  501    0  0.75983105518E+02  0.79567352061E+02 -0.31417019019E+02  0.11451425641E+03  0.47000000000E+01 0. -1.
        -13    1    4    4    0    0 -0.31579195656E+02  0.15149676797E+02 -0.21450020726E+02  0.41071421870E+02  0.00000000000E+00 0.  1.
         14    1    4    4    0    0  0.26759081516E+02 -0.37220422701E+02 -0.91456267571E+00  0.45850242469E+02  0.00000000000E+00 0. -1.
         -5    1    5    5    0  502 -0.11550795939E+02 -0.60199398723E+02  0.39556211018E+03  0.40031095602E+03  0.47000000000E+01 0.  1.
         13    1    6    6    0    0 -0.30811450262E+02 -0.16597267256E+02  0.14599159826E+03  0.15012781724E+03  0.00000000000E+00 0. -1.
        -14    1    6    6    0    0 -0.28800745178E+02  0.19300059821E+02  0.12348845092E+02  0.36803114094E+02  0.00000000000E+00 0.  1.
</event>
<event>
12    1  0.1629553E-001  0.2246002E+03  0.7818608E-02  0.1130783E+00
         21   -1    0    0  503  502  0.00000000000E+00  0.00000000000E+00  0.83508979644E+03  0.83508979644E+03  0.00000000000E+00 0. -1.
         21   -1    0    0  501  503 -0.00000000000E+00 -0.00000000000E+00 -0.13059662700E+03  0.13059662700E+03  0.00000000000E+00 0. -1.
          6    2    1    2  501    0  0.13146916284E+03 -0.58592017037E+02 -0.33475512944E+01  0.22306692803E+03  0.17038334144E+03 0.  0.
         24    2    3    3    0    0  0.10947530865E+02  0.59023886162E+01  0.23392562552E+02  0.83703676688E+02  0.79400295245E+02 0.  0.
         -6    2    1    2    0  502 -0.13146916284E+03  0.58592017037E+02  0.70784072073E+03  0.74261949541E+03  0.17241828151E+03 0.  0.
        -24    2    5    5    0    0 -0.11898586880E+03 -0.15937355027E+02  0.53118593851E+03  0.55042308022E+03  0.79971430574E+02 0.  0.
          5    1    3    3  501    0  0.12052163198E+03 -0.64494405653E+02 -0.26740113846E+02  0.13936325134E+03  0.47000000000E+01 0. -1.
        -13    1    4    4    0    0  0.46376049093E+01  0.14965451041E+01 -0.29679316159E+02  0.30076715815E+02  0.00000000000E+00 0.  1.
         14    1    4    4    0    0  0.63099259557E+01  0.44058435120E+01  0.53071878711E+02  0.53626960874E+02  0.00000000000E+00 0. -1.
         -5    1    5    5    0  502 -0.12483294038E+02  0.74529372064E+02  0.17665478222E+03  0.19219641519E+03  0.47000000000E+01 0.  1.
         13    1    6    6    0    0 -0.91973282883E+02  0.10814084648E+02  0.46467846684E+03  0.47381653278E+03  0.00000000000E+00 0. -1.
        -14    1    6    6    0    0 -0.27012585920E+02 -0.26751439675E+02  0.66507471673E+02  0.76606547443E+02  0.00000000000E+00 0.  1.
</event>
<event>
12    1  0.1629553E-001  0.2595811E+03  0.7818608E-02  0.1107432E+00
         21   -1    0    0  501  502  0.00000000000E+00  0.00000000000E+00  0.79728974155E+03  0.79728974155E+03  0.00000000000E+00 0. -1.
         21   -1    0    0  502  503 -0.00000000000E+00 -0.00000000000E+00 -0.13134945719E+03  0.13134945719E+03  0.00000000000E+00 0. -1.
         -6    2    1    2    0  503 -0.64671846641E+02 -0.18339348925E+03  0.55368388504E+02  0.26517828318E+03  0.17157576688E+03 0.  0.
        -24    2    3    3    0    0 -0.10268776013E+03 -0.17629127183E+03  0.30674944091E+02  0.21905337269E+03  0.73620916116E+02 0.  0.
          6    2    1    2  501    0  0.64671846641E+02  0.18339348925E+03  0.61057189585E+03  0.66346091555E+03  0.17194977992E+03 0.  0.
         24    2    5    5    0    0 -0.31624960209E+02  0.10475490231E+03  0.31869686997E+03  0.34617520346E+03  0.79346385517E+02 0.  0.
          5    1    5    5  501    0  0.96296806850E+02  0.78638586936E+02  0.29187502588E+03  0.31728571210E+03  0.47000000000E+01 0. -1.
        -13    1    6    6    0    0  0.35317352318E+01  0.29361043755E+01  0.12058730670E+03  0.12067473804E+03  0.00000000000E+00 0.  1.
         14    1    6    6    0    0 -0.35156695440E+02  0.10181879793E+03  0.19810956327E+03  0.22550046542E+03  0.00000000000E+00 0. -1.
         -5    1    3    3    0  503  0.38015913487E+02 -0.71022174156E+01  0.24693444413E+02  0.46124910487E+02  0.47000000000E+01 0.  1.
         11    1    4    4    0    0 -0.83062520974E+02 -0.15740589483E+03 -0.72687771488E-01  0.17797753623E+03  0.00000000000E+00 0. -1.
        -12    1    4    4    0    0 -0.19625239154E+02 -0.18885377001E+02  0.30747631863E+02  0.41075836467E+02  0.00000000000E+00 0.  1.
</event>
<event>
12    1  0.1629553E-001  0.2022178E+03  0.7818608E-02  0.1148068E+00
         21   -1    0    0  503  502  0.00000000000E+00  0.00000000000E+00  0.50683440816E+03  0.50683440816E+03  0.00000000000E+00 0. -1.
         21   -1    0    0  501  503 -0.00000000000E+00 -0.00000000000E+00 -0.25191007718E+03  0.25191007718E+03  0.00000000000E+00 0. -1.
          6    2    1    2  501    0 -0.62856277670E+02 -0.84739020520E+02 -0.18554837118E+03  0.27444530215E+03  0.17251206503E+03 0.  0.
         24    2    3    3    0    0 -0.16874352638E+02 -0.42687721806E+02 -0.15119330387E+02  0.92921757947E+02  0.79365443227E+02 0.  0.
         -6    2    1    2    0  502  0.62856277670E+02  0.84739020520E+02  0.44047270217E+03  0.48429918320E+03  0.17145811223E+03 0.  0.
        -24    2    5    5    0    0  0.61993984044E+02  0.66503815262E+02  0.14752940865E+03  0.19074998889E+03  0.79715872593E+02 0.  0.
          5    1    3    3  501    0 -0.45981925032E+02 -0.42051298714E+02 -0.17042904080E+03  0.18152354420E+03  0.47000000000E+01 0. -1.
        -13    1    4    4    0    0  0.19742892268E+02 -0.50390828521E+02 -0.11497182634E+02  0.55328135724E+02  0.00000000000E+00 0.  1.
         14    1    4    4    0    0 -0.36617244906E+02  0.77031067146E+01 -0.36221477532E+01  0.37593622224E+02  0.00000000000E+00 0. -1.
         -5    1    5    5    0  502  0.86229362591E+00  0.18235205258E+02  0.29294329351E+03  0.29354919430E+03  0.47000000000E+01 0.  1.
         13    1    6    6    0    0  0.27698847665E+02  0.60449959330E+02  0.14018933480E+03  0.15515950934E+03  0.00000000000E+00 0. -1.
        -14    1    6    6    0    0  0.34295136379E+02  0.60538559325E+01  0.73400738485E+01  0.35590479556E+02  0.00000000000E+00 0.  1.
</event>
<event>
12    1  0.1629553E-001  0.1775862E+03  0.7818608E-02  0.1170310E+00
         21   -1    0    0  501  502  0.00000000000E+00  0.00000000000E+00  0.10633652088E+03  0.10633652088E+03  0.00000000000E+00 0.  1.
         21   -1    0    0  502  503 -0.00000000000E+00 -0.00000000000E+00 -0.29700468466E+03  0.29700468466E+03  0.00000000000E+00 0.  1.
         -6    2    1    2    0  503  0.40062932641E+02 -0.94083861885E+01 -0.81111475652E+02  0.19467991453E+03  0.17212681760E+03 0.  0.
        -24    2    3    3    0    0  0.59129461578E+02 -0.34001387755E+02 -0.11068455578E+03  0.15149420717E+03  0.77762692344E+02 0.  0.
          6    2    1    2  501    0 -0.40062932641E+02  0.94083861885E+01 -0.10955668813E+03  0.20866129102E+03  0.17275216396E+03 0.  0.
         24    2    5    5    0    0  0.21584396487E+02  0.42844291211E+02 -0.10077171765E+03  0.13782613986E+03  0.80867708575E+02 0.  0.
          5    1    5    5  501    0 -0.61647329127E+02 -0.33435905022E+02 -0.87849704829E+01  0.70835151158E+02  0.47000000000E+01 0. -1.
        -11    1    6    6    0    0 -0.21142900174E+02  0.20466222849E+02 -0.80129729458E+02  0.85361947310E+02  0.00000000000E+00 0.  1.
         12    1    6    6    0    0  0.42727296661E+02  0.22378068362E+02 -0.20641988189E+02  0.52464192550E+02  0.00000000000E+00 0. -1.
         -5    1    3    3    0  503 -0.19066528938E+02  0.24593001566E+02  0.29573080132E+02  0.43185707361E+02  0.47000000000E+01 0.  1.
         13    1    4    4    0    0  0.45769926905E+02 -0.59203485004E+02 -0.77415936526E+02  0.10767156576E+03  0.00000000000E+00 0. -1.
        -14    1    4    4    0    0  0.13359534673E+02  0.25202097249E+02 -0.33268619258E+02  0.43822641406E+02  0.00000000000E+00 0.  1.
</event>
<event>
12    1  0.1629553E-001  0.1756040E+03  0.7818608E-02  0.1173973E+00
         21   -1    0    0  501  502  0.00000000000E+00  0.00000000000E+00  0.30579764104E+03  0.30579764104E+03  0.00000000000E+00 0. -1.
         21   -1    0    0  502  503 -0.00000000000E+00 -0.00000000000E+00 -0.10355725983E+03  0.10355725983E+03  0.00000000000E+00 0. -1.
         -6    2    1    2    0  503 -0.32553614966E+02  0.53292126418E+01  0.15563257349E+03  0.23464493488E+03  0.17247785127E+03 0.  0.
        -24    2    3    3    0    0 -0.33154603109E+02 -0.59081677428E+02  0.12048825361E+03  0.16111713629E+03  0.82773425877E+02 0.  0.
          6    2    1    2  501    0  0.32553614966E+02 -0.53292126418E+01  0.46607807713E+02  0.17470996599E+03  0.16511555385E+03 0.  0.
         24    2    5    5    0    0  0.75069833661E+02 -0.79032265177E+01  0.65326500868E+02  0.12794743962E+03  0.80031585475E+02 0.  0.
          5    1    5    5  501    0 -0.42516218695E+02  0.25740138758E+01 -0.18718693154E+02  0.46762526374E+02  0.47000000000E+01 0. -1.
        -13    1    6    6    0    0 -0.15874549202E+01  0.26099118669E+02  0.16110473628E+02  0.30712072039E+02  0.00000000000E+00 0.  1.
         14    1    6    6    0    0  0.76657288581E+02 -0.34002345186E+02  0.49216027239E+02  0.97235367578E+02  0.00000000000E+00 0. -1.
         -5    1    3    3    0  503  0.60098814297E+00  0.64410890070E+02  0.35144319875E+02  0.73527798592E+02  0.47000000000E+01 0.  1.
         13    1    4    4    0    0 -0.58927091728E+02 -0.26220233951E+02  0.63945504138E+02  0.90823621969E+02  0.00000000000E+00 0. -1.
        -14    1    4    4    0    0  0.25772488619E+02 -0.32861443477E+02  0.56542749476E+02  0.70293514319E+02  0.00000000000E+00 0.  1.
</event>
<event>
12    1  0.1629553E-001  0.2413536E+03  0.7818608E-02  0.1118934E+00
         21   -1    0    0  501  502  0.00000000000E+00  0.00000000000E+00  0.53351124736E+03  0.53351124736E+03  0.00000000000E+00 0.  1.
         21   -1    0    0  502  503 -0.00000000000E+00 -0.00000000000E+00 -0.23798069885E+03  0.23798069885E+03  0.00000000000E+00 0. -1.
         -6    2    1    2    0  503  0.12078042263E+03  0.11784931772E+03 -0.13616795541E+03  0.27690608469E+03  0.17221758179E+03 0.  0.
        -24    2    3    3    0    0  0.15152345876E+03  0.84664376466E+02 -0.12943076888E+03  0.23092941366E+03  0.80303517773E+02 0.  0.
          6    2    1    2  501    0 -0.12078042263E+03 -0.11784931772E+03  0.43169850393E+03  0.49458586152E+03  0.17255493022E+03 0.  0.
         24    2    5    5    0    0 -0.10259514076E+03 -0.75908407583E+02  0.42109819258E+03  0.44742442579E+03  0.81099196945E+02 0.  0.
          5    1    5    5  501    0 -0.18185281873E+02 -0.41940910132E+02  0.10600311345E+02  0.47161435730E+02  0.47000000000E+01 0. -1.
        -13    1    6    6    0    0 -0.71064233852E+02 -0.11845173201E+02  0.14063266478E+03  0.15801259401E+03  0.00000000000E+00 0.  1.
         14    1    6    6    0    0 -0.31530906909E+02 -0.64063234382E+02  0.28046552780E+03  0.28941183178E+03  0.00000000000E+00 0. -1.
         -5    1    3    3    0  503 -0.30743036126E+02  0.33184941249E+02 -0.67371865388E+01  0.45976671024E+02  0.47000000000E+01 0.  1.
         13    1    4    4    0    0  0.47630310150E+02 -0.73524237174E+01 -0.13376018239E+02  0.50016221803E+02  0.00000000000E+00 0. -1.
        -14    1    4    4    0    0  0.10389314861E+03  0.92016800183E+02 -0.11605475064E+03  0.18091319186E+03  0.00000000000E+00 0.  1.
</event>
<event>
12    1  0.1629553E-001  0.2521384E+03  0.7818608E-02  0.1112114E+00
         21   -1    0    0  503  502  0.00000000000E+00  0.00000000000E+00  0.17130729325E+03  0.17130729325E+03  0.00000000000E+00 0. -1.
         21   -1    0    0  501  503 -0.00000000000E+00 -0.00000000000E+00 -0.11444426905E+04  0.11444426905E+04  0.00000000000E+00 0.  1.
          6    2    1    2  501    0 -0.84747845557E+02  0.16353543964E+03 -0.10281685403E+04  0.10586332287E+04  0.17218515716E+03 0.  0.
         24    2    3    3    0    0 -0.10503050000E+03  0.14449184333E+03 -0.63582602666E+03  0.66527743222E+03  0.80062643732E+02 0.  0.
         -6    2    1    2    0  502  0.84747845557E+02 -0.16353543964E+03  0.55033143112E+02  0.25711675497E+03  0.17074642457E+03 0.  0.
        -24    2    5    5    0    0  0.76915620870E+02 -0.14483466749E+03  0.10000920979E+03  0.20755871631E+03  0.78649126079E+02 0.  0.
          5    1    3    3  501    0  0.20282654448E+02  0.19043596306E+02 -0.39234251366E+03  0.39335579652E+03  0.47000000000E+01 0. -1.
        -11    1    4    4    0    0 -0.35100911118E+02  0.41746172691E+02 -0.34086648813E+03  0.34520251972E+03  0.00000000000E+00 0.  1.
         12    1    4    4    0    0 -0.69929588887E+02  0.10274567064E+03 -0.29495953853E+03  0.32007491249E+03  0.00000000000E+00 0. -1.
         -5    1    5    5    0  502  0.78322246867E+01 -0.18700772145E+02 -0.44976066675E+02  0.49558038661E+02  0.47000000000E+01 0.  1.
         11    1    6    6    0    0  0.50484592814E+02 -0.20777328597E+02  0.23560238239E+02  0.59459871519E+02  0.00000000000E+00 0. -1.
        -12    1    6    6    0    0  0.26431028056E+02 -0.12405733890E+03  0.76448971549E+02  0.14809884479E+03  0.00000000000E+00 0.  1.
</event>
<event>
12    1  0.1629553E-001  0.1946196E+03  0.7818608E-02  0.1154522E+00
         21   -1    0    0  503  502  0.00000000000E+00  0.00000000000E+00  0.53212529308E+02  0.53212529308E+02  0.00000000000E+00 0. -1.
         21   -1    0    0  501  503 -0.00000000000E+00 -0.00000000000E+00 -0.78832622412E+03  0.78832622412E+03  0.00000000000E+00 0. -1.
          6    2    1    2  501    0 -0.82701195884E+02  0.31194441019E+02 -0.23478865649E+03  0.30496310543E+03  0.17339031549E+03 0.  0.
         24    2    3    3    0    0 -0.66819192830E+02 -0.41572796807E+02 -0.93851238537E+02  0.14548660340E+03  0.78518754627E+02 0.  0.
         -6    2    1    2    0  502  0.82701195884E+02 -0.31194441019E+02 -0.50032503833E+03  0.53657564800E+03  0.17255637079E+03 0.  0.
        -24    2    5    5    0    0  0.97036743398E+02 -0.42275300613E+02 -0.22809526121E+03  0.26370308631E+03  0.79426311349E+02 0.  0.
          5    1    3    3  501    0 -0.15882003053E+02  0.72767237826E+02 -0.14093741795E+03  0.15947650203E+03  0.47000000000E+01 0. -1.
        -13    1    4    4    0    0 -0.64418821106E+02 -0.12225026859E+02 -0.95672285275E+02  0.11598457641E+03  0.00000000000E+00 0.  1.
         14    1    4    4    0    0 -0.24003717244E+01 -0.29347769948E+02  0.18210467383E+01  0.29502026990E+02  0.00000000000E+00 0. -1.
         -5    1    5    5    0  502 -0.14335547514E+02  0.11080859594E+02 -0.27222977712E+03  0.27287256169E+03  0.47000000000E+01 0.  1.
         13    1    6    6    0    0 -0.95595806325E+01 -0.10441890107E+02 -0.63359018543E+02  0.64921366911E+02  0.00000000000E+00 0. -1.
        -14    1    6    6    0    0  0.10659632403E+03 -0.31833410506E+02 -0.16473624267E+03  0.19878171940E+03  0.00000000000E+00 0.  1.
</event>
<event>
12    1  0.1629553E-001  0.1779554E+03  0.7818608E-02  0.1170410E+00
         21   -1    0    0  501  502  0.00000000000E+00  0.00000000000E+00  0.33865956055E+03  0.33865956055E+03  0.00000000000E+00 0. -1.
         21   -1    0    0  502  503 -0.00000000000E+00 -0.00000000000E+00 -0.16511304639E+03  0.16511304639E+03  0.00000000000E+00 0. -1.
         -6    2    1    2    0  503  0.35660025127E+02 -0.19265121962E+00 -0.80936407440E+02  0.19324131033E+03  0.17181335065E+03 0.  0.
        -24    2    3    3    0    0  0.85790814303E+02  0.12873412289E+02 -0.82624700651E+02  0.14119557686E+03  0.74723230678E+02 0.  0.
          6    2    1    2  501    0 -0.35660025127E+02  0.19265121962E+00  0.25448292161E+03  0.31053129661E+03  0.17434578939E+03 0.  0.
         24    2    5    5    0    0  0.28678013174E+02 -0.42917969037E+02  0.17826409733E+03  0.20176867470E+03  0.79171517512E+02 0.  0.
          5    1    5    5  501    0 -0.64338038300E+02  0.43110620257E+02  0.76218824275E+02  0.10876262191E+03  0.47000000000E+01 0. -1.
        -13    1    6    6    0    0  0.16571496553E+02  0.12618530899E+02  0.80765380090E+01  0.22339925834E+02  0.00000000000E+00 0.  1.
         14    1    6    6    0    0  0.12106516621E+02 -0.55536499937E+02  0.17018755932E+03  0.17942874886E+03  0.00000000000E+00 0. -1.
         -5    1    3    3    0  503 -0.50130789177E+02 -0.13066063508E+02  0.16882932117E+01  0.52045733476E+02  0.47000000000E+01 0.  1.
         11    1    4    4    0    0  0.95318147829E+01 -0.23178279343E+01 -0.59170196606E+02  0.59977829119E+02  0.00000000000E+00 0. -1.
        -12    1    4    4    0    0  0.76258999521E+02  0.15191240223E+02 -0.23454504045E+02  0.81217747737E+02  0.00000000000E+00 0.  1.
</event>
<event>
12    1  0.1629553E-001  0.2366336E+03  0.7818608E-02  0.1122098E+00
         21   -1    0    0  501  502  0.00000000000E+00  0.00000000000E+00  0.29931975088E+03  0.29931975088E+03  0.00000000000E+00 0. -1.
         21   -1    0    0  502  503 -0.00000000000E+00 -0.00000000000E+00 -0.26994023453E+03  0.26994023453E+03  0.00000000000E+00 0.  1.
         -6    2    1    2    0  503 -0.29904556418E+02 -0.16005416250E+03 -0.14319105265E+03  0.27658475433E+03  0.17170856514E+03 0.  0.
        -24    2    3    3    0    0  0.40699535443E+02 -0.48576128391E+02 -0.81516294636E+02  0.13085158840E+03  0.80381213355E+02 0.  0.
          6    2    1    2  501    0  0.29904556418E+02  0.16005416250E+03  0.17257056899E+03  0.29267523109E+03  0.17136677677E+03 0.  0.
         24    2    5    5    0    0 -0.39101057008E+02  0.10293570293E+03  0.59011097440E+02  0.14796124874E+03  0.79281586195E+02 0.  0.
          5    1    5    5  501    0  0.69005613426E+02  0.57118459569E+02  0.11355947155E+03  0.14471398235E+03  0.47000000000E+01 0. -1.
        -13    1    6    6    0    0  0.60092387661E+01  0.65049072098E+02  0.10733425483E+01  0.65334866615E+02  0.00000000000E+00 0.  1.
         14    1    6    6    0    0 -0.45110295774E+02  0.37886630834E+02  0.57937754892E+02  0.82626382123E+02  0.00000000000E+00 0. -1.
         -5    1    3    3    0  503 -0.70604091861E+02 -0.11147803411E+03 -0.61674758009E+02  0.14573316593E+03  0.47000000000E+01 0.  1.
         13    1    4    4    0    0  0.11887306812E+02 -0.40478645951E+02  0.18980297569E+01  0.42230692135E+02  0.00000000000E+00 0. -1.
        -14    1    4    4    0    0  0.28812228630E+02 -0.80974824404E+01 -0.83414324393E+02  0.88620896263E+02  0.00000000000E+00 0.  1.
</event>
<event>
12    1  0.1629553E-001  0.1992846E+03  0.7818608E-02  0.1150354E+00
         21   -1    0    0  501  502  0.00000000000E+00  0.00000000000E+00  0.35412220301E+03  0.35412220301E+03  0.00000000000E+00 0. -1.
         21   -1    0    0  502  503 -0.00000000000E+00 -0.00000000000E+00 -0.13416306606E+03  0.13416306606E+03  0.00000000000E+00 0. -1.
         -6    2    1    2    0  503 -0.10134505585E+03 -0.24386853309E+01  0.20892473805E+03  0.28869544752E+03  0.17151894273E+03 0.  0.
        -24    2    3    3    0    0 -0.12695228837E+03 -0.31977182232E+01  0.21514586586E+03  0.26191674479E+03  0.78648132079E+02 0.  0.
          6    2    1    2  501    0  0.10134505585E+03  0.24386853309E+01  0.11034398904E+02  0.19958982155E+03  0.17157380737E+03 0.  0.
         24    2    5    5    0    0  0.11674085750E+03 -0.30817597746E+02  0.43084739468E+02  0.15067841794E+03  0.79180418780E+02 0.  0.
          5    1    5    5  501    0 -0.15395801652E+02  0.33256283077E+02 -0.32050340564E+02  0.48911403608E+02  0.47000000000E+01 0. -1.
        -13    1    6    6    0    0  0.10914165077E+03 -0.25933657282E+00  0.47220411593E+02  0.11891902480E+03  0.00000000000E+00 0.  1.
         14    1    6    6    0    0  0.75992067280E+01 -0.30558261173E+02 -0.41356721242E+01  0.31759393142E+02  0.00000000000E+00 0. -1.
         -5    1    3    3    0  503  0.25607232526E+02  0.75903289225E+00 -0.62211278067E+01  0.26778702727E+02  0.47000000000E+01 0.  1.
         13    1    4    4    0    0 -0.14098864833E+02 -0.12774654436E+02  0.94668468370E+02  0.96561320874E+02  0.00000000000E+00 0. -1.
        -14    1    4    4    0    0 -0.11285342354E+03  0.95769362131E+01  0.12047739749E+03  0.16535542392E+03  0.00000000000E+00 0.  1.
</event>
<event>
12    1  0.1629553E-001  0.3000499E+03  0.7818608E-02  0.1085241E+00
         21   -1    0    0  501  502  0.00000000000E+00  0.00000000000E+00  0.59257447170E+03  0.59257447170E+03  0.00000000000E+00 0.  1.
         21   -1    0    0  502  503 -0.00000000000E+00 -0.00000000000E+00 -0.15873680272E+03  0.15873680272E+03  0.00000000000E+00 0. -1.
         -6    2    1    2    0  503  0.70280958830E+02 -0.23364835786E+03  0.29522544400E+03  0.42079157742E+03  0.17428861274E+03 0.  0.
        -24    2    3    3    0    0  0.68062860116E+02 -0.25603739203E+03  0.27130802819E+03  0.38762048168E+03  0.80336122745E+02 0.  0.
          6    2    1    2  501    0 -0.70280958830E+02  0.23364835786E+03  0.13861222497E+03  0.33051969700E+03  0.17463949406E+03 0.  0.
         24    2    5    5    0    0 -0.44988976932E+02  0.23986750540E+03  0.84125898355E+02  0.26994567672E+03  0.78949815777E+02 0.  0.
          5    1    5    5  501    0 -0.25291981898E+02 -0.62191475419E+01  0.54486326617E+02  0.60574020279E+02  0.47000000000E+01 0. -1.
        -13    1    6    6    0    0  0.19156011617E+01 -0.59268363947E+01  0.28281556673E+01  0.68407150166E+01  0.00000000000E+00 0.  1.
         14    1    6    6    0    0 -0.46904578094E+02  0.24579434180E+03  0.81297742688E+02  0.26310496170E+03  0.00000000000E+00 0. -1.
         -5    1    3    3    0  503  0.22180987140E+01  0.22389034165E+02  0.23917415818E+02  0.33171095733E+02  0.47000000000E+01 0.  1.
         13    1    4    4    0    0  0.89190694271E+01 -0.79017025205E+02  0.36020744587E+02  0.87296816164E+02  0.00000000000E+00 0. -1.
        -14    1    4    4    0    0  0.59143790689E+02 -0.17702036682E+03  0.23528728360E+03  0.30032366552E+03  0.00000000000E+00 0.  1.
</event>
<event>
12    1  0.1629553E-001  0.4405020E+03  0.7818608E-02  0.1030695E+00
         21   -1    0    0  501  502  0.00000000000E+00  0.00000000000E+00  0.68688408879E+03  0.68688408879E+03  0.00000000000E+00 0.  1.
         21   -1    0    0  502  503 -0.00000000000E+00 -0.00000000000E+00 -0.83500513158E+03  0.83500513158E+03  0.00000000000E+00 0. -1.
         -6    2    1    2    0  503 -0.19308353349E+03 -0.35650873466E+03 -0.69355732151E+03  0.82162266007E+03  0.17222749064E+03 0.  0.
        -24    2    3    3    0    0 -0.11379949109E+03 -0.32004494999E+03 -0.59615296016E+03  0.69075911824E+03  0.79816748462E+02 0.  0.
          6    2    1    2  501    0  0.19308353349E+03  0.35650873466E+03  0.54543627871E+03  0.70026656030E+03  0.16879808216E+03 0.  0.
         24    2    5    5    0    0  0.19787329828E+03  0.36841391824E+03  0.53192177613E+03  0.68104659612E+03  0.77466333571E+02 0.  0.
          5    1    5    5  501    0 -0.47897647899E+01 -0.11905183584E+02  0.13514502583E+02  0.19219964178E+02  0.47000000000E+01 0. -1.
        -13    1    6    6    0    0  0.83404067904E+02  0.15066763579E+03  0.28156954563E+03  0.33005815251E+03  0.00000000000E+00 0.  1.
         14    1    6    6    0    0  0.11446923038E+03  0.21774628246E+03  0.25035223050E+03  0.35098844361E+03  0.00000000000E+00 0. -1.
         -5    1    3    3    0  503 -0.79284042398E+02 -0.36463784671E+02 -0.97404361347E+02  0.13086354183E+03  0.47000000000E+01 0.  1.
         13    1    4    4    0    0 -0.16943627726E+01 -0.11570471284E+03 -0.20699978007E+03  0.23714839318E+03  0.00000000000E+00 0. -1.
        -14    1    4    4    0    0 -0.11210512832E+03 -0.20434023715E+03 -0.38915318009E+03  0.45361072506E+03  0.00000000000E+00 0.  1.
</event>
<event>
12    1  0.1629553E-001  0.1741267E+03  0.7818608E-02  0.1173628E+00
         21   -1    0    0  503  502  0.00000000000E+00  0.00000000000E+00  0.72760835740E+03  0.72760835740E+03  0.00000000000E+00 0. -1.
         21   -1    0    0  501  503 -0.00000000000E+00 -0.00000000000E+00 -0.92056923707E+02  0.92056923707E+02  0.00000000000E+00 0. -1.
          6    2    1    2  501    0  0.82066216737E+01 -0.26872379156E+02  0.14499329111E+02  0.17466464616E+03  0.17177902862E+03 0.  0.
         24    2    3    3    0    0 -0.38888084518E+02  0.85598414365E+01  0.51968216225E+02  0.10466920982E+03  0.81666357720E+02 0.  0.
         -6    2    1    2    0  502 -0.82066216737E+01  0.26872379156E+02  0.62105210459E+03  0.64500063495E+03  0.17184478192E+03 0.  0.
        -24    2    5    5    0    0 -0.27325956164E+02  0.10733399279E+02  0.61184444045E+03  0.61792875467E+03  0.81365919171E+02 0.  0.
          5    1    3    3  501    0  0.47094706192E+02 -0.35432220592E+02 -0.37468887115E+02  0.69995436344E+02  0.47000000000E+01 0. -1.
        -11    1    4    4    0    0  0.12094011859E+02  0.29298653704E+02  0.34671556285E+02  0.46976515909E+02  0.00000000000E+00 0.  1.
         12    1    4    4    0    0 -0.50982096377E+02 -0.20738812268E+02  0.17296659940E+02  0.57692693908E+02  0.00000000000E+00 0. -1.
         -5    1    5    5    0  502  0.19119334491E+02  0.16138979876E+02  0.92076641356E+01  0.27071880275E+02  0.47000000000E+01 0.  1.
         13    1    6    6    0    0 -0.15807913845E+02  0.45999954311E+02  0.38688656090E+03  0.38993216967E+03  0.00000000000E+00 0. -1.
        -14    1    6    6    0    0 -0.11518042320E+02 -0.35266555032E+02  0.22495787955E+03  0.22799658500E+03  0.00000000000E+00 0.  1.
</event>
<event>
12    1  0.1629553E-001  0.2352880E+03  0.7818608E-02  0.1123795E+00
         21   -1    0    0  503  502  0.00000000000E+00  0.00000000000E+00  0.78401685827E+03  0.78401685827E+03  0.00000000000E+00 0.  1.
         21   -1    0    0  501  503 -0.00000000000E+00 -0.00000000000E+00 -0.14311029908E+03  0.14311029908E+03  0.00000000000E+00 0.  1.
          6    2    1    2  501    0 -0.13987494444E+03 -0.64041468464E+02 -0.11118117985E+02  0.23555057025E+03  0.17802850567E+03 0.  0.
         24    2    3    3    0    0 -0.86862840115E+02  0.23887047626E+02 -0.42923291665E+02  0.12796169434E+03  0.80100201082E+02 0.  0.
         -6    2    1    2    0  502  0.13987494444E+03  0.64041468464E+02  0.65202467718E+03  0.69157658711E+03  0.17168484620E+03 0.  0.
        -24    2    5    5    0    0  0.22241977944E+02  0.76014085679E+02  0.34307562557E+03  0.36074057809E+03  0.78485877816E+02 0.  0.
          5    1    3    3  501    0 -0.53012104329E+02 -0.87928516090E+02  0.31805173680E+02  0.10758887591E+03  0.47000000000E+01 0. -1.
        -11    1    4    4    0    0 -0.90013874504E+02  0.38993054677E+00 -0.14873557803E+02  0.91235258375E+02  0.00000000000E+00 0.  1.
         12    1    4    4    0    0  0.31510343895E+01  0.23497117079E+02 -0.28049733862E+02  0.36726435962E+02  0.00000000000E+00 0. -1.
         -5    1    5    5    0  502  0.11763296650E+03 -0.11972617215E+02  0.30894905161E+03  0.33083600901E+03  0.47000000000E+01 0.  1.
         11    1    6    6    0    0 -0.18467425495E+01  0.74175067041E+02  0.16351444763E+03  0.17956148143E+03  0.00000000000E+00 0. -1.
        -12    1    6    6    0    0  0.24088720494E+02  0.18390186373E+01  0.17956117794E+03  0.18117909667E+03  0.00000000000E+00 0.  1.
</event>
<event>
12    1  0.1629553E-001  0.2374269E+03  0.7818608E-02  0.1121753E+00
         21   -1    0    0  503  502  0.00000000000E+00  0.00000000000E+00  0.22944981454E+03  0.22944981454E+03  0.00000000000E+00 0. -1.
         21   -1    0    0  501  503 -0.00000000000E+00 -0.00000000000E+00 -0.30565166426E+03  0.30565166426E+03  0.00000000000E+00 0. -1.
          6    2    1    2  501    0  0.12280243918E+03  0.10483277710E+03 -0.15810185056E+03  0.28525027669E+03  0.17407232686E+03 0.  0.
         24    2    3    3    0    0 -0.69683471209E+01  0.37148918180E+02 -0.41246126650E+02  0.97903240562E+02  0.80344269027E+02 0.  0.
         -6    2    1    2    0  502 -0.12280243918E+03 -0.10483277710E+03  0.81900000838E+02  0.24985120210E+03  0.17218496692E+03 0.  0.
        -24    2    5    5    0    0 -0.87456456550E+02 -0.10831307374E+03  0.20657113673E+01  0.16234660378E+03  0.83497298515E+02 0.  0.
          5    1    3    3  501    0  0.12977078630E+03  0.67683858921E+02 -0.11685572391E+03  0.18734703613E+03  0.47000000000E+01 0. -1.
        -11    1    4    4    0    0 -0.34758031441E+01  0.39687869406E+02  0.14195844729E+02  0.42293382379E+02  0.00000000000E+00 0.  1.
         12    1    4    4    0    0 -0.34925439769E+01 -0.25389512269E+01 -0.55441971379E+02  0.55609858183E+02  0.00000000000E+00 0. -1.
         -5    1    5    5    0  502 -0.35345982625E+02  0.34802966439E+01  0.79834289471E+02  0.87504598324E+02  0.47000000000E+01 0.  1.
         13    1    6    6    0    0 -0.20228400344E+02 -0.57223409989E+02 -0.35076805239E+02  0.70100564170E+02  0.00000000000E+00 0. -1.
        -14    1    6    6    0    0 -0.67228056206E+02 -0.51089663756E+02  0.37142516606E+02  0.92246039610E+02  0.00000000000E+00 0.  1.
</event>
<event>
12    1  0.1629553E-001  0.2451585E+03  0.7818608E-02  0.1116739E+00
         21   -1    0    0  503  502  0.00000000000E+00  0.00000000000E+00  0.43510965257E+03  0.43510965257E+03  0.00000000000E+00 0.  1.
         21   -1    0    0  501  503 -0.00000000000E+00 -0.00000000000E+00 -0.14126444236E+03  0.14126444236E+03  0.00000000000E+00 0. -1.
          6    2    1    2  501    0 -0.25987226350E+02 -0.17417722847E+03  0.96093442323E+02  0.26140039564E+03  0.16758035187E+03 0.  0.
         24    2    3    3    0    0 -0.40861250957E+02 -0.10429544217E+03 -0.55354685988E+01  0.13708134561E+03  0.78825584772E+02 0.  0.
         -6    2    1    2    0  502  0.25987226350E+02  0.17417722847E+03  0.19775176789E+03  0.31497369928E+03  0.17055681366E+03 0.  0.
        -24    2    5    5    0    0  0.34433943464E+02  0.19292272828E+03  0.16463690548E+03  0.27571271477E+03  0.10250519444E+03 0.  0.
          5    1    3    3  501    0  0.14874024608E+02 -0.69881786300E+02  0.10162891092E+03  0.12431905003E+03  0.47000000000E+01 0. -1.
        -13    1    4    4    0    0  0.15860457080E+02 -0.57047005077E+01 -0.15505225055E+02  0.22902176985E+02  0.00000000000E+00 0.  1.
         14    1    4    4    0    0 -0.56721708037E+02 -0.98590741667E+02  0.99697564557E+01  0.11417916863E+03  0.00000000000E+00 0. -1.
         -5    1    5    5    0  502 -0.84467171145E+01 -0.18745499811E+02  0.33114862407E+02  0.39260984519E+02  0.47000000000E+01 0.  1.
         11    1    6    6    0    0 -0.33248338348E+02  0.34268887381E+02  0.46490469474E+02  0.66642121793E+02  0.00000000000E+00 0. -1.
        -12    1    6    6    0    0  0.67682281813E+02  0.15865384090E+03  0.11814643601E+03  0.20907059297E+03  0.00000000000E+00 0.  1.
</event>
<event>
12    1  0.1629553E-001  0.1948760E+03  0.7818608E-02  0.1154827E+00
         21   -1    0    0  503  502  0.00000000000E+00  0.00000000000E+00  0.95519919132E+03  0.95519919132E+03  0.00000000000E+00 0.  1.
         21   -1    0    0  501  503 -0.00000000000E+00 -0.00000000000E+00 -0.75679106719E+02  0.75679106719E+02  0.00000000000E+00 0.  1.
          6    2    1    2  501    0 -0.84379737615E+02  0.37227197729E+02  0.83360170000E+02  0.21195649320E+03  0.17167071007E+03 0.  0.
         24    2    3    3    0    0 -0.19799292284E+02  0.22763941330E+02 -0.19964411949E+02  0.89164478233E+02  0.81495505608E+02 0.  0.
         -6    2    1    2    0  502  0.84379737615E+02 -0.37227197729E+02  0.79615991460E+03  0.81892180484E+03  0.16809672350E+03 0.  0.
        -24    2    5    5    0    0  0.53196665855E+02  0.85753849223E+01  0.21888527737E+03  0.23897494750E+03  0.79340017649E+02 0.  0.
          5    1    3    3  501    0 -0.64580445331E+02  0.14463256399E+02  0.10332458195E+03  0.12279201497E+03  0.47000000000E+01 0. -1.
        -11    1    4    4    0    0 -0.39893586992E+02  0.32337810096E+02  0.95125914198E+01  0.52227594626E+02  0.00000000000E+00 0.  1.
         12    1    4    4    0    0  0.20094294709E+02 -0.95738687661E+01 -0.29477003368E+02  0.36936883607E+02  0.00000000000E+00 0. -1.
         -5    1    5    5    0  502  0.31183071760E+02 -0.45802582652E+02  0.57727463724E+03  0.57994685734E+03  0.47000000000E+01 0.  1.
         11    1    6    6    0    0 -0.12205870820E+01 -0.28816648204E+02  0.83642541688E+02  0.88475781017E+02  0.00000000000E+00 0. -1.
        -12    1    6    6    0    0  0.54417252937E+02  0.37392033126E+02  0.13524273568E+03  0.15049916648E+03  0.00000000000E+00 0.  1.
</event>
<event>
12    1  0.1629553E-001  0.1897017E+03  0.7818608E-02  0.1159583E+00
         21   -1    0    0  501  502  0.00000000000E+00  0.00000000000E+00  0.49162086723E+03  0.49162086723E+03  0.00000000000E+00 0.  1.
         21   -1    0    0  502  503 -0.00000000000E+00 -0.00000000000E+00 -0.90123781950E+02  0.90123781950E+02  0.00000000000E+00 0. -1.
         -6    2    1    2    0  503  0.55885164571E+02  0.57437984017E+02  0.71068550682E+02  0.20257705426E+03  0.17194316034E+03 0.  0.
        -24    2    3    3    0    0  0.95203202337E+02  0.69745205043E+02  0.29235107300E+02  0.14367456901E+03  0.76548330613E+02 0.  0.
          6    2    1    2  501    0 -0.55885164571E+02 -0.57437984017E+02  0.33042853460E+03  0.37916759492E+03  0.16781768362E+03 0.  0.
         24    2    5    5    0    0 -0.40081684204E+02  0.31059164104E+02  0.16725547399E+03  0.19281032267E+03  0.81426125179E+02 0.  0.
          5    1    5    5  501    0 -0.15803480367E+02 -0.88497148120E+02  0.16317306060E+03  0.18635727226E+03  0.47000000000E+01 0. -1.
        -13    1    6    6    0    0 -0.20555277985E+00  0.14931218555E+02  0.14229955656E+03  0.14308091185E+03  0.00000000000E+00 0.  1.
         14    1    6    6    0    0 -0.39876131424E+02  0.16127945549E+02  0.24955917440E+02  0.49729410817E+02  0.00000000000E+00 0. -1.
         -5    1    3    3    0  503 -0.39318037765E+02 -0.12307221026E+02  0.41833443382E+02  0.58902485247E+02  0.47000000000E+01 0.  1.
         11    1    4    4    0    0  0.27394565586E+02  0.67441366521E+02  0.16566370099E+02  0.74654167734E+02  0.00000000000E+00 0. -1.
        -12    1    4    4    0    0  0.67808636751E+02  0.23038385218E+01  0.12668737201E+02  0.69020401275E+02  0.00000000000E+00 0.  1.
</event>
<event>
12    1  0.1629553E-001  0.2080987E+03  0.7818608E-02  0.1143381E+00
         21   -1    0    0  503  502  0.00000000000E+00  0.00000000000E+00  0.83849085354E+03  0.83849085354E+03  0.00000000000E+00 0. -1.
         21   -1    0    0  501  503 -0.00000000000E+00 -0.00000000000E+00 -0.66149826671E+02  0.66149826671E+02  0.00000000000E+00 0. -1.
          6    2    1    2  501    0 -0.84755173106E+02 -0.78471165548E+02  0.17277008131E+03  0.27047100644E+03  0.17310084096E+03 0.  0.
         24    2    3    3    0    0 -0.12224225062E+03 -0.46139057014E+02  0.15645661735E+03  0.21813683664E+03  0.77672556069E+02 0.  0.
         -6    2    1    2    0  502  0.84755173106E+02  0.78471165548E+02  0.59957094556E+03  0.63416967376E+03  0.17130292809E+03 0.  0.
        -24    2    5    5    0    0  0.77314902919E+02  0.11087809481E+03  0.38591846602E+03  0.41789429676E+03  0.86203449624E+02 0.  0.
          5    1    3    3  501    0  0.37487077518E+02 -0.32332108534E+02  0.16313463960E+02  0.52334169808E+02  0.47000000000E+01 0. -1.
        -13    1    4    4    0    0 -0.42703722874E+02 -0.39560289278E+01  0.10731343571E+03  0.11556570251E+03  0.00000000000E+00 0.  1.
         14    1    4    4    0    0 -0.79538527750E+02 -0.42183028086E+02  0.49143181638E+02  0.10257113413E+03  0.00000000000E+00 0. -1.
         -5    1    5    5    0  502  0.74402701877E+01 -0.32406929260E+02  0.21365247954E+03  0.21627537701E+03  0.47000000000E+01 0.  1.
         13    1    6    6    0    0  0.86664971714E+02  0.53518625007E+02  0.23229918825E+03  0.25364931186E+03  0.00000000000E+00 0. -1.
        -14    1    6    6    0    0 -0.93500687957E+01  0.57359469802E+02  0.15361927777E+03  0.16424498490E+03  0.00000000000E+00 0.  1.
</event>
<event>
12    1  0.1629553E-001  0.2626289E+03  0.7818608E-02  0.1105876E+00
         21   -1    0    0  501  502  0.00000000000E+00  0.00000000000E+00  0.16583634346E+03  0.16583634346E+03  0.00000000000E+00 0. -1.
         21   -1    0    0  502  503 -0.00000000000E+00 -0.00000000000E+00 -0.42037792580E+03  0.42037792580E+03  0.00000000000E+00 0.  1.
         -6    2    1    2    0  503 -0.16274231438E+02 -0.19755236073E+03 -0.16732938635E+03  0.31140494772E+03  0.17228503152E+03 0.  0.
        -24    2    3    3    0    0 -0.45450863996E+01 -0.24101475685E+02 -0.29681828348E+02  0.89612877094E+02  0.80919205794E+02 0.  0.
          6    2    1    2  501    0  0.16274231438E+02  0.19755236073E+03 -0.87212195981E+02  0.27480932154E+03  0.16918158954E+03 0.  0.
         24    2    5    5    0    0 -0.38427038469E+02  0.18418821377E+03 -0.66204847422E+02  0.21452476260E+03  0.78967439929E+02 0.  0.
          5    1    5    5  501    0  0.54701269907E+02  0.13364146964E+02 -0.21007348559E+02  0.60284558943E+02  0.47000000000E+01 0. -1.
        -11    1    6    6    0    0  0.18920941521E+02  0.98237430307E+02 -0.41346361132E+02  0.10825024859E+03  0.00000000000E+00 0.  1.
         12    1    6    6    0    0 -0.57347979991E+02  0.85950783461E+02 -0.24858486290E+02  0.10627451401E+03  0.00000000000E+00 0. -1.
         -5    1    3    3    0  503 -0.11729145038E+02 -0.17345088505E+03 -0.13764755800E+03  0.22179207062E+03  0.47000000000E+01 0.  1.
         11    1    4    4    0    0  0.25895569504E+02  0.18522067804E+02 -0.15139313157E+02  0.35254025565E+02  0.00000000000E+00 0. -1.
        -12    1    4    4    0    0 -0.30440655904E+02 -0.42623543489E+02 -0.14542515192E+02  0.54358851529E+02  0.00000000000E+00 0.  1.
</event>
<event>
12    1  0.1629553E-001  0.2049370E+03  0.7818608E-02  0.1146624E+00
         21   -1    0    0  501  502  0.00000000000E+00  0.00000000000E+00  0.11248978005E+03  0.11248978005E+03  0.00000000000E+00 0.  1.
         21   -1    0    0  502  503 -0.00000000000E+00 -0.00000000000E+00 -0.10129799190E+04  0.10129799190E+04  0.00000000000E+00 0.  1.
         -6    2    1    2    0  503  0.98932253130E+02  0.41017265901E+02 -0.90230376916E+03  0.92528442891E+03  0.17472600189E+03 0.  0.
        -24    2    3    3    0    0  0.60062317185E+02 -0.42538527460E+02 -0.39180285989E+03  0.40651115388E+03  0.79528793180E+02 0.  0.
          6    2    1    2  501    0 -0.98932253130E+02 -0.41017265901E+02  0.18136301684E+01  0.20018527018E+03  0.16911784747E+03 0.  0.
         24    2    5    5    0    0 -0.85858580378E+02 -0.88741713491E+02 -0.19485016433E+02  0.14610878579E+03  0.75639433386E+02 0.  0.
          5    1    5    5  501    0 -0.13073672752E+02  0.47724447590E+02  0.21298646602E+02  0.54076484390E+02  0.47000000000E+01 0. -1.
        -11    1    6    6    0    0 -0.11338298004E+01 -0.34523478630E+02  0.17768244282E+02  0.38844132782E+02  0.00000000000E+00 0.  1.
         12    1    6    6    0    0 -0.84724750577E+02 -0.54218234861E+02 -0.37253260715E+02  0.10726465301E+03  0.00000000000E+00 0. -1.
         -5    1    3    3    0  503  0.38869935945E+02  0.83555793361E+02 -0.51050090927E+03  0.51877327503E+03  0.47000000000E+01 0.  1.
         11    1    4    4    0    0 -0.41294600892E+01 -0.23324855394E+02 -0.23231431334E+03  0.23351882473E+03  0.00000000000E+00 0. -1.
        -12    1    4    4    0    0  0.64191777274E+02 -0.19213672066E+02 -0.15948854655E+03  0.17299232915E+03  0.00000000000E+00 0.  1.
</event>
<event>
12    1  0.1629553E-001  0.1778118E+03  0.7818608E-02  0.1170554E+00
         21   -1    0    0  501  502  0.00000000000E+00  0.00000000000E+00  0.10864910581E+03  0.10864910581E+03  0.00000000000E+00 0.  1.
         21   -1    0    0  502  503 -0.00000000000E+00 -0.00000000000E+00 -0.40046709731E+03  0.40046709731E+03  0.00000000000E+00 0.  1.
         -6    2    1    2    0  503 -0.21458579451E+02 -0.37728233001E+02 -0.28217857490E+03  0.33352928915E+03  0.17243302581E+03 0.  0.
        -24    2    3    3    0    0 -0.48176995514E+02 -0.39597647036E+02 -0.28780522040E+03  0.30576028475E+03  0.82270956567E+02 0.  0.
          6    2    1    2  501    0  0.21458579451E+02  0.37728233001E+02 -0.96394166006E+01  0.17558691398E+03  0.16986452193E+03 0.  0.
         24    2    5    5    0    0  0.47217404059E+02 -0.76072057965E+01 -0.53701924221E+02  0.10715874994E+03  0.79446511547E+02 0.  0.
          5    1    5    5  501    0 -0.25758824608E+02  0.45335438798E+02  0.44062507621E+02  0.68428164041E+02  0.47000000000E+01 0. -1.
        -13    1    6    6    0    0 -0.15562961539E+02  0.18030009052E+02 -0.70188833007E+01  0.24830459542E+02  0.00000000000E+00 0.  1.
         14    1    6    6    0    0  0.62780365598E+02 -0.25637214849E+02 -0.46683040921E+02  0.82328290395E+02  0.00000000000E+00 0. -1.
         -5    1    3    3    0  503  0.26718416063E+02  0.18694140349E+01  0.56266454983E+01  0.27769004399E+02  0.47000000000E+01 0.  1.
         13    1    4    4    0    0  0.20125860791E+02 -0.21924998806E+02 -0.55478807065E+02  0.62957556167E+02  0.00000000000E+00 0. -1.
        -14    1    4    4    0    0 -0.68302856305E+02 -0.17672648230E+02 -0.23232641333E+03  0.24280272858E+03  0.00000000000E+00 0.  1.
</event>
<event>
12    1  0.1629553E-001  0.2048672E+03  0.7818608E-02  0.1146637E+00
         21   -1    0    0  501  502  0.00000000000E+00  0.00000000000E+00  0.44325890825E+03  0.44325890825E+03  0.00000000000E+00 0.  1.
         21   -1    0    0  502  503 -0.00000000000E+00 -0.00000000000E+00 -0.92897602194E+02  0.92897602194E+02  0.00000000000E+00 0.  1.
         -6    2    1    2    0  503 -0.49062577332E+02 -0.91499450914E+02  0.15798078800E+03  0.25512118702E+03  0.17131726322E+03 0.  0.
        -24    2    3    3    0    0 -0.66151583693E+02 -0.10314354650E+03  0.65440556495E+02  0.16018224060E+03  0.79757510991E+02 0.  0.
          6    2    1    2  501    0  0.49062577332E+02  0.91499450914E+02  0.19238051805E+03  0.28103532342E+03  0.17661059785E+03 0.  0.
         24    2    5    5    0    0  0.85051676977E+02  0.89756896652E+02  0.19929267840E+03  0.24404722062E+03  0.67463960543E+02 0.  0.
          5    1    5    5  501    0 -0.35989099645E+02  0.17425542615E+01 -0.69121603479E+01  0.36988102808E+02  0.47000000000E+01 0. -1.
        -11    1    6    6    0    0  0.46040757958E+02  0.62769992377E+02  0.64313538304E+02  0.10097551458E+03  0.00000000000E+00 0.  1.
         12    1    6    6    0    0  0.39010919019E+02  0.26986904275E+02  0.13497914010E+03  0.14307170603E+03  0.00000000000E+00 0. -1.
         -5    1    3    3    0  503  0.17089006362E+02  0.11644095586E+02  0.92540231505E+02  0.94938946420E+02  0.47000000000E+01 0.  1.
         11    1    4    4    0    0  0.17849325090E+02 -0.17744819671E+02  0.19687165989E+02  0.31954053514E+02  0.00000000000E+00 0. -1.
        -12    1    4    4    0    0 -0.84000908783E+02 -0.85398726828E+02  0.45753390507E+02  0.12822818709E+03  0.00000000000E+00 0.  1.
</event>
<event>
12    1  0.1629553E-001  0.1799582E+03  0.7818608E-02  0.1168382E+00
         21   -1    0    0  501  502  0.00000000000E+00  0.00000000000E+00  0.86772201563E+03  0.86772201563E+03  0.00000000000E+00 0.  1.
         21   -1    0    0  502  503 -0.00000000000E+00 -0.00000000000E+00 -0.10031706877E+03  0.10031706877E+03  0.00000000000E+00 0.  1.
         -6    2    1    2    0  503  0.25103828986E+02 -0.37773598670E+02 -0.36898282048E+00  0.17995861789E+03  0.17414913442E+03 0.  0.
        -24    2    3    3    0    0 -0.31571118294E+01 -0.74338494221E+02 -0.42433344855E+02  0.11729145811E+03  0.80128136824E+02 0.  0.
          6    2    1    2  501    0 -0.25103828986E+02  0.37773598670E+02  0.76777392969E+03  0.78808046651E+03  0.17186322352E+03 0.  0.
         24    2    5    5    0    0  0.32602875233E+02  0.34197504585E+02  0.23962398096E+03  0.25675447382E+03  0.79188324800E+02 0.  0.
          5    1    5    5  501    0 -0.57706704219E+02  0.35760940855E+01  0.52814994873E+03  0.53132599268E+03  0.47000000000E+01 0. -1.
        -13    1    6    6    0    0 -0.56591883752E+01 -0.22401538786E+02  0.76172986255E+02  0.79600120528E+02  0.00000000000E+00 0.  1.
         14    1    6    6    0    0  0.38262063608E+02  0.56599043371E+02  0.16345099470E+03  0.17715435330E+03  0.00000000000E+00 0. -1.
         -5    1    3    3    0  503  0.28260940815E+02  0.36564895551E+02  0.42064362034E+02  0.62667159787E+02  0.47000000000E+01 0.  1.
         13    1    4    4    0    0 -0.16076906115E+02  0.91872967330E+01  0.65053632375E+01  0.19626336447E+02  0.00000000000E+00 0. -1.
        -14    1    4    4    0    0  0.12919794285E+02 -0.83525790954E+02 -0.48938708092E+02  0.97665121659E+02  0.00000000000E+00 0.  1.
</event>
<event>
12    1  0.1629553E-001  0.2085749E+03  0.7818608E-02  0.1142700E+00
         21   -1    0    0  501  502  0.00000000000E+00  0.00000000000E+00  0.44651472595E+03  0.44651472595E+03  0.00000000000E+00 0. -1.
         21   -1    0    0  502  503 -0.00000000000E+00 -0.00000000000E+00 -0.10875191528E+03  0.10875191528E+03  0.00000000000E+00 0. -1.
         -6    2    1    2    0  503  0.95802297075E+02  0.66975534012E+02  0.79296418419E+02  0.22313961828E+03  0.17274132392E+03 0.  0.
        -24    2    3    3    0    0  0.82258181271E+02 -0.70478784582E+01  0.77299087433E+00  0.11427765366E+03  0.79010781763E+02 0.  0.
          6    2    1    2  501    0 -0.95802297075E+02 -0.66975534012E+02  0.25846639225E+03  0.33212702296E+03  0.17274166023E+03 0.  0.
         24    2    5    5    0    0 -0.45873119972E+02  0.87974630087E+01  0.51993021338E+02  0.10654375075E+03  0.80414911961E+02 0.  0.
          5    1    5    5  501    0 -0.49929177103E+02 -0.75772997021E+02  0.20647337091E+03  0.22558327221E+03  0.47000000000E+01 0. -1.
        -11    1    6    6    0    0  0.14967455903E+02  0.18383696643E+02  0.35665113922E+02  0.42825055628E+02  0.00000000000E+00 0.  1.
         12    1    6    6    0    0 -0.60840575875E+02 -0.95862336342E+01  0.16327907416E+02  0.63718695127E+02  0.00000000000E+00 0. -1.
         -5    1    3    3    0  503  0.13544115804E+02  0.74023412471E+02  0.78523427545E+02  0.10886196462E+03  0.47000000000E+01 0.  1.
         11    1    4    4    0    0  0.20476083869E+02  0.40691202491E+01  0.36500070290E+02  0.42048577638E+02  0.00000000000E+00 0. -1.
        -12    1    4    4    0    0  0.61782097401E+02 -0.11116998707E+02 -0.35727079416E+02  0.72229076023E+02  0.00000000000E+00 0.  1.
</event>
<event>
12    1  0.1629553E-001  0.1740351E+03  0.7818608E-02  0.1174056E+00
         21   -1    0    0  501  502  0.00000000000E+00  0.00000000000E+00  0.99800948272E+02  0.99800948272E+02  0.00000000000E+00 0. -1.
         21   -1    0    0  502  503 -0.00000000000E+00 -0.00000000000E+00 -0.53926659281E+03  0.53926659281E+03  0.00000000000E+00 0. -1.
         -6    2    1    2    0  503  0.52728136932E+01  0.44612921460E+01 -0.43258753308E+03  0.46628339353E+03  0.17389802649E+03 0.  0.
        -24    2    3    3    0    0 -0.57812174288E+02  0.49437099606E+01 -0.17383837868E+03  0.19991304358E+03  0.79867110403E+02 0.  0.
          6    2    1    2  501    0 -0.52728136932E+01 -0.44612921460E+01 -0.68781114643E+01  0.17278414756E+03  0.17250897814E+03 0.  0.
         24    2    5    5    0    0 -0.10602492825E+01  0.51022179702E+02 -0.43315100660E+02  0.10610652366E+03  0.82328667348E+02 0.  0.
          5    1    5    5  501    0 -0.42125644106E+01 -0.55483471848E+02  0.36436989195E+02  0.66677623899E+02  0.47000000000E+01 0. -1.
        -11    1    6    6    0    0 -0.36267497443E+02  0.49269828948E+02 -0.32257508805E+02  0.69162087083E+02  0.00000000000E+00 0.  1.
         12    1    6    6    0    0  0.35207248160E+02  0.17523507545E+01 -0.11057591854E+02  0.36944436574E+02  0.00000000000E+00 0. -1.
         -5    1    3    3    0  503  0.63084987981E+02 -0.48241781456E+00 -0.25874915439E+03  0.26637034995E+03  0.47000000000E+01 0.  1.
         11    1    4    4    0    0  0.17136361662E+02 -0.22520255045E+01 -0.67104436174E+02  0.69294529828E+02  0.00000000000E+00 0. -1.
        -12    1    4    4    0    0 -0.74948535950E+02  0.71957354650E+01 -0.10673394251E+03  0.13061851375E+03  0.00000000000E+00 0.  1.
</event>
<event>
12    1  0.1629553E-001  0.1875411E+03  0.7818608E-02  0.1160785E+00
         21   -1    0    0  503  502  0.00000000000E+00  0.00000000000E+00  0.28712937476E+03  0.28712937476E+03  0.00000000000E+00 0.  1.
         21   -1    0    0  501  503 -0.00000000000E+00 -0.00000000000E+00 -0.13414602557E+03  0.13414602557E+03  0.00000000000E+00 0.  1.
          6    2    1    2  501    0  0.10115616538E+02 -0.73784966310E+02  0.13682678405E+02  0.18765956827E+03  0.17170425424E+03 0.  0.
         24    2    3    3    0    0 -0.30689704705E+02 -0.78410718437E+02  0.55917350242E+02  0.12856363500E+03  0.79446582338E+02 0.  0.
         -6    2    1    2    0  502 -0.10115616538E+02  0.73784966310E+02  0.13930067079E+03  0.23361583206E+03  0.17211953159E+03 0.  0.
        -24    2    5    5    0    0 -0.29571876068E+02  0.57180515985E+01  0.13867699626E+03  0.16266422966E+03  0.79505662384E+02 0.  0.
          5    1    3    3  501    0  0.40805321243E+02  0.46257521271E+01 -0.42234671838E+02  0.59095933276E+02  0.47000000000E+01 0. -1.
        -13    1    4    4    0    0 -0.33587246531E+02 -0.83294805755E+02  0.19755680620E+02  0.91958766368E+02  0.00000000000E+00 0.  1.
         14    1    4    4    0    0  0.28975418253E+01  0.48840873177E+01  0.36161669622E+02  0.36604868630E+02  0.00000000000E+00 0. -1.
         -5    1    5    5    0  502  0.19456259530E+02  0.68066914711E+02  0.62367453302E+00  0.70951602400E+02  0.47000000000E+01 0.  1.
         13    1    6    6    0    0  0.14998105466E+02 -0.22760956533E+02  0.23761889769E+02  0.36161190733E+02  0.00000000000E+00 0. -1.
        -14    1    6    6    0    0 -0.44569981534E+02  0.28479008131E+02  0.11491510649E+03  0.12650303892E+03  0.00000000000E+00 0.  1.
</event>
<event>
12    1  0.1629553E-001  0.3610436E+03  0.7818608E-02  0.1058368E+00
         21   -1    0    0  501  502  0.00000000000E+00  0.00000000000E+00  0.20119342972E+03  0.20119342972E+03  0.00000000000E+00 0. -1.
         21   -1    0    0  502  503 -0.00000000000E+00 -0.00000000000E+00 -0.70145225894E+03  0.70145225894E+03  0.00000000000E+00 0.  1.
         -6    2    1    2    0  503  0.24358192635E+03 -0.20187758547E+03 -0.37827779166E+03  0.52155273015E+03  0.16981298039E+03 0.  0.
        -24    2    3    3    0    0  0.13981029161E+03 -0.43699144688E+02 -0.21582075281E+03  0.27214673428E+03  0.77644798608E+02 0.  0.
          6    2    1    2  501    0 -0.24358192635E+03  0.20187758547E+03 -0.12198103755E+03  0.38109295851E+03  0.17397055827E+03 0.  0.
         24    2    5    5    0    0 -0.15032361723E+03  0.16205883856E+03 -0.17932903452E+02  0.23572876403E+03  0.79913729202E+02 0.  0.
          5    1    5    5  501    0 -0.93258309120E+02  0.39818746909E+02 -0.10404813410E+03  0.14536419448E+03  0.47000000000E+01 0. -1.
        -11    1    6    6    0    0 -0.14847466237E+03  0.16986538892E+03 -0.22101227501E+02  0.22668797933E+03  0.00000000000E+00 0.  1.
         12    1    6    6    0    0 -0.18489548625E+01 -0.78065503603E+01  0.41683240492E+01  0.90407847000E+01  0.00000000000E+00 0. -1.
         -5    1    3    3    0  503  0.10377163474E+03 -0.15817844078E+03 -0.16245703886E+03  0.24940599587E+03  0.47000000000E+01 0.  1.
         13    1    4    4    0    0  0.11911017779E+03 -0.34065945554E+02 -0.11589186343E+03  0.16964270427E+03  0.00000000000E+00 0. -1.
        -14    1    4    4    0    0  0.20700113813E+02 -0.96331991332E+01 -0.99928889374E+02  0.10250403001E+03  0.00000000000E+00 0.  1.
</event>
<event>
12    1  0.1629553E-001  0.1780414E+03  0.7818608E-02  0.1170237E+00
         21   -1    0    0  501  502  0.00000000000E+00  0.00000000000E+00  0.32678969243E+03  0.32678969243E+03  0.00000000000E+00 0.  1.
         21   -1    0    0  502  503 -0.00000000000E+00 -0.00000000000E+00 -0.20803269764E+03  0.20803269764E+03  0.00000000000E+00 0.  1.
         -6    2    1    2    0  503  0.27718591420E+02  0.95224836352E+01 -0.13682933765E+03  0.22454623219E+03  0.17561248459E+03 0.  0.
        -24    2    3    3    0    0  0.20726458545E+02 -0.17362126941E+02 -0.25288277408E+01  0.87322367029E+02  0.82992597731E+02 0.  0.
          6    2    1    2  501    0 -0.27718591420E+02 -0.95224836352E+01  0.25558633244E+03  0.31027615788E+03  0.17345870636E+03 0.  0.
         24    2    5    5    0    0  0.24516764203E+02  0.49094220369E+02  0.15275877127E+03  0.18081555498E+03  0.79672507956E+02 0.  0.
          5    1    5    5  501    0 -0.52235355623E+02 -0.58616704005E+02  0.10282756117E+03  0.12946060289E+03  0.47000000000E+01 0. -1.
        -11    1    6    6    0    0  0.10860592661E+02 -0.38406001786E+01  0.11208751388E+03  0.11267791909E+03  0.00000000000E+00 0.  1.
         12    1    6    6    0    0  0.13656171542E+02  0.52934820548E+02  0.40671257388E+02  0.68137635893E+02  0.00000000000E+00 0. -1.
         -5    1    3    3    0  503  0.69921328746E+01  0.26884610576E+02 -0.13430050991E+03  0.13722386516E+03  0.47000000000E+01 0.  1.
         13    1    4    4    0    0 -0.31297064916E+02 -0.12966227196E+02  0.60519259085E+01  0.34413008111E+02  0.00000000000E+00 0. -1.
        -14    1    4    4    0    0  0.52023523462E+02 -0.43958997454E+01 -0.85807536493E+01  0.52909358918E+02  0.00000000000E+00 0.  1.
</event>
<event>
12    1  0.1629553E-001  0.1801868E+03  0.7818608E-02  0.1168624E+00
         21   -1    0    0  501  502  0.00000000000E+00  0.00000000000E+00  0.25282830492E+03  0.25282830492E+03  0.00000000000E+00 0.  1.
         21   -1    0    0  502  503 -0.00000000000E+00 -0.00000000000E+00 -0.17333004923E+03  0.17333004923E+03  0.00000000000E+00 0.  1.
         -6    2    1    2    0  503 -0.10317126151E+02 -0.41343009383E+02 -0.71829987413E+02  0.19397636072E+03  0.17507596611E+03 0.  0.
        -24    2    3    3    0    0 -0.65372516541E+02 -0.37341758291E+02 -0.87887929366E+01  0.11005146440E+03  0.79787900741E+02 0.  0.
          6    2    1    2  501    0  0.10317126151E+02  0.41343009383E+02  0.15132824310E+03  0.23218199343E+03  0.17085828455E+03 0.  0.
         24    2    5    5    0    0  0.62973987287E+02  0.61998563091E+02  0.11973977752E+03  0.16722571520E+03  0.76271099406E+02 0.  0.
          5    1    5    5  501    0 -0.52656861136E+02 -0.20655553708E+02  0.31588465582E+02  0.64956278231E+02  0.47000000000E+01 0. -1.
        -11    1    6    6    0    0  0.13797136870E+01  0.49923738367E+02  0.31885744629E+02  0.59253556627E+02  0.00000000000E+00 0.  1.
         12    1    6    6    0    0  0.61594273600E+02  0.12074824724E+02  0.87854032890E+02  0.10797215858E+03  0.00000000000E+00 0. -1.
         -5    1    3    3    0  503  0.55055390390E+02 -0.40012510917E+01 -0.63041194477E+02  0.83924896320E+02  0.47000000000E+01 0.  1.
         11    1    4    4    0    0 -0.56307261608E+02 -0.57372548163E+02  0.10159178794E+02  0.81026698725E+02  0.00000000000E+00 0. -1.
        -12    1    4    4    0    0 -0.90652549325E+01  0.20030789872E+02 -0.18947971731E+02  0.29024765677E+02  0.00000000000E+00 0.  1.
</event>
<event>
12    1  0.1629553E-001  0.2022274E+03  0.7818608E-02  0.1147915E+00
         21   -1    0    0  501  502  0.00000000000E+00  0.00000000000E+00  0.23085866757E+03  0.23085866757E+03  0.00000000000E+00 0.  1.
         21   -1    0    0  502  503 -0.00000000000E+00 -0.00000000000E+00 -0.20407293362E+03  0.20407293362E+03  0.00000000000E+00 0.  1.
         -6    2    1    2    0  503  0.10135706923E+03  0.28428246376E+02  0.92648899893E+02  0.22244040484E+03  0.17266874175E+03 0.  0.
        -24    2    3    3    0    0  0.91958624136E+02  0.53858020743E+02  0.12553785763E+03  0.17955943311E+03  0.71587438635E+02 0.  0.
          6    2    1    2  501    0 -0.10135706923E+03 -0.28428246376E+02 -0.65863165944E+02  0.21249119636E+03  0.17243297604E+03 0.  0.
         24    2    5    5    0    0 -0.40051642042E+02  0.28384857118E+02  0.15385520027E+02  0.95831335639E+02  0.80852313016E+02 0.  0.
          5    1    5    5  501    0 -0.61305427193E+02 -0.56813103494E+02 -0.81248685971E+02  0.11665986072E+03  0.47000000000E+01 0. -1.
        -11    1    6    6    0    0 -0.30939492649E+02  0.56279578409E+02  0.39770072851E+01  0.64346404237E+02  0.00000000000E+00 0.  1.
         12    1    6    6    0    0 -0.91121493925E+01 -0.27894721291E+02  0.11408512741E+02  0.31484931403E+02  0.00000000000E+00 0. -1.
         -5    1    3    3    0  503  0.93984450984E+01 -0.25429774367E+02 -0.32888957739E+02  0.42880971721E+02  0.47000000000E+01 0.  1.
         13    1    4    4    0    0 -0.41278886413E+01  0.27994181999E+02  0.21027905841E+02  0.35254595651E+02  0.00000000000E+00 0. -1.
        -14    1    4    4    0    0  0.96086512777E+02  0.25863838744E+02  0.10450995179E+03  0.14430483746E+03  0.00000000000E+00 0.  1.
</event>
<event>
12    1  0.1629553E-001  0.1831354E+03  0.7818608E-02  0.1164988E+00
         21   -1    0    0  501  502  0.00000000000E+00  0.00000000000E+00  0.29069916684E+03  0.29069916684E+03  0.00000000000E+00 0. -1.
         21   -1    0    0  502  503 -0.00000000000E+00 -0.00000000000E+00 -0.25540612227E+03  0.25540612227E+03  0.00000000000E+00 0. -1.
         -6    2    1    2    0  503 -0.39177142759E+02 -0.44923076215E+02 -0.18490861737E+03  0.25970113082E+03  0.17233847301E+03 0.  0.
        -24    2    3    3    0    0 -0.22176377941E+02 -0.95166857446E+02 -0.14811190324E+03  0.19497438420E+03  0.80804406551E+02 0.  0.
          6    2    1    2  501    0  0.39177142759E+02  0.44923076215E+02  0.22020166194E+03  0.28640415829E+03  0.17316361822E+03 0.  0.
         24    2    5    5    0    0  0.53468533886E+02 -0.27182835942E+02  0.16976292015E+03  0.19713118869E+03  0.80271201625E+02 0.  0.
          5    1    5    5  501    0 -0.14291391128E+02  0.72105912157E+02  0.50438741790E+02  0.89272969603E+02  0.47000000000E+01 0. -1.
        -11    1    6    6    0    0  0.65430784260E+02 -0.33584860040E+02  0.90029396021E+02  0.11625154838E+03  0.00000000000E+00 0.  1.
         12    1    6    6    0    0 -0.11962250374E+02  0.64020240982E+01  0.79733524126E+02  0.80879640307E+02  0.00000000000E+00 0. -1.
         -5    1    3    3    0  503 -0.17000764817E+02  0.50243781231E+02 -0.36796714130E+02  0.64726746616E+02  0.47000000000E+01 0.  1.
         13    1    4    4    0    0  0.25907271787E+02 -0.98791486860E+01 -0.44416090474E+02  0.52360036317E+02  0.00000000000E+00 0. -1.
        -14    1    4    4    0    0 -0.48083649728E+02 -0.85287708760E+02 -0.10369581277E+03  0.14261434788E+03  0.00000000000E+00 0.  1.
</event>
<event>
12    1  0.1629553E-001  0.1826924E+03  0.7818608E-02  0.1166043E+00
         21   -1    0    0  503  502  0.00000000000E+00  0.00000000000E+00  0.92244646865E+03  0.92244646865E+03  0.00000000000E+00 0. -1.
         21   -1    0    0  501  503 -0.00000000000E+00 -0.00000000000E+00 -0.53862852600E+02  0.53862852600E+02  0.00000000000E+00 0.  1.
          6    2    1    2  501    0  0.49122524037E+02 -0.11166702725E+02  0.15204266849E+03  0.23768360486E+03  0.17560980998E+03 0.  0.
         24    2    3    3    0    0  0.21144397132E+02  0.43727699793E+02  0.14884138911E+03  0.17580865676E+03  0.79973291921E+02 0.  0.
         -6    2    1    2    0  502 -0.49122524037E+02  0.11166702725E+02  0.71654094756E+03  0.73862571639E+03  0.17204447611E+03 0.  0.
        -24    2    5    5    0    0 -0.50546443784E+02  0.63372600906E+02  0.60647546232E+03  0.61670777516E+03  0.77103592782E+02 0.  0.
          5    1    3    3  501    0  0.27978126905E+02 -0.54894402518E+02  0.32012793790E+01  0.61874948101E+02  0.47000000000E+01 0. -1.
        -11    1    4    4    0    0 -0.25928114802E+02  0.71541074279E+00  0.22706861059E+02  0.34472894988E+02  0.00000000000E+00 0.  1.
         12    1    4    4    0    0  0.47072511934E+02  0.43012289050E+02  0.12613452805E+03  0.14133576177E+03  0.00000000000E+00 0. -1.
         -5    1    5    5    0  502  0.14239197471E+01 -0.52205898181E+02  0.11006548524E+03  0.12191794123E+03  0.47000000000E+01 0.  1.
         11    1    6    6    0    0 -0.63569670394E+02  0.22786762355E+02  0.42222634698E+03  0.42759259537E+03  0.00000000000E+00 0. -1.
        -12    1    6    6    0    0  0.13023226610E+02  0.40585838550E+02  0.18424911534E+03  0.18911517979E+03  0.00000000000E+00 0.  1.
</event>
<event>
12    1  0.1629553E-001  0.2189294E+03  0.7818608E-02  0.1137884E+00
         21   -1    0    0  503  502  0.00000000000E+00  0.00000000000E+00  0.18162607076E+04  0.18162607076E+04  0.00000000000E+00 0. -1.
         21   -1    0    0  501  503 -0.00000000000E+00 -0.00000000000E+00 -0.63070422458E+02  0.63070422458E+02  0.00000000000E+00 0. -1.
          6    2    1    2  501    0 -0.38944468982E+02 -0.10212801980E+03  0.15473280859E+03  0.26809017627E+03  0.18969263682E+03 0.  0.
         24    2    3    3    0    0  0.11407812155E+02 -0.13344661102E+03  0.13337761827E+03  0.20488938097E+03  0.79069167247E+02 0.  0.
         -6    2    1    2    0  502  0.38944468982E+02  0.10212801980E+03  0.15984574766E+04  0.16112409538E+04  0.17054120543E+03 0.  0.
        -24    2    5    5    0    0  0.71617146961E+02  0.39698729254E+02  0.67794172795E+03  0.68802036606E+03  0.84035901653E+02 0.  0.
          5    1    3    3  501    0 -0.50352281137E+02  0.31318591223E+02  0.21355190319E+02  0.63200795291E+02  0.47000000000E+01 0. -1.
        -13    1    4    4    0    0  0.33636882090E+02 -0.27388069317E+02  0.59929566442E+02  0.73980396806E+02  0.00000000000E+00 0.  1.
         14    1    4    4    0    0 -0.22229069934E+02 -0.10605854170E+03  0.73448051830E+02  0.13090898417E+03  0.00000000000E+00 0. -1.
         -5    1    5    5    0  502 -0.32672677979E+02  0.62429290542E+02  0.92051574862E+03  0.92322058776E+03  0.47000000000E+01 0.  1.
         13    1    6    6    0    0  0.76664695776E+02  0.36522883799E+02  0.67659927289E+03  0.68190759836E+03  0.00000000000E+00 0. -1.
        -14    1    6    6    0    0 -0.50475488148E+01  0.31758454552E+01  0.13424550640E+01  0.61127677031E+01  0.00000000000E+00 0.  1.
</event>
<event>
12    1  0.1629553E-001  0.2001251E+03  0.7818608E-02  0.1150499E+00
         21   -1    0    0  503  502  0.00000000000E+00  0.00000000000E+00  0.20487002924E+03  0.20487002924E+03  0.00000000000E+00 0. -1.
         21   -1    0    0  501  503 -0.00000000000E+00 -0.00000000000E+00 -0.19588212523E+03  0.19588212523E+03  0.00000000000E+00 0. -1.
          6    2    1    2  501    0  0.42376382501E+02 -0.81627328157E+02  0.34266069985E+02  0.19903687773E+03  0.17315523858E+03 0.  0.
         24    2    3    3    0    0  0.27898427582E+02 -0.68569722060E+02 -0.45638798125E+02  0.11665368646E+03  0.77749942935E+02 0.  0.
         -6    2    1    2    0  502 -0.42376382501E+02  0.81627328157E+02 -0.25278165978E+02  0.20171527674E+03  0.17773938421E+03 0.  0.
        -24    2    5    5    0    0 -0.36210624917E+02 -0.72542634690E+01  0.34314025626E+02  0.94424675120E+02  0.79841926464E+02 0.  0.
          5    1    3    3  501    0  0.14477954919E+02 -0.13057606097E+02  0.79904868109E+02  0.82383191266E+02  0.47000000000E+01 0. -1.
        -13    1    4    4    0    0 -0.48986487256E+01 -0.68690699092E+02 -0.47731567737E+02  0.83789685880E+02  0.00000000000E+00 0.  1.
         14    1    4    4    0    0  0.32797076308E+02  0.12097703208E+00  0.20927696127E+01  0.32864000585E+02  0.00000000000E+00 0. -1.
         -5    1    5    5    0  502 -0.61657575838E+01  0.88881591626E+02 -0.59592191604E+02  0.10729060162E+03  0.47000000000E+01 0.  1.
         13    1    6    6    0    0 -0.31923615011E-01 -0.85252976412E+01 -0.24177630553E+02  0.25636683447E+02  0.00000000000E+00 0. -1.
        -14    1    6    6    0    0 -0.36178701302E+02  0.12710341723E+01  0.58491656179E+02  0.68787991673E+02  0.00000000000E+00 0.  1.
</event>
<event>
12    1  0.1629553E-001  0.2212944E+03  0.7818608E-02  0.1133201E+00
         21   -1    0    0  503  502  0.00000000000E+00  0.00000000000E+00  0.18387351080E+03  0.18387351080E+03  0.00000000000E+00 0.  1.
         21   -1    0    0  501  503 -0.00000000000E+00 -0.00000000000E+00 -0.26453552205E+03  0.26453552205E+03  0.00000000000E+00 0. -1.
          6    2    1    2  501    0 -0.91854014811E+02 -0.10076575120E+03 -0.39103579440E+02  0.22472269003E+03  0.17429945736E+03 0.  0.
         24    2    3    3    0    0 -0.19660420481E+01 -0.12839736043E+02  0.23373751987E+02  0.84236609824E+02  0.79879596955E+02 0.  0.
         -6    2    1    2    0  502  0.91854014811E+02  0.10076575120E+03 -0.41558431803E+02  0.22368634282E+03  0.17238787677E+03 0.  0.
        -24    2    5    5    0    0 -0.11974597057E+02  0.55410256086E+02 -0.49285820850E+02  0.11002322602E+03  0.80388622781E+02 0.  0.
          5    1    3    3  501    0 -0.89887972763E+02 -0.87926015157E+02 -0.62477331426E+02  0.14048608020E+03  0.47000000000E+01 0. -1.
        -13    1    4    4    0    0  0.59056298220E+01 -0.17614732230E+02 -0.27140529239E+02  0.32890174559E+02  0.00000000000E+00 0.  1.
         14    1    4    4    0    0 -0.78716718701E+01  0.47749961871E+01  0.50514281226E+02  0.51346435265E+02  0.00000000000E+00 0. -1.
         -5    1    5    5    0  502  0.10382861187E+03  0.45355495114E+02  0.77273890469E+01  0.11366311680E+03  0.47000000000E+01 0.  1.
         13    1    6    6    0    0 -0.20559931170E+02 -0.13074442730E+02  0.13778469213E+01  0.24403898962E+02  0.00000000000E+00 0. -1.
        -14    1    6    6    0    0  0.85853341124E+01  0.68484698816E+02 -0.50663667772E+02  0.85619327058E+02  0.00000000000E+00 0.  1.
</event>
<event>
12    1  0.1629553E-001  0.1746338E+03  0.7818608E-02  0.1173973E+00
         21   -1    0    0  501  502  0.00000000000E+00  0.00000000000E+00  0.14620000677E+03  0.14620000677E+03  0.00000000000E+00 0.  1.
         21   -1    0    0  502  503 -0.00000000000E+00 -0.00000000000E+00 -0.21768775502E+03  0.21768775502E+03  0.00000000000E+00 0.  1.
         -6    2    1    2    0  503  0.45821514517E+01  0.20869677785E+02  0.93395817153E+01  0.17145589925E+03  0.16986276237E+03 0.  0.
        -24    2    3    3    0    0 -0.60638704495E+02  0.12151588427E+02 -0.11827200204E+02  0.10217467676E+03  0.80467809233E+02 0.  0.
          6    2    1    2  501    0 -0.45821514517E+01 -0.20869677785E+02 -0.80827329964E+02  0.19243186254E+03  0.17332173808E+03 0.  0.
         24    2    5    5    0    0  0.22739449921E+02 -0.52899746773E+02  0.28192026610E+01  0.98670315835E+02  0.80077571966E+02 0.  0.
          5    1    5    5  501    0 -0.27321601373E+02  0.32030068988E+02 -0.83646532625E+02  0.93761546708E+02  0.47000000000E+01 0. -1.
        -13    1    6    6    0    0  0.22073653736E+00  0.71523287480E+01  0.28648894636E+02  0.29529031393E+02  0.00000000000E+00 0.  1.
         14    1    6    6    0    0  0.22518713383E+02 -0.60052075521E+02 -0.25829691975E+02  0.69141284443E+02  0.00000000000E+00 0. -1.
         -5    1    3    3    0  503  0.65220855947E+02  0.87180893587E+01  0.21166781919E+02  0.69281222487E+02  0.47000000000E+01 0.  1.
         11    1    4    4    0    0  0.85645992921E+01  0.13946456337E+02  0.20116762212E+02  0.25933378632E+02  0.00000000000E+00 0. -1.
        -12    1    4    4    0    0 -0.69203303787E+02 -0.17948679101E+01 -0.31943962416E+02  0.76241298131E+02  0.00000000000E+00 0.  1.
</event>
<event>
12    1  0.1629553E-001  0.1767326E+03  0.7818608E-02  0.1171445E+00
         21   -1    0    0  503  502  0.00000000000E+00  0.00000000000E+00  0.92704125355E+03  0.92704125355E+03  0.00000000000E+00 0. -1.
         21   -1    0    0  501  503 -0.00000000000E+00 -0.00000000000E+00 -0.37393115296E+02  0.37393115296E+02  0.00000000000E+00 0. -1.
          6    2    1    2  501    0 -0.37652757117E+02 -0.66778360137E+01  0.28836775973E+03  0.33821647314E+03  0.17254591922E+03 0.  0.
         24    2    3    3    0    0  0.95629593443E+01  0.19938218356E+02  0.26682002033E+03  0.27970037874E+03  0.80934515954E+02 0.  0.
         -6    2    1    2    0  502  0.37652757117E+02  0.66778360137E+01  0.60128037853E+03  0.62621789571E+03  0.17072912959E+03 0.  0.
        -24    2    5    5    0    0  0.73718277356E+02 -0.30762329850E+02  0.50061312787E+03  0.51282268803E+03  0.77413824389E+02 0.  0.
          5    1    3    3  501    0 -0.47215716461E+02 -0.26616054370E+02  0.21547739397E+02  0.58516094404E+02  0.47000000000E+01 0. -1.
        -13    1    4    4    0    0 -0.15815661487E+02  0.15723237456E+02  0.15717920878E+02  0.27283848355E+02  0.00000000000E+00 0.  1.
         14    1    4    4    0    0  0.25378620831E+02  0.42149809006E+01  0.25110209945E+03  0.25241653038E+03  0.00000000000E+00 0. -1.
         -5    1    5    5    0  502 -0.36065520239E+02  0.37440165863E+02  0.10066725066E+03  0.11339520768E+03  0.47000000000E+01 0.  1.
         13    1    6    6    0    0  0.31390618142E+02  0.22072396826E+02  0.11289658531E+03  0.11924009638E+03  0.00000000000E+00 0. -1.
        -14    1    6    6    0    0  0.42327659213E+02 -0.52834726675E+02  0.38771654256E+03  0.39358259165E+03  0.00000000000E+00 0.  1.
</event>
<event>
12    1  0.1629553E-001  0.1897306E+03  0.7818608E-02  0.1159296E+00
         21   -1    0    0  501  502  0.00000000000E+00  0.00000000000E+00  0.69819880691E+03  0.69819880691E+03  0.00000000000E+00 0.  1.
         21   -1    0    0  502  503 -0.00000000000E+00 -0.00000000000E+00 -0.29193737195E+03  0.29193737195E+03  0.00000000000E+00 0.  1.
         -6    2    1    2    0  503 -0.76107600435E+02 -0.18412592399E+02 -0.24699926031E+03  0.30988089384E+03  0.16995924032E+03 0.  0.
        -24    2    3    3    0    0 -0.49364110013E+02 -0.28803622076E+02 -0.47967104643E+02  0.10873647615E+03  0.79096865401E+02 0.  0.
          6    2    1    2  501    0  0.76107600435E+02  0.18412592399E+02  0.65326069526E+03  0.68025528502E+03  0.17281876756E+03 0.  0.
         24    2    5    5    0    0 -0.13960502646E+02  0.39173351133E+02  0.34177256696E+03  0.35530880271E+03  0.87786164518E+02 0.  0.
          5    1    5    5  501    0  0.90068103081E+02 -0.20760758735E+02  0.31148812830E+03  0.32494648232E+03  0.47000000000E+01 0. -1.
        -13    1    6    6    0    0  0.20246291052E+02  0.54582481334E+02  0.23618438530E+03  0.24325341401E+03  0.00000000000E+00 0.  1.
         14    1    6    6    0    0 -0.34206793698E+02 -0.15409130201E+02  0.10558818166E+03  0.11205538870E+03  0.00000000000E+00 0. -1.
         -5    1    3    3    0  503 -0.26743490421E+02  0.10391029677E+02 -0.19903215567E+03  0.20114441769E+03  0.47000000000E+01 0.  1.
         13    1    4    4    0    0 -0.68521323487E+02 -0.12638875387E+02 -0.46212523412E+02  0.83609271397E+02  0.00000000000E+00 0. -1.
        -14    1    4    4    0    0  0.19157213473E+02 -0.16164746689E+02 -0.17545812317E+01  0.25127204757E+02  0.00000000000E+00 0.  1.
</event>
<event>
12    1  0.1629553E-001  0.3249522E+03  0.7818608E-02  0.1073412E+00
         21   -1    0    0  501  502  0.00000000000E+00  0.00000000000E+00  0.62160976001E+03  0.62160976001E+03  0.00000000000E+00 0.  1.
         21   -1    0    0  502  503 -0.00000000000E+00 -0.00000000000E+00 -0.19673852652E+03  0.19673852652E+03  0.00000000000E+00 0. -1.
         -6    2    1    2    0  503  0.19404076151E+03  0.19602235881E+03  0.60927246481E+02  0.33044548405E+03  0.17148033791E+03 0.  0.
        -24    2    3    3    0    0  0.10125047996E+03  0.25743403693E+02  0.18716887895E+02  0.13192907850E+03  0.78361835955E+02 0.  0.
          6    2    1    2  501    0 -0.19404076151E+03 -0.19602235881E+03  0.36394398701E+03  0.48790280248E+03  0.17180610207E+03 0.  0.
         24    2    5    5    0    0 -0.13641045519E+03 -0.20223454851E+03  0.33490463495E+03  0.42290112961E+03  0.84720871226E+02 0.  0.
          5    1    5    5  501    0 -0.57630306315E+02  0.62121897076E+01  0.29039352059E+02  0.65001672863E+02  0.47000000000E+01 0. -1.
        -11    1    6    6    0    0 -0.71076631046E+01 -0.73674950021E+02  0.74609697765E+02  0.10509578553E+03  0.00000000000E+00 0.  1.
         12    1    6    6    0    0 -0.12930279209E+03 -0.12855959849E+03  0.26029493718E+03  0.31780534409E+03  0.00000000000E+00 0. -1.
         -5    1    3    3    0  503  0.92790281542E+02  0.17027895511E+03  0.42210358587E+02  0.19851640556E+03  0.47000000000E+01 0.  1.
         11    1    4    4    0    0  0.87901491613E+02  0.10092710030E+02  0.44423844377E+02  0.99005115892E+02  0.00000000000E+00 0. -1.
        -12    1    4    4    0    0  0.13348988352E+02  0.15650693663E+02 -0.25706956482E+02  0.32923962607E+02  0.00000000000E+00 0.  1.
</event>
<event>
12    1  0.1629553E-001  0.1822114E+03  0.7818608E-02  0.1166097E+00
         21   -1    0    0  503  502  0.00000000000E+00  0.00000000000E+00  0.14076323857E+03  0.14076323857E+03  0.00000000000E+00 0. -1.
         21   -1    0    0  501  503 -0.00000000000E+00 -0.00000000000E+00 -0.56114965338E+03  0.56114965338E+03  0.00000000000E+00 0. -1.
          6    2    1    2  501    0 -0.45607339374E+02  0.34100850959E+02 -0.47874008041E+03  0.51224317188E+03  0.17308409837E+03 0.  0.
         24    2    3    3    0    0 -0.38075395916E+01 -0.29420453116E+02 -0.14255957624E+03  0.16753807949E+03  0.82859609485E+02 0.  0.
         -6    2    1    2    0  502  0.45607339374E+02 -0.34100850959E+02  0.58353665601E+02  0.18966972006E+03  0.17124997804E+03 0.  0.
        -24    2    5    5    0    0  0.91610166155E+02 -0.42810862760E+02  0.59347478805E+02  0.14260378714E+03  0.81169725592E+02 0.  0.
          5    1    3    3  501    0 -0.41799799782E+02  0.63521304075E+02 -0.33618050417E+03  0.34470509239E+03  0.47000000000E+01 0. -1.
        -11    1    4    4    0    0 -0.13178806645E+02 -0.34184304208E+02 -0.15016061791E+03  0.15456538672E+03  0.00000000000E+00 0.  1.
         12    1    4    4    0    0  0.93712670533E+01  0.47638510919E+01  0.76010416734E+01  0.12972692779E+02  0.00000000000E+00 0. -1.
         -5    1    5    5    0  502 -0.46002826781E+02  0.87100118012E+01 -0.99381320402E+00  0.47065932925E+02  0.47000000000E+01 0.  1.
         13    1    6    6    0    0  0.14096263938E+02 -0.21690771199E+02  0.56583649586E+02  0.62216586315E+02  0.00000000000E+00 0. -1.
        -14    1    6    6    0    0  0.77513902217E+02 -0.21120091560E+02  0.27638292192E+01  0.80387200824E+02  0.00000000000E+00 0.  1.
</event>
<event>
12    1  0.1629553E-001  0.1902760E+03  0.7818608E-02  0.1159089E+00
         21   -1    0    0  503  502  0.00000000000E+00  0.00000000000E+00  0.40428539619E+03  0.40428539619E+03  0.00000000000E+00 0.  1.
         21   -1    0    0  501  503 -0.00000000000E+00 -0.00000000000E+00 -0.25574797838E+03  0.25574797838E+03  0.00000000000E+00 0.  1.
          6    2    1    2  501    0 -0.21495285848E+02 -0.69583985748E+02 -0.19294057367E+03  0.27098157112E+03  0.17578671318E+03 0.  0.
         24    2    3    3    0    0  0.19984339645E+02 -0.22381656870E+02 -0.19065019097E+03  0.20792639659E+03  0.77366521730E+02 0.  0.
         -6    2    1    2    0  502  0.21495285848E+02  0.69583985748E+02  0.34147799148E+03  0.38905180344E+03  0.17161033975E+03 0.  0.
        -24    2    5    5    0    0  0.38036556081E+02 -0.98696858905E+00  0.28206072964E+03  0.29520951968E+03  0.78375070022E+02 0.  0.
          5    1    3    3  501    0 -0.41479625493E+02 -0.47202328878E+02 -0.22903826985E+01  0.63055174533E+02  0.47000000000E+01 0. -1.
        -11    1    4    4    0    0  0.36637229840E+02 -0.38959144263E+02 -0.91072815005E+02  0.10561419964E+03  0.00000000000E+00 0.  1.
         12    1    4    4    0    0 -0.16652890195E+02  0.16577487393E+02 -0.99577375969E+02  0.10231219695E+03  0.00000000000E+00 0. -1.
         -5    1    5    5    0  502 -0.16541270233E+02  0.70570954337E+02  0.59417261846E+02  0.93842283765E+02  0.47000000000E+01 0.  1.
         11    1    6    6    0    0  0.15988146982E+02  0.16329574267E+01  0.44004332421E+01  0.16662869099E+02  0.00000000000E+00 0. -1.
        -12    1    6    6    0    0  0.22048409098E+02 -0.26199260158E+01  0.27766029639E+03  0.27854665058E+03  0.00000000000E+00 0.  1.
</event>
<event>
12    1  0.1629553E-001  0.2272062E+03  0.7818608E-02  0.1130633E+00
         21   -1    0    0  503  502  0.00000000000E+00  0.00000000000E+00  0.11825086037E+03  0.11825086037E+03  0.00000000000E+00 0.  1.
         21   -1    0    0  501  503 -0.00000000000E+00 -0.00000000000E+00 -0.56051717943E+03  0.56051717943E+03  0.00000000000E+00 0.  1.
          6    2    1    2  501    0 -0.13122634026E+03  0.15319381992E+02 -0.38951735103E+03  0.44551902236E+03  0.17119695292E+03 0.  0.
         24    2    3    3    0    0 -0.62275823105E+01  0.33671339070E+02 -0.24120158299E+03  0.25063151412E+03  0.58867736313E+02 0.  0.
         -6    2    1    2    0  502  0.13122634026E+03 -0.15319381992E+02 -0.52748968024E+02  0.23324901744E+03  0.18484483944E+03 0.  0.
        -24    2    5    5    0    0 -0.69405880680E+01  0.21212162117E+02 -0.27672654150E+02  0.88074758993E+02  0.80580765693E+02 0.  0.
          5    1    3    3  501    0 -0.12499875795E+03 -0.18351957078E+02 -0.14831576804E+03  0.19488750823E+03  0.47000000000E+01 0. -1.
        -11    1    4    4    0    0  0.17659532521E+02 -0.62164541099E+01 -0.10647073084E+03  0.10810420860E+03  0.00000000000E+00 0.  1.
         12    1    4    4    0    0 -0.23887114832E+02  0.39887793179E+02 -0.13473085215E+03  0.14252730552E+03  0.00000000000E+00 0. -1.
         -5    1    5    5    0  502  0.13816692833E+03 -0.36531544109E+02 -0.25076313874E+02  0.14517425845E+03  0.47000000000E+01 0.  1.
         11    1    6    6    0    0  0.41649265110E+01  0.30172140467E+02 -0.51772438945E+02  0.60067379729E+02  0.00000000000E+00 0. -1.
        -12    1    6    6    0    0 -0.11105514579E+02 -0.89599783495E+01  0.24099784795E+02  0.28007379264E+02  0.00000000000E+00 0.  1.
</event>
<event>
12    1  0.1629553E-001  0.2017851E+03  0.7818608E-02  0.1148739E+00
         21   -1    0    0  501  502  0.00000000000E+00  0.00000000000E+00  0.81466221036E+02  0.81466221036E+02  0.00000000000E+00 0.  1.
         21   -1    0    0  502  503 -0.00000000000E+00 -0.00000000000E+00 -0.95836126792E+03  0.95836126792E+03  0.00000000000E+00 0.  1.
         -6    2    1    2    0  503 -0.67506671730E+01  0.99684475756E+02 -0.80170335097E+03  0.82670761799E+03  0.17531302422E+03 0.  0.
        -24    2    3    3    0    0 -0.27518487621E+01 -0.20373292277E+02 -0.33429616435E+03  0.34408827904E+03  0.78868083322E+02 0.  0.
          6    2    1    2  501    0  0.67506671730E+01 -0.99684475756E+02 -0.75191695912E+02  0.21311987097E+03  0.17257961077E+03 0.  0.
         24    2    5    5    0    0  0.46530897839E+02 -0.10141047856E+03 -0.96763226989E+02  0.16759112411E+03  0.79211445944E+02 0.  0.
          5    1    5    5  501    0 -0.39780230666E+02  0.17260028022E+01  0.21571531077E+02  0.45528746858E+02  0.47000000000E+01 0. -1.
        -13    1    6    6    0    0 -0.21354509018E+02 -0.38205843453E+02 -0.25820626875E+02  0.50817381884E+02  0.00000000000E+00 0.  1.
         14    1    6    6    0    0  0.67885406857E+02 -0.63204635105E+02 -0.70942600114E+02  0.11677374223E+03  0.00000000000E+00 0. -1.
         -5    1    3    3    0  503 -0.39988184109E+01  0.12005776803E+03 -0.46740718663E+03  0.48261933895E+03  0.47000000000E+01 0.  1.
         13    1    4    4    0    0  0.30297496687E+01 -0.10141138192E+02 -0.10511816752E+01  0.10636120054E+02  0.00000000000E+00 0. -1.
        -14    1    4    4    0    0 -0.57815984308E+01 -0.10232154084E+02 -0.33324498267E+03  0.33345215899E+03  0.00000000000E+00 0.  1.
</event>
<event>
12    1  0.1629553E-001  0.1820768E+03  0.7818608E-02  0.1166315E+00
         21   -1    0    0  501  502  0.00000000000E+00  0.00000000000E+00  0.15297489445E+02  0.15297489445E+02  0.00000000000E+00 0.  1.
         21   -1    0    0  502  503 -0.00000000000E+00 -0.00000000000E+00 -0.22860637235E+04  0.22860637235E+04  0.00000000000E+00 0. -1.
         -6    2    1    2    0  503 -0.29370076016E+02 -0.43026962417E+02 -0.85281020948E+03  0.87203050694E+03  0.17446498441E+03 0.  0.
        -24    2    3    3    0    0 -0.60108957436E+02 -0.36328035404E+01 -0.75874218465E+03  0.76541126909E+03  0.80860522246E+02 0.  0.
          6    2    1    2  501    0  0.29370076016E+02  0.43026962417E+02 -0.14179560246E+04  0.14293307060E+04  0.17225869683E+03 0.  0.
         24    2    5    5    0    0 -0.26154949450E+02 -0.24570982570E+02 -0.50678855302E+03  0.51396151172E+03  0.77678719698E+02 0.  0.
          5    1    5    5  501    0  0.55525025466E+02  0.67597944987E+02 -0.91116747158E+03  0.91536919431E+03  0.47000000000E+01 0. -1.
        -11    1    6    6    0    0 -0.18951607480E+02  0.72924733162E+01 -0.31036314445E+02  0.37089033520E+02  0.00000000000E+00 0.  1.
         12    1    6    6    0    0 -0.72033419693E+01 -0.31863455886E+02 -0.47575223858E+03  0.47687247820E+03  0.00000000000E+00 0. -1.
         -5    1    3    3    0  503  0.30738881420E+02 -0.39394158876E+02 -0.94068024824E+02  0.10661923785E+03  0.47000000000E+01 0.  1.
         13    1    4    4    0    0  0.16643500775E+02  0.19145507307E+01 -0.28210975587E+03  0.28260676917E+03  0.00000000000E+00 0. -1.
        -14    1    4    4    0    0 -0.76752458211E+02 -0.55473542711E+01 -0.47663242878E+03  0.48280449993E+03  0.00000000000E+00 0.  1.
</event>
<event>
12    1  0.1629553E-001  0.2545188E+03  0.7818608E-02  0.1110496E+00
         21   -1    0    0  501  502  0.00000000000E+00  0.00000000000E+00  0.13614443664E+04  0.13614443664E+04  0.00000000000E+00 0. -1.
         21   -1    0    0  502  503 -0.00000000000E+00 -0.00000000000E+00 -0.50005775058E+02  0.50005775058E+02  0.00000000000E+00 0.  1.
         -6    2    1    2    0  503 -0.18184714929E+03  0.42981971236E+02  0.49966236491E+03  0.56070901918E+03  0.17267394049E+03 0.  0.
        -24    2    3    3    0    0 -0.10331757610E+03 -0.19648937658E+02  0.16980676923E+03  0.21586654990E+03  0.81874453941E+02 0.  0.
          6    2    1    2  501    0  0.18184714929E+03 -0.42981971236E+02  0.81177622641E+03  0.85074112226E+03  0.17281197813E+03 0.  0.
         24    2    5    5    0    0  0.28764629186E+02 -0.37518310149E+02  0.20936030746E+03  0.22913743907E+03  0.80232164092E+02 0.  0.
          5    1    5    5  501    0  0.15308252010E+03 -0.54636610871E+01  0.60241591895E+03  0.62160368319E+03  0.47000000000E+01 0. -1.
        -11    1    6    6    0    0  0.55369904756E+02 -0.13838909424E+02  0.13944814192E+03  0.15067556554E+03  0.00000000000E+00 0.  1.
         12    1    6    6    0    0 -0.26605275570E+02 -0.23679400725E+02  0.69912165541E+02  0.78461873527E+02  0.00000000000E+00 0. -1.
         -5    1    3    3    0  503 -0.78529573190E+02  0.62630908894E+02  0.32985559569E+03  0.34484246928E+03  0.47000000000E+01 0.  1.
         11    1    4    4    0    0 -0.44982481117E+02  0.13480141249E+02  0.12915036885E+03  0.13742254396E+03  0.00000000000E+00 0. -1.
        -12    1    4    4    0    0 -0.58335094979E+02 -0.33129078906E+02  0.40656400377E+02  0.78444005934E+02  0.00000000000E+00 0.  1.
</event>
<event>
12    1  0.1629553E-001  0.3503050E+03  0.7818608E-02  0.1062514E+00
         21   -1    0    0  501  502  0.00000000000E+00  0.00000000000E+00  0.10914743511E+04  0.10914743511E+04  0.00000000000E+00 0. -1.
         21   -1    0    0  502  503 -0.00000000000E+00 -0.00000000000E+00 -0.13184376189E+03  0.13184376189E+03  0.00000000000E+00 0.  1.
         -6    2    1    2    0  503 -0.28095372377E+03  0.11926991534E+03  0.24450417471E+03  0.42700198048E+03  0.17142955487E+03 0.  0.
        -24    2    3    3    0    0 -0.53503420496E+02  0.35240441668E+02  0.11426262119E+03  0.15172113268E+03  0.76543130113E+02 0.  0.
          6    2    1    2  501    0  0.28095372377E+03 -0.11926991534E+03  0.71512641455E+03  0.79631613255E+03  0.17191069361E+03 0.  0.
         24    2    5    5    0    0  0.15911093045E+03 -0.66745089889E+02  0.26135782903E+03  0.32352384965E+03  0.81170014679E+02 0.  0.
          5    1    5    5  501    0  0.12184279332E+03 -0.52524825456E+02  0.45376858552E+03  0.47279228291E+03  0.47000000000E+01 0. -1.
        -11    1    6    6    0    0  0.32931457366E+02 -0.49098374240E+02  0.53541331563E+02  0.79760926667E+02  0.00000000000E+00 0.  1.
         12    1    6    6    0    0  0.12617947308E+03 -0.17646715649E+02  0.20781649747E+03  0.24376292298E+03  0.00000000000E+00 0. -1.
         -5    1    3    3    0  503 -0.22745030327E+03  0.84029473676E+02  0.13024155353E+03  0.27528084781E+03  0.47000000000E+01 0.  1.
         11    1    4    4    0    0 -0.23623585722E+02 -0.23521736286E+02  0.46149581075E+02  0.56930920541E+02  0.00000000000E+00 0. -1.
        -12    1    4    4    0    0 -0.29879834774E+02  0.58762177954E+02  0.68113040111E+02  0.94790212139E+02  0.00000000000E+00 0.  1.
</event>
<event>
12    1  0.1629553E-001  0.2013192E+03  0.7818608E-02  0.1149576E+00
         21   -1    0    0  503  502  0.00000000000E+00  0.00000000000E+00  0.10975391506E+03  0.10975391506E+03  0.00000000000E+00 0.  1.
         21   -1    0    0  501  503 -0.00000000000E+00 -0.00000000000E+00 -0.38528446166E+03  0.38528446166E+03  0.00000000000E+00 0.  1.
          6    2    1    2  501    0 -0.84183122486E+02  0.46454460520E+02 -0.19828872123E+03  0.27940970726E+03  0.17177471447E+03 0.  0.
         24    2    3    3    0    0 -0.98409991839E+02  0.17898615301E+02 -0.78155368219E+02  0.15502340330E+03  0.88989364898E+02 0.  0.
         -6    2    1    2    0  502  0.84183122486E+02 -0.46454460520E+02 -0.77241825374E+02  0.21562866947E+03  0.17687455582E+03 0.  0.
        -24    2    5    5    0    0  0.94931787102E+02 -0.91709042044E+01 -0.10898066822E+03  0.16527947376E+03  0.79651545590E+02 0.  0.
          5    1    3    3  501    0  0.14226869353E+02  0.28555845219E+02 -0.12013335301E+03  0.12438630396E+03  0.47000000000E+01 0. -1.
        -13    1    4    4    0    0 -0.83478671004E+02  0.50590200749E+02 -0.61852868018E+02  0.11555879113E+03  0.00000000000E+00 0.  1.
         14    1    4    4    0    0 -0.14931320835E+02 -0.32691585449E+02 -0.16302500201E+02  0.39464612171E+02  0.00000000000E+00 0. -1.
         -5    1    5    5    0  502 -0.10748664616E+02 -0.37283556315E+02  0.31738842850E+02  0.50349195703E+02  0.47000000000E+01 0.  1.
         13    1    6    6    0    0  0.24181429811E+02 -0.31669108271E+02 -0.72110365083E+02  0.82386763007E+02  0.00000000000E+00 0. -1.
        -14    1    6    6    0    0  0.70750357290E+02  0.22498204066E+02 -0.36870303141E+02  0.82892710757E+02  0.00000000000E+00 0.  1.
</event>
<event>
12    1  0.1629553E-001  0.1769916E+03  0.7818608E-02  0.1171154E+00
         21   -1    0    0  503  502  0.00000000000E+00  0.00000000000E+00  0.48990677882E+02  0.48990677882E+02  0.00000000000E+00 0.  1.
         21   -1    0    0  501  503 -0.00000000000E+00 -0.00000000000E+00 -0.11171791786E+04  0.11171791786E+04  0.00000000000E+00 0.  1.
          6    2    1    2  501    0  0.19317626361E+02  0.32582646138E+02 -0.91915574947E+03  0.93604129880E+03  0.17289077987E+03 0.  0.
         24    2    3    3    0    0  0.67878910646E+02 -0.20474358354E+01 -0.73318303274E+03  0.74068167586E+03  0.80251149224E+02 0.  0.
         -6    2    1    2    0  502 -0.19317626361E+02 -0.32582646138E+02 -0.14903275121E+03  0.23012855764E+03  0.17121212746E+03 0.  0.
        -24    2    5    5    0    0 -0.60386696796E+01 -0.63589117154E+02 -0.16421402786E+03  0.19284192336E+03  0.78369120863E+02 0.  0.
          5    1    3    3  501    0 -0.48561284286E+02  0.34630081973E+02 -0.18597271673E+03  0.19535962294E+03  0.47000000000E+01 0. -1.
        -11    1    4    4    0    0  0.19233401677E+02 -0.55579535332E+01 -0.57035236339E+03  0.57070362975E+03  0.00000000000E+00 0.  1.
         12    1    4    4    0    0  0.48645508970E+02  0.35105176978E+01 -0.16283066935E+03  0.16997804610E+03  0.00000000000E+00 0. -1.
         -5    1    5    5    0  502 -0.13278956681E+02  0.31006471016E+02  0.15181276653E+02  0.37286634284E+02  0.47000000000E+01 0.  1.
         13    1    6    6    0    0 -0.39415345752E+02 -0.43700390144E+02 -0.12210507129E+03  0.13554682591E+03  0.00000000000E+00 0. -1.
        -14    1    6    6    0    0  0.33376676072E+02 -0.19888727010E+02 -0.42108956572E+02  0.57295097446E+02  0.00000000000E+00 0.  1.
</event>
<event>
12    1  0.1629553E-001  0.1840438E+03  0.7818608E-02  0.1163954E+00
         21   -1    0    0  503  502  0.00000000000E+00  0.00000000000E+00  0.12065052406E+03  0.12065052406E+03  0.00000000000E+00 0.  1.
         21   -1    0    0  501  503 -0.00000000000E+00 -0.00000000000E+00 -0.59690648898E+03  0.59690648898E+03  0.00000000000E+00 0.  1.
          6    2    1    2  501    0  0.50867251989E+02  0.40424298159E+02 -0.49927217177E+03  0.53211353204E+03  0.17219322945E+03 0.  0.
         24    2    3    3    0    0  0.73192766031E+02  0.32000679527E+02 -0.49501108860E+03  0.50742278969E+03  0.77850402481E+02 0.  0.
         -6    2    1    2    0  502 -0.50867251989E+02 -0.40424298159E+02  0.23016206856E+02  0.18544348100E+03  0.17215672412E+03 0.  0.
        -24    2    5    5    0    0 -0.78349730822E+02 -0.58308103208E+02 -0.23877801394E+02  0.12803045865E+03  0.79266220568E+02 0.  0.
          5    1    3    3  501    0 -0.22325514041E+02  0.84236186313E+01 -0.42610831681E+01  0.24690742351E+02  0.47000000000E+01 0. -1.
        -13    1    4    4    0    0 -0.92143064400E+01  0.25872918711E+02 -0.16203872607E+03  0.16434981020E+03  0.00000000000E+00 0.  1.
         14    1    4    4    0    0  0.82407072471E+02  0.61277608163E+01 -0.33297236253E+03  0.34307297949E+03  0.00000000000E+00 0. -1.
         -5    1    5    5    0  502  0.27482478833E+02  0.17883805050E+02  0.46894008249E+02  0.57413022351E+02  0.47000000000E+01 0.  1.
         13    1    6    6    0    0 -0.15765117522E+02 -0.61131550121E+02 -0.12508886592E+02  0.64358974467E+02  0.00000000000E+00 0. -1.
        -14    1    6    6    0    0 -0.62584613300E+02  0.28234469125E+01 -0.11368914802E+02  0.63671484183E+02  0.00000000000E+00 0.  1.
</event>
<event>
12    1  0.1629553E-001  0.2013213E+03  0.7818608E-02  0.1148739E+00
         21   -1    0    0  501  502  0.00000000000E+00  0.00000000000E+00  0.14223713394E+03  0.14223713394E+03  0.00000000000E+00 0. -1.
         21   -1    0    0  502  503 -0.00000000000E+00 -0.00000000000E+00 -0.44281258714E+03  0.44281258714E+03  0.00000000000E+00 0.  1.
         -6    2    1    2    0  503 -0.67727171890E+02  0.75802605988E+02 -0.32523168682E+03  0.38222417420E+03  0.17316657976E+03 0.  0.
        -24    2    3    3    0    0 -0.85220115409E+02  0.77094252381E+02 -0.14629429464E+03  0.20236769880E+03  0.79653455995E+02 0.  0.
          6    2    1    2  501    0  0.67727171890E+02 -0.75802605988E+02  0.24656233622E+02  0.20282554688E+03  0.17377361055E+03 0.  0.
         24    2    5    5    0    0  0.46519464709E+02 -0.65276410683E+02 -0.50500344304E+02  0.12388779395E+03  0.79830008941E+02 0.  0.
          5    1    5    5  501    0  0.21207707181E+02 -0.10526195305E+02  0.75156577927E+02  0.78937752927E+02  0.47000000000E+01 0. -1.
        -13    1    6    6    0    0  0.57686116837E+02 -0.12966810744E+02 -0.32394029901E+02  0.67418094231E+02  0.00000000000E+00 0.  1.
         14    1    6    6    0    0 -0.11166652127E+02 -0.52309599939E+02 -0.18106314404E+02  0.56469699723E+02  0.00000000000E+00 0. -1.
         -5    1    3    3    0  503  0.17492943519E+02 -0.12916463932E+01 -0.17893739219E+03  0.17985647541E+03  0.47000000000E+01 0.  1.
         13    1    4    4    0    0 -0.11636670745E+01 -0.52383429815E+01  0.71907475487E+01  0.89722465727E+01  0.00000000000E+00 0. -1.
        -14    1    4    4    0    0 -0.84056448335E+02  0.82332595363E+02 -0.15348504219E+03  0.19339545222E+03  0.00000000000E+00 0.  1.
</event>
<event>
12    1  0.1629553E-001  0.2474054E+03  0.7818608E-02  0.1115796E+00
         21   -1    0    0  501  502  0.00000000000E+00  0.00000000000E+00  0.47605337804E+03  0.47605337804E+03  0.00000000000E+00 0.  1.
         21   -1    0    0  502  503 -0.00000000000E+00 -0.00000000000E+00 -0.17615858801E+03  0.17615858801E+03  0.00000000000E+00 0.  1.
         -6    2    1    2    0  503  0.39023737873E+01 -0.17173210969E+03 -0.25375143071E+02  0.24354345568E+03  0.17076993558E+03 0.  0.
        -24    2    3    3    0    0 -0.39775910762E+02 -0.53778936094E+02 -0.44927125922E+02  0.11616561720E+03  0.83676202900E+02 0.  0.
          6    2    1    2  501    0 -0.39023737873E+01  0.17173210969E+03  0.32526993310E+03  0.40866851038E+03  0.17805132961E+03 0.  0.
         24    2    5    5    0    0 -0.69159183790E+02  0.13586854432E+03  0.24224032650E+03  0.29704121916E+03  0.79434602396E+02 0.  0.
          5    1    5    5  501    0  0.65256810003E+02  0.35863565362E+02  0.83029606599E+02  0.11162729122E+03  0.47000000000E+01 0. -1.
        -13    1    6    6    0    0  0.12251302411E+02  0.38043268063E+02  0.90914007810E+02  0.99311336068E+02  0.00000000000E+00 0.  1.
         14    1    6    6    0    0 -0.81410486201E+02  0.97825276260E+02  0.15132631869E+03  0.19772988309E+03  0.00000000000E+00 0. -1.
         -5    1    3    3    0  503  0.43678284549E+02 -0.11795317359E+03  0.19551982851E+02  0.12737783848E+03  0.47000000000E+01 0.  1.
         13    1    4    4    0    0 -0.58860556410E+01  0.34265665844E+01 -0.49075442556E+02  0.49545797719E+02  0.00000000000E+00 0. -1.
        -14    1    4    4    0    0 -0.33889855121E+02 -0.57205502679E+02  0.41483166346E+01  0.66619819481E+02  0.00000000000E+00 0.  1.
</event>
<event>
12    1  0.1629553E-001  0.2077563E+03  0.7818608E-02  0.1144038E+00
         21   -1    0    0  503  502  0.00000000000E+00  0.00000000000E+00  0.34236738775E+03  0.34236738775E+03  0.00000000000E+00 0. -1.
         21   -1    0    0  501  503 -0.00000000000E+00 -0.00000000000E+00 -0.12536035480E+03  0.12536035480E+03  0.00000000000E+00 0. -1.
          6    2    1    2  501    0  0.72441831184E+02  0.84321569658E+02  0.85333867959E+02  0.22459860760E+03  0.17551273316E+03 0.  0.
         24    2    3    3    0    0  0.21564173096E+02  0.18882179273E+02 -0.23583318731E+02  0.87646450034E+02  0.79398847761E+02 0.  0.
         -6    2    1    2    0  502 -0.72441831184E+02 -0.84321569658E+02  0.13167316499E+03  0.24312913494E+03  0.17151095552E+03 0.  0.
        -24    2    5    5    0    0 -0.49787386514E+01 -0.10176949402E+03  0.59196639429E+02  0.14247807595E+03  0.80087091684E+02 0.  0.
          5    1    3    3  501    0  0.50877658088E+02  0.65439390385E+02  0.10891718669E+03  0.13695215757E+03  0.47000000000E+01 0. -1.
        -13    1    4    4    0    0  0.34543603047E+02  0.19655426140E+02  0.18326527846E+02  0.43765944650E+02  0.00000000000E+00 0.  1.
         14    1    4    4    0    0 -0.12979429951E+02 -0.77324686693E+00 -0.41909846577E+02  0.43880505384E+02  0.00000000000E+00 0. -1.
         -5    1    5    5    0  502 -0.67463092533E+02  0.17447924364E+02  0.72476525560E+02  0.10065105899E+03  0.47000000000E+01 0.  1.
         11    1    6    6    0    0 -0.34330096750E+02 -0.87276378090E+02  0.56825082491E+02  0.10965770249E+03  0.00000000000E+00 0. -1.
        -12    1    6    6    0    0  0.29351358098E+02 -0.14493115932E+02  0.23715569377E+01  0.32820373458E+02  0.00000000000E+00 0.  1.
</event>
<event>
12    1  0.1629553E-001  0.1788563E+03  0.7818608E-02  0.1169801E+00
         21   -1    0    0  501  502  0.00000000000E+00  0.00000000000E+00  0.21708107512E+03  0.21708107512E+03  0.00000000000E+00 0.  1.
         21   -1    0    0  502  503 -0.00000000000E+00 -0.00000000000E+00 -0.15781636680E+03  0.15781636680E+03  0.00000000000E+00 0.  1.
         -6    2    1    2    0  503 -0.34668439586E+02  0.33904168346E+02 -0.24712918812E+02  0.18055553908E+03  0.17215743086E+03 0.  0.
        -24    2    3    3    0    0 -0.11846364947E+02 -0.31139631553E+02 -0.58719003768E+02  0.10354874191E+03  0.78513741041E+02 0.  0.
          6    2    1    2  501    0  0.34668439586E+02 -0.33904168346E+02  0.83977627141E+02  0.19434190284E+03  0.16841953570E+03 0.  0.
         24    2    5    5    0    0 -0.35700139619E+02 -0.39834619862E+02  0.17986859290E+02  0.97575283409E+02  0.79599697970E+02 0.  0.
          5    1    5    5  501    0  0.70368579205E+02  0.59304515152E+01  0.65990767850E+02  0.96766619430E+02  0.47000000000E+01 0. -1.
        -11    1    6    6    0    0  0.11164129304E+02 -0.15251793597E+02  0.36832695257E+02  0.41399304716E+02  0.00000000000E+00 0.  1.
         12    1    6    6    0    0 -0.46864268923E+02 -0.24582826265E+02 -0.18845835967E+02  0.56175978693E+02  0.00000000000E+00 0. -1.
         -5    1    3    3    0  503 -0.22822074639E+02  0.65043799899E+02  0.34006084956E+02  0.77006797169E+02  0.47000000000E+01 0.  1.
         11    1    4    4    0    0 -0.23557040261E+02 -0.29739028650E+02  0.54293231878E+01  0.38325207386E+02  0.00000000000E+00 0. -1.
        -12    1    4    4    0    0  0.11710675314E+02 -0.14006029028E+01 -0.64148326956E+02  0.65223534526E+02  0.00000000000E+00 0.  1.
</event>
<event>
12    1  0.1629553E-001  0.2406236E+03  0.7818608E-02  0.1119409E+00
         21   -1    0    0  501  502  0.00000000000E+00  0.00000000000E+00  0.21630423770E+03  0.21630423770E+03  0.00000000000E+00 0.  1.
         21   -1    0    0  502  503 -0.00000000000E+00 -0.00000000000E+00 -0.61790923100E+03  0.61790923100E+03  0.00000000000E+00 0.  1.
         -6    2    1    2    0  503 -0.35904062696E+02  0.16481703938E+03 -0.51488646974E+03  0.56825779932E+03  0.17133327632E+03 0.  0.
        -24    2    3    3    0    0 -0.12643117171E+02  0.16979146804E+03 -0.31785124328E+03  0.36973629672E+03  0.81771176017E+02 0.  0.
          6    2    1    2  501    0  0.35904062696E+02 -0.16481703938E+03  0.11328147644E+03  0.26595566939E+03  0.17159827209E+03 0.  0.
         24    2    5    5    0    0 -0.26233596610E+02 -0.10302285250E+03  0.11714492992E+03  0.17811133827E+03  0.81846224621E+02 0.  0.
          5    1    5    5  501    0  0.62137659306E+02 -0.61794186882E+02 -0.38634534825E+01  0.87844331117E+02  0.47000000000E+01 0. -1.
        -13    1    6    6    0    0 -0.17680443435E+02 -0.11653197108E+03  0.98994973543E+02  0.15392304295E+03  0.00000000000E+00 0.  1.
         14    1    6    6    0    0 -0.85531531754E+01  0.13509118577E+02  0.18149956381E+02  0.24188295322E+02  0.00000000000E+00 0. -1.
         -5    1    3    3    0  503 -0.23260945525E+02 -0.49744286579E+01 -0.19703522646E+03  0.19852150260E+03  0.47000000000E+01 0.  1.
         13    1    4    4    0    0  0.11893507452E+02  0.15724151483E+03 -0.29245532877E+03  0.33225964069E+03  0.00000000000E+00 0. -1.
        -14    1    4    4    0    0 -0.24536624623E+02  0.12549953207E+02 -0.25395914512E+02  0.37476656031E+02  0.00000000000E+00 0.  1.
</event>
<event>
12    1  0.1629553E-001  0.2440788E+03  0.7818608E-02  0.1117157E+00
         21   -1    0    0  503  502  0.00000000000E+00  0.00000000000E+00  0.64403454267E+02  0.64403454267E+02  0.00000000000E+00 0.  1.
         21   -1    0    0  501  503 -0.00000000000E+00 -0.00000000000E+00 -0.10761263733E+04  0.10761263733E+04  0.00000000000E+00 0. -1.
          6    2    1    2  501    0  0.32679401886E+02  0.16980288633E+03 -0.72067957664E+03  0.76088996259E+03  0.17226003447E+03 0.  0.
         24    2    3    3    0    0  0.59311149210E+02  0.84703116039E+02 -0.24641872072E+03  0.27829627187E+03  0.77680105092E+02 0.  0.
         -6    2    1    2    0  502 -0.32679401886E+02 -0.16980288633E+03 -0.29104334243E+03  0.37963986501E+03  0.17181163063E+03 0.  0.
        -24    2    5    5    0    0  0.46295321052E+01 -0.13976819872E+02 -0.12258510751E+03  0.14710172523E+03  0.79968899708E+02 0.  0.
          5    1    3    3  501    0 -0.26631747324E+02  0.85099770287E+02 -0.47426085592E+03  0.48259369072E+03  0.47000000000E+01 0. -1.
        -11    1    4    4    0    0  0.53924505465E+02  0.20093798756E+02 -0.16157399786E+03  0.17151609203E+03  0.00000000000E+00 0.  1.
         12    1    4    4    0    0  0.53866437448E+01  0.64609317282E+02 -0.84844722854E+02  0.10678017984E+03  0.00000000000E+00 0. -1.
         -5    1    5    5    0  502 -0.37308933991E+02 -0.15582606645E+03 -0.16845823492E+03  0.23253813978E+03  0.47000000000E+01 0.  1.
         13    1    6    6    0    0  0.41327989500E+02 -0.16474373736E+02 -0.64827495492E+02  0.78625771079E+02  0.00000000000E+00 0. -1.
        -14    1    6    6    0    0 -0.36698457395E+02  0.24975538638E+01 -0.57757612019E+02  0.68475954149E+02  0.00000000000E+00 0.  1.
</event>
<event>
12    1  0.1629553E-001  0.1953089E+03  0.7818608E-02  0.1154054E+00
         21   -1    0    0  501  502  0.00000000000E+00  0.00000000000E+00  0.22675031404E+03  0.22675031404E+03  0.00000000000E+00 0. -1.
         21   -1    0    0  502  503 -0.00000000000E+00 -0.00000000000E+00 -0.18349027079E+03  0.18349027079E+03  0.00000000000E+00 0. -1.
         -6    2    1    2    0  503 -0.66415384471E+01  0.92613066780E+02 -0.39678712307E+02  0.19929864885E+03  0.17182625251E+03 0.  0.
        -24    2    3    3    0    0  0.26094473000E+01  0.34752337326E+02 -0.88172464226E+02  0.12309380173E+03  0.78505836799E+02 0.  0.
          6    2    1    2  501    0  0.66415384471E+01 -0.92613066780E+02  0.82938755559E+02  0.21094193597E+03  0.17028321410E+03 0.  0.
         24    2    5    5    0    0  0.61561185923E+02 -0.76893329953E+02  0.18185781223E+02  0.12446468179E+03  0.73880786212E+02 0.  0.
          5    1    5    5  501    0 -0.54919647476E+02 -0.15719736826E+02  0.64752974336E+02  0.86477254177E+02  0.47000000000E+01 0. -1.
        -11    1    6    6    0    0  0.22056177110E+02 -0.66545091724E+00 -0.20660753146E+02  0.30228868556E+02  0.00000000000E+00 0.  1.
         12    1    6    6    0    0  0.39505008813E+02 -0.76227879036E+02  0.38846534369E+02  0.94235813235E+02  0.00000000000E+00 0. -1.
         -5    1    3    3    0  503 -0.92509857471E+01  0.57860729453E+02  0.48493751919E+02  0.76204847125E+02  0.47000000000E+01 0.  1.
         13    1    4    4    0    0 -0.35301075989E+02  0.31387190908E+02 -0.41560910176E+02  0.62917652322E+02  0.00000000000E+00 0. -1.
        -14    1    4    4    0    0  0.37910523289E+02  0.33651464182E+01 -0.46611554050E+02  0.60176149407E+02  0.00000000000E+00 0.  1.
</event>
<event>
12    1  0.1629553E-001  0.2158584E+03  0.7818608E-02  0.1138713E+00
         21   -1    0    0  503  502  0.00000000000E+00  0.00000000000E+00  0.28638636984E+03  0.28638636984E+03  0.00000000000E+00 0. -1.
         21   -1    0    0  501  503 -0.00000000000E+00 -0.00000000000E+00 -0.58147996447E+03  0.58147996447E+03  0.00000000000E+00 0. -1.
          6    2    1    2  501    0  0.35813877225E+02  0.12887148407E+03 -0.51944850560E+03  0.56251365698E+03  0.16942364389E+03 0.  0.
         24    2    3    3    0    0  0.71714610297E+01  0.90844280436E+02 -0.16601801926E+03  0.20586024693E+03  0.80699104130E+02 0.  0.
         -6    2    1    2    0  502 -0.35813877225E+02 -0.12887148407E+03  0.22435491096E+03  0.30535267733E+03  0.15816016651E+03 0.  0.
        -24    2    5    5    0    0 -0.46859264127E+02 -0.16899355938E+02  0.10926684296E+03  0.14433369880E+03  0.80072434539E+02 0.  0.
          5    1    3    3  501    0  0.28642416195E+02  0.38027203636E+02 -0.35343048634E+03  0.35665341004E+03  0.47000000000E+01 0. -1.
        -11    1    4    4    0    0 -0.25007574007E+02  0.11415947805E+01 -0.48300656868E+02  0.54402531653E+02  0.00000000000E+00 0.  1.
         12    1    4    4    0    0  0.32179035036E+02  0.89702685656E+02 -0.11771736239E+03  0.15145771528E+03  0.00000000000E+00 0. -1.
         -5    1    5    5    0  502  0.11045386902E+02 -0.11197212813E+03  0.11508806800E+03  0.16101897853E+03  0.47000000000E+01 0.  1.
         13    1    6    6    0    0 -0.62695546027E+01 -0.43741326938E+02  0.39480604106E+02  0.59256468827E+02  0.00000000000E+00 0. -1.
        -14    1    6    6    0    0 -0.40589709524E+02  0.26841971000E+02  0.69786238859E+02  0.85077229976E+02  0.00000000000E+00 0.  1.
</event>
<event>
12    1  0.1629553E-001  0.2043021E+03  0.7818608E-02  0.1146263E+00
         21   -1    0    0  501  502  0.00000000000E+00  0.00000000000E+00  0.53909990327E+03  0.53909990327E+03  0.00000000000E+00 0. -1.
         21   -1    0    0  502  503 -0.00000000000E+00 -0.00000000000E+00 -0.13631225949E+03  0.13631225949E+03  0.00000000000E+00 0. -1.
         -6    2    1    2    0  503 -0.63731718944E+02  0.90711737014E+02 -0.20791426298E+02  0.20535736174E+03  0.17160714257E+03 0.  0.
        -24    2    3    3    0    0 -0.17185879601E+02  0.46675223509E+02 -0.76561938521E+02  0.12027992810E+03  0.78304531960E+02 0.  0.
          6    2    1    2  501    0  0.63731718944E+02 -0.90711737014E+02  0.42357907008E+03  0.47005480103E+03  0.17100273720E+03 0.  0.
         24    2    5    5    0    0  0.89402342320E+02 -0.96886357737E+02  0.24743031682E+03  0.29187629470E+03  0.81180444659E+02 0.  0.
          5    1    5    5  501    0 -0.25670623376E+02  0.61746207225E+01  0.17614875325E+03  0.17817850633E+03  0.47000000000E+01 0. -1.
        -11    1    6    6    0    0  0.66410468264E+02 -0.13274749764E+02  0.11875994985E+03  0.13671318504E+03  0.00000000000E+00 0.  1.
         12    1    6    6    0    0  0.22991874056E+02 -0.83611607973E+02  0.12867036697E+03  0.15516310965E+03  0.00000000000E+00 0. -1.
         -5    1    3    3    0  503 -0.46545839343E+02  0.44036513505E+02  0.55770512223E+02  0.85077433643E+02  0.47000000000E+01 0.  1.
         11    1    4    4    0    0 -0.15544874548E+02  0.50551088955E+02 -0.10295537113E+02  0.53879994467E+02  0.00000000000E+00 0. -1.
        -12    1    4    4    0    0 -0.16410050525E+01 -0.38758654456E+01 -0.66266401408E+02  0.66399933630E+02  0.00000000000E+00 0.  1.
</event>
<event>
12    1  0.1629553E-001  0.2179811E+03  0.7818608E-02  0.1136521E+00
         21   -1    0    0  503  502  0.00000000000E+00  0.00000000000E+00  0.25701215238E+04  0.25701215238E+04  0.00000000000E+00 0.  1.
         21   -1    0    0  501  503 -0.00000000000E+00 -0.00000000000E+00 -0.19590700931E+02  0.19590700931E+02  0.00000000000E+00 0.  1.
          6    2    1    2  501    0 -0.45210640118E+02  0.11665758551E+03  0.88955613532E+03  0.91449502335E+03  0.17128349483E+03 0.  0.
         24    2    3    3    0    0  0.27545661093E+02  0.11559616255E+03  0.56623218540E+03  0.58305110263E+03  0.72169690721E+02 0.  0.
         -6    2    1    2    0  502  0.45210640118E+02 -0.11665758551E+03  0.16609746876E+04  0.16752172014E+04  0.17850144231E+03 0.  0.
        -24    2    5    5    0    0  0.11964255549E+02 -0.14865210297E+03  0.13882155926E+04  0.13985430517E+04  0.80867451776E+02 0.  0.
          5    1    3    3  501    0 -0.72756301211E+02  0.10614229631E+01  0.32332394992E+03  0.33144392071E+03  0.47000000000E+01 0. -1.
        -11    1    4    4    0    0  0.25137224345E+01  0.93036402689E+02  0.50160348820E+03  0.51016482670E+03  0.00000000000E+00 0.  1.
         12    1    4    4    0    0  0.25031938658E+02  0.22559759861E+02  0.64628697198E+02  0.72886275934E+02  0.00000000000E+00 0. -1.
         -5    1    5    5    0  502  0.33246384569E+02  0.31994517461E+02  0.27275909498E+03  0.27667414973E+03  0.47000000000E+01 0.  1.
         11    1    6    6    0    0  0.12735623596E+02  0.65946746463E+01  0.12784474475E+03  0.12864666573E+03  0.00000000000E+00 0. -1.
        -12    1    6    6    0    0 -0.77136804682E+00 -0.15524677762E+03  0.12603708479E+04  0.12698963860E+04  0.00000000000E+00 0.  1.
</event>
<event>
12    1  0.1629553E-001  0.2419305E+03  0.7818608E-02  0.1118594E+00
         21   -1    0    0  501  502  0.00000000000E+00  0.00000000000E+00  0.30974869879E+03  0.30974869879E+03  0.00000000000E+00 0.  1.
         21   -1    0    0  502  503 -0.00000000000E+00 -0.00000000000E+00 -0.24930872897E+03  0.24930872897E+03  0.00000000000E+00 0.  1.
         -6    2    1    2    0  503 -0.34349368233E+02  0.16539320192E+03 -0.10771667290E+03  0.26482684996E+03  0.17319234538E+03 0.  0.
        -24    2    3    3    0    0  0.11395406578E+02  0.17722929670E+03 -0.86439346892E+02  0.21279328229E+03  0.79177909789E+02 0.  0.
          6    2    1    2  501    0  0.34349368233E+02 -0.16539320192E+03  0.16815664272E+03  0.29423057779E+03  0.17251140854E+03 0.  0.
         24    2    5    5    0    0 -0.13196587051E+01 -0.18546112943E+03  0.13993970067E+03  0.24429775276E+03  0.75502981088E+02 0.  0.
          5    1    5    5  501    0  0.35669026939E+02  0.20067927503E+02  0.28216942049E+02  0.49932825031E+02  0.47000000000E+01 0. -1.
        -13    1    6    6    0    0  0.36192023002E+02 -0.96163035041E+02  0.62265252661E+02  0.12014222208E+03  0.00000000000E+00 0.  1.
         14    1    6    6    0    0 -0.37511681707E+02 -0.89298094386E+02  0.77674448007E+02  0.12415553068E+03  0.00000000000E+00 0. -1.
         -5    1    3    3    0  503 -0.45744774812E+02 -0.11836094777E+02 -0.21277326004E+02  0.52033567666E+02  0.47000000000E+01 0.  1.
         11    1    4    4    0    0  0.42825057054E+02  0.70426143222E+02 -0.45670582980E+02  0.94231785033E+02  0.00000000000E+00 0. -1.
        -12    1    4    4    0    0 -0.31429650476E+02  0.10680315348E+03 -0.40768763912E+02  0.11856149726E+03  0.00000000000E+00 0.  1.
</event>
<event>
12    1  0.1629553E-001  0.1816278E+03  0.7818608E-02  0.1168209E+00
         21   -1    0    0  503  502  0.00000000000E+00  0.00000000000E+00  0.48645568114E+03  0.48645568114E+03  0.00000000000E+00 0.  1.
         21   -1    0    0  501  503 -0.00000000000E+00 -0.00000000000E+00 -0.82079076496E+02  0.82079076496E+02  0.00000000000E+00 0.  1.
          6    2    1    2  501    0  0.52970467254E+02 -0.22862964001E+02  0.75565716735E+02  0.19672016514E+03  0.17222096360E+03 0.  0.
         24    2    3    3    0    0  0.19812354418E+01  0.44187341012E+02  0.12092503940E+02  0.91142781647E+02  0.78767579595E+02 0.  0.
         -6    2    1    2    0  502 -0.52970467254E+02  0.22862964001E+02  0.32881088791E+03  0.37181459249E+03  0.16370982151E+03 0.  0.
        -24    2    5    5    0    0 -0.61273383730E+02  0.27857332160E+02  0.34037933295E+03  0.35600949661E+03  0.79713316781E+02 0.  0.
          5    1    3    3  501    0  0.50989231813E+02 -0.67050305013E+02  0.63473212795E+02  0.10557738350E+03  0.47000000000E+01 0. -1.
        -11    1    4    4    0    0  0.30624644605E+02  0.50919587936E+02  0.15805064752E+02  0.61485554114E+02  0.00000000000E+00 0.  1.
         12    1    4    4    0    0 -0.28643409164E+02 -0.67322469246E+01 -0.37125608123E+01  0.29657227533E+02  0.00000000000E+00 0. -1.
         -5    1    5    5    0  502  0.83029164760E+01 -0.49943681589E+01 -0.11568445036E+02  0.15805095883E+02  0.47000000000E+01 0.  1.
         13    1    6    6    0    0  0.16681819601E+02 -0.71065566272E+01  0.77586108651E+02  0.79676787761E+02  0.00000000000E+00 0. -1.
        -14    1    6    6    0    0 -0.77955203331E+02  0.34963888788E+02  0.26279322430E+03  0.27633270885E+03  0.00000000000E+00 0.  1.
</event>
<event>
12    1  0.1629553E-001  0.2089544E+03  0.7818608E-02  0.1142409E+00
         21   -1    0    0  501  502  0.00000000000E+00  0.00000000000E+00  0.77360555795E+03  0.77360555795E+03  0.00000000000E+00 0.  1.
         21   -1    0    0  502  503 -0.00000000000E+00 -0.00000000000E+00 -0.69565930936E+02  0.69565930936E+02  0.00000000000E+00 0.  1.
         -6    2    1    2    0  503 -0.38177351315E+02  0.11170759898E+03  0.16881689618E+03  0.26862818253E+03  0.17241188530E+03 0.  0.
        -24    2    3    3    0    0  0.11989063502E+02  0.23551589915E+02  0.16362103236E+02  0.85454207849E+02  0.79600805182E+02 0.  0.
          6    2    1    2  501    0  0.38177351315E+02 -0.11170759898E+03  0.53522273083E+03  0.57454330635E+03  0.17233845030E+03 0.  0.
         24    2    5    5    0    0  0.40263911547E+02 -0.98789061370E+02  0.21178229129E+03  0.25080413622E+03  0.81673218507E+02 0.  0.
          5    1    5    5  501    0 -0.20865602313E+01 -0.12918537609E+02  0.32344043954E+03  0.32373917013E+03  0.47000000000E+01 0. -1.
        -11    1    6    6    0    0  0.20542490938E+02 -0.60431353754E+02  0.19386164363E+03  0.20409869995E+03  0.00000000000E+00 0.  1.
         12    1    6    6    0    0  0.19721420609E+02 -0.38357707616E+02  0.17920647658E+02  0.46705436267E+02  0.00000000000E+00 0. -1.
         -5    1    3    3    0  503 -0.50166414817E+02  0.88156009064E+02  0.15245479294E+03  0.18317397468E+03  0.47000000000E+01 0.  1.
         13    1    4    4    0    0 -0.27905836173E+02 -0.81714482502E+00  0.25511615692E+02  0.37818592695E+02  0.00000000000E+00 0. -1.
        -14    1    4    4    0    0  0.39894899675E+02  0.24368734740E+02 -0.91495124568E+01  0.47635615154E+02  0.00000000000E+00 0.  1.
</event>
<event>
12    1  0.1629553E-001  0.2863476E+03  0.7818608E-02  0.1092318E+00
         21   -1    0    0  501  502  0.00000000000E+00  0.00000000000E+00  0.27673604612E+04  0.27673604612E+04  0.00000000000E+00 0. -1.
         21   -1    0    0  502  503 -0.00000000000E+00 -0.00000000000E+00 -0.31346786897E+02  0.31346786897E+02  0.00000000000E+00 0.  1.
         -6    2    1    2    0  503 -0.28856927085E+02  0.22670548194E+03  0.10362308341E+04  0.10749738988E+04  0.17194895658E+03 0.  0.
        -24    2    3    3    0    0 -0.74555673781E+02  0.16045308469E+03  0.58325061532E+03  0.61487507872E+03  0.81156276859E+02 0.  0.
          6    2    1    2  501    0  0.28856927085E+02 -0.22670548194E+03  0.16997828402E+04  0.17237333493E+04  0.17253074516E+03 0.  0.
         24    2    5    5    0    0 -0.66926257928E+01 -0.11157900255E+03  0.12673494284E+04  0.12748028173E+04  0.80330469104E+02 0.  0.
          5    1    5    5  501    0  0.35549552878E+02 -0.11512647939E+03  0.43243341181E+03  0.44893053206E+03  0.47000000000E+01 0. -1.
        -11    1    6    6    0    0  0.25480870381E+02 -0.45373092547E+02  0.28593329150E+03  0.29063007324E+03  0.00000000000E+00 0.  1.
         12    1    6    6    0    0 -0.32173496173E+02 -0.66205910003E+02  0.98141613688E+03  0.98417274403E+03  0.00000000000E+00 0. -1.
         -5    1    3    3    0  503  0.45698746696E+02  0.66252397258E+02  0.45298021879E+03  0.46009882005E+03  0.47000000000E+01 0.  1.
         13    1    4    4    0    0 -0.22756812523E+01  0.86720535945E+02  0.33406380036E+03  0.34514381465E+03  0.00000000000E+00 0. -1.
        -14    1    4    4    0    0 -0.72279992529E+02  0.73732548741E+02  0.24918681497E+03  0.26973126407E+03  0.00000000000E+00 0.  1.
</event>
<event>
12    1  0.1629553E-001  0.3798394E+03  0.7818608E-02  0.1051038E+00
         21   -1    0    0  503  502  0.00000000000E+00  0.00000000000E+00  0.91926304037E+03  0.91926304037E+03  0.00000000000E+00 0. -1.
         21   -1    0    0  501  503 -0.00000000000E+00 -0.00000000000E+00 -0.76733207442E+03  0.76733207442E+03  0.00000000000E+00 0.  1.
          6    2    1    2  501    0 -0.31204899420E+03  0.13137716114E+03 -0.67627325672E+03  0.77564390563E+03  0.17217263819E+03 0.  0.
         24    2    3    3    0    0 -0.27970784002E+03  0.16506771121E+03 -0.59088714600E+03  0.67820735539E+03  0.73032681372E+02 0.  0.
         -6    2    1    2    0  502  0.31204899420E+03 -0.13137716114E+03  0.82820422267E+03  0.91095120916E+03  0.17110037340E+03 0.  0.
        -24    2    5    5    0    0  0.19215213379E+03 -0.65025018151E+02  0.33915726853E+03  0.40304681130E+03  0.79173125464E+02 0.  0.
          5    1    3    3  501    0 -0.32341154175E+02 -0.33690550078E+02 -0.85386110726E+02  0.97436550241E+02  0.47000000000E+01 0. -1.
        -11    1    4    4    0    0 -0.88333215291E+02  0.90821507812E+02 -0.25046885832E+03  0.28068835422E+03  0.00000000000E+00 0.  1.
         12    1    4    4    0    0 -0.19137462473E+03  0.74246203402E+02 -0.34041828768E+03  0.39751900118E+03  0.00000000000E+00 0. -1.
         -5    1    5    5    0  502  0.11989686040E+03 -0.66352142985E+02  0.48904695414E+03  0.50790439786E+03  0.47000000000E+01 0.  1.
         11    1    6    6    0    0  0.18285807701E+03 -0.73080825088E+02  0.33734541860E+03  0.39061466277E+03  0.00000000000E+00 0. -1.
        -12    1    6    6    0    0  0.92940567861E+01  0.80558069373E+01  0.18118499358E+01  0.12432148533E+02  0.00000000000E+00 0.  1.
</event>
<event>
12    1  0.1629553E-001  0.1809167E+03  0.7818608E-02  0.1168386E+00
         21   -1    0    0  503  502  0.00000000000E+00  0.00000000000E+00  0.85140281535E+03  0.85140281535E+03  0.00000000000E+00 0.  1.
         21   -1    0    0  501  503 -0.00000000000E+00 -0.00000000000E+00 -0.12831476471E+03  0.12831476471E+03  0.00000000000E+00 0.  1.
          6    2    1    2  501    0 -0.10014096140E+02 -0.30656517292E+02 -0.49507304859E+02  0.18756817564E+03  0.17801894029E+03 0.  0.
         24    2    3    3    0    0 -0.57980138653E+02 -0.38768432591E+01  0.17979243554E+02  0.10042222684E+03  0.79903967686E+02 0.  0.
         -6    2    1    2    0  502  0.10014096140E+02  0.30656517292E+02  0.77259535551E+03  0.79214940442E+03  0.17192146871E+03 0.  0.
        -24    2    5    5    0    0 -0.60336168812E+02  0.13384553723E+02  0.48000477991E+03  0.49068827023E+03  0.80936952340E+02 0.  0.
          5    1    3    3  501    0  0.47966042513E+02 -0.26779674033E+02 -0.67486548413E+02  0.87145948801E+02  0.47000000000E+01 0. -1.
        -11    1    4    4    0    0 -0.47485078432E+02 -0.20920576690E+02 -0.21493463545E+02  0.56164687998E+02  0.00000000000E+00 0.  1.
         12    1    4    4    0    0 -0.10495060221E+02  0.17043733431E+02  0.39472707099E+02  0.44257538838E+02  0.00000000000E+00 0. -1.
         -5    1    5    5    0  502  0.70350264952E+02  0.17271963569E+02  0.29259057559E+03  0.30146113420E+03  0.47000000000E+01 0.  1.
         13    1    6    6    0    0 -0.16326726535E+00  0.66994979138E+01 -0.17794756119E+00  0.67038491802E+01  0.00000000000E+00 0. -1.
        -14    1    6    6    0    0 -0.60172901546E+02  0.66850558095E+01  0.48018272748E+03  0.48398442105E+03  0.00000000000E+00 0.  1.
</event>
<event>
12    1  0.1629553E-001  0.2034867E+03  0.7818608E-02  0.1147410E+00
         21   -1    0    0  503  502  0.00000000000E+00  0.00000000000E+00  0.20083300325E+03  0.20083300325E+03  0.00000000000E+00 0. -1.
         21   -1    0    0  501  503 -0.00000000000E+00 -0.00000000000E+00 -0.21840665912E+03  0.21840665912E+03  0.00000000000E+00 0. -1.
          6    2    1    2  501    0  0.96722093768E+01 -0.10330064665E+03 -0.63756953992E+02  0.21057787730E+03  0.17179498826E+03 0.  0.
         24    2    3    3    0    0 -0.26609062000E+02  0.53299280391E+01 -0.91563211330E+01  0.83612324810E+02  0.78554009000E+02 0.  0.
         -6    2    1    2    0  502 -0.96722093768E+01  0.10330064665E+03  0.46183298121E+02  0.20866178507E+03  0.17504933102E+03 0.  0.
        -24    2    5    5    0    0  0.57826089730E+02  0.83295805773E+02  0.10412643433E+02  0.12955525072E+03  0.79963066049E+02 0.  0.
          5    1    3    3  501    0  0.36281271377E+02 -0.10863057469E+03 -0.54600632859E+02  0.12696555249E+03  0.47000000000E+01 0. -1.
        -13    1    4    4    0    0  0.15664913375E+02  0.17360177719E+02 -0.27402475053E+02  0.36023060955E+02  0.00000000000E+00 0.  1.
         14    1    4    4    0    0 -0.42273975376E+02 -0.12030249680E+02  0.18246153920E+02  0.47589263856E+02  0.00000000000E+00 0. -1.
         -5    1    5    5    0  502 -0.67498299106E+02  0.20004840878E+02  0.35770654687E+02  0.79106534354E+02  0.47000000000E+01 0.  1.
         11    1    6    6    0    0  0.37167818268E+02  0.48594807365E+02  0.45350645433E+02  0.76154993656E+02  0.00000000000E+00 0. -1.
        -12    1    6    6    0    0  0.20658271461E+02  0.34700998408E+02 -0.34938001999E+02  0.53400257059E+02  0.00000000000E+00 0.  1.
</event>
<event>
12    1  0.1629553E-001  0.1871132E+03  0.7818608E-02  0.1161283E+00
         21   -1    0    0  501  502  0.00000000000E+00  0.00000000000E+00  0.28540857553E+03  0.28540857553E+03  0.00000000000E+00 0. -1.
         21   -1    0    0  502  503 -0.00000000000E+00 -0.00000000000E+00 -0.13336027369E+03  0.13336027369E+03  0.00000000000E+00 0. -1.
         -6    2    1    2    0  503 -0.62364612954E+02  0.40153298474E+02  0.15404861800E+02  0.18774623386E+03  0.17178389399E+03 0.  0.
        -24    2    3    3    0    0 -0.92474618413E+02  0.72374563752E+02  0.17386486003E+01  0.14133850015E+03  0.78637880167E+02 0.  0.
          6    2    1    2  501    0  0.62364612954E+02 -0.40153298474E+02  0.13664344004E+03  0.23102261536E+03  0.17087535450E+03 0.  0.
         24    2    5    5    0    0  0.31932403529E+02 -0.61718534818E+02  0.20143016966E+02  0.10860685916E+03  0.80999091290E+02 0.  0.
          5    1    5    5  501    0  0.30432209425E+02  0.21565236344E+02  0.11650042308E+03  0.12241575620E+03  0.47000000000E+01 0. -1.
        -11    1    6    6    0    0  0.14094949559E+02  0.18612220743E+01 -0.24899938503E+02  0.28672960924E+02  0.00000000000E+00 0.  1.
         12    1    6    6    0    0  0.17837453970E+02 -0.63579756892E+02  0.45042955468E+02  0.79933898240E+02  0.00000000000E+00 0. -1.
         -5    1    3    3    0  503  0.30110005459E+02 -0.32221265278E+02  0.13666213200E+02  0.46407733709E+02  0.47000000000E+01 0.  1.
         13    1    4    4    0    0 -0.45435354460E+02  0.77021355820E+02  0.18254026291E+02  0.91268122382E+02  0.00000000000E+00 0. -1.
        -14    1    4    4    0    0 -0.47039263952E+02 -0.46467920677E+01 -0.16515377691E+02  0.50070377769E+02  0.00000000000E+00 0.  1.
</event>
<event>
12    1  0.1629553E-001  0.1911837E+03  0.7818608E-02  0.1157690E+00
         21   -1    0    0  501  502  0.00000000000E+00  0.00000000000E+00  0.22839532286E+03  0.22839532286E+03  0.00000000000E+00 0. -1.
         21   -1    0    0  502  503 -0.00000000000E+00 -0.00000000000E+00 -0.19818742708E+03  0.19818742708E+03  0.00000000000E+00 0. -1.
         -6    2    1    2    0  503  0.71122456309E+02  0.42624610138E+02 -0.79761372398E+02  0.20715473851E+03  0.17226708327E+03 0.  0.
        -24    2    3    3    0    0 -0.15820022357E+01  0.70301589488E+02 -0.78987517471E+02  0.12921474665E+03  0.74246930045E+02 0.  0.
          6    2    1    2  501    0 -0.71122456309E+02 -0.42624610138E+02  0.10996926819E+03  0.21942801143E+03  0.17082198651E+03 0.  0.
         24    2    5    5    0    0 -0.80617907243E+02 -0.23741414551E+02  0.13943737263E+03  0.18286029557E+03  0.83259864755E+02 0.  0.
          5    1    5    5  501    0  0.94954509339E+01 -0.18883195588E+02 -0.29468104440E+02  0.36567715862E+02  0.47000000000E+01 0.  1.
        -11    1    6    6    0    0 -0.60059241276E+02  0.10843594975E+02  0.12674224559E+03  0.14067086703E+03  0.00000000000E+00 0.  1.
         12    1    6    6    0    0 -0.20558665967E+02 -0.34585009526E+02  0.12695127040E+02  0.42189428543E+02  0.00000000000E+00 0. -1.
         -5    1    3    3    0  503  0.72704458545E+02 -0.27676979350E+02 -0.77385492700E+00  0.77939991851E+02  0.47000000000E+01 0.  1.
         13    1    4    4    0    0  0.28955360296E+02  0.48117873421E+02 -0.71188813782E+02  0.90672982967E+02  0.00000000000E+00 0. -1.
        -14    1    4    4    0    0 -0.30537362532E+02  0.22183716067E+02 -0.77987036891E+01  0.38541763688E+02  0.00000000000E+00 0.  1.
</event>
<event>
12    1  0.1629553E-001  0.2947035E+03  0.7818608E-02  0.1087930E+00
         21   -1    0    0  501  502  0.00000000000E+00  0.00000000000E+00  0.56974779997E+03  0.56974779997E+03  0.00000000000E+00 0. -1.
         21   -1    0    0  502  503 -0.00000000000E+00 -0.00000000000E+00 -0.15484466854E+03  0.15484466854E+03  0.00000000000E+00 0. -1.
         -6    2    1    2    0  503  0.22135202041E+03 -0.91337140809E+02  0.16187428616E+03  0.33623421696E+03  0.17178758367E+03 0.  0.
        -24    2    3    3    0    0  0.93995484794E+02 -0.17668935404E+02  0.10353336367E+02  0.12498228234E+03  0.79787448175E+02 0.  0.
          6    2    1    2  501    0 -0.22135202041E+03  0.91337140809E+02  0.25302884527E+03  0.38835825156E+03  0.17163724765E+03 0.  0.
         24    2    5    5    0    0 -0.19253009443E+03  0.12654990886E+03  0.19060456532E+03  0.31096624177E+03  0.85365019242E+02 0.  0.
          5    1    5    5  501    0 -0.28821925985E+02 -0.35212768047E+02  0.62424279954E+02  0.77392009786E+02  0.47000000000E+01 0. -1.
        -11    1    6    6    0    0 -0.47641930463E+00  0.19634795436E+02 -0.57665136683E+00  0.19649037991E+02  0.00000000000E+00 0.  1.
         12    1    6    6    0    0 -0.19205367512E+03  0.10691511342E+03  0.19118121668E+03  0.29131720378E+03  0.00000000000E+00 0. -1.
         -5    1    3    3    0  503  0.12735653562E+03 -0.73668205405E+02  0.15152094979E+03  0.21125193461E+03  0.47000000000E+01 0.  1.
         13    1    4    4    0    0  0.97804551311E+02 -0.12872874864E+02  0.31033447074E+02  0.10341429302E+03  0.00000000000E+00 0. -1.
        -14    1    4    4    0    0 -0.38090665178E+01 -0.47960605395E+01 -0.20680110707E+02  0.21567989320E+02  0.00000000000E+00 0.  1.
</event>
<event>
12    1  0.1629553E-001  0.1904146E+03  0.7818608E-02  0.1158859E+00
         21   -1    0    0  501  502  0.00000000000E+00  0.00000000000E+00  0.31370865318E+03  0.31370865318E+03  0.00000000000E+00 0. -1.
         21   -1    0    0  502  503 -0.00000000000E+00 -0.00000000000E+00 -0.13141653995E+03  0.13141653995E+03  0.00000000000E+00 0. -1.
         -6    2    1    2    0  503 -0.74456832712E+02 -0.41507402120E+02  0.97359960005E+01  0.19066336855E+03  0.17026757214E+03 0.  0.
        -24    2    3    3    0    0 -0.57728123399E+02 -0.49536281257E+02 -0.55124972202E+02  0.12303683669E+03  0.79453893741E+02 0.  0.
          6    2    1    2  501    0  0.74456832712E+02  0.41507402120E+02  0.17255611723E+03  0.25446182458E+03  0.16645877029E+03 0.  0.
         24    2    5    5    0    0  0.69461198741E+02  0.82048969391E+02  0.85741864513E+02  0.15840257458E+03  0.78630889568E+02 0.  0.
          5    1    5    5  501    0  0.49956339712E+01 -0.40541567271E+02  0.86814252718E+02  0.96059250000E+02  0.47000000000E+01 0. -1.
        -11    1    6    6    0    0 -0.20284173563E+01  0.10398758187E+02 -0.13156063606E+02  0.16891733434E+02  0.00000000000E+00 0.  1.
         12    1    6    6    0    0  0.71489616097E+02  0.71650211204E+02  0.98897928119E+02  0.14151084114E+03  0.00000000000E+00 0. -1.
         -5    1    3    3    0  503 -0.16728709313E+02  0.80288791379E+01  0.64860968202E+02  0.67626531862E+02  0.47000000000E+01 0.  1.
         13    1    4    4    0    0  0.19279145680E+01 -0.44628170572E+02 -0.49722317184E+01  0.44945673334E+02  0.00000000000E+00 0. -1.
        -14    1    4    4    0    0 -0.59656037967E+02 -0.49081106856E+01 -0.50152740483E+02  0.78091163357E+02  0.00000000000E+00 0.  1.
</event>
<event>
12    1  0.1629553E-001  0.2627623E+03  0.7818608E-02  0.1105642E+00
         21   -1    0    0  503  502  0.00000000000E+00  0.00000000000E+00  0.26405184123E+03  0.26405184123E+03  0.00000000000E+00 0. -1.
         21   -1    0    0  501  503 -0.00000000000E+00 -0.00000000000E+00 -0.48525439831E+03  0.48525439831E+03  0.00000000000E+00 0.  1.
          6    2    1    2  501    0 -0.45055313115E+02 -0.19299325952E+03 -0.36546845368E+03  0.44954523423E+03  0.17101855901E+03 0.  0.
         24    2    3    3    0    0 -0.75461252404E+02 -0.16389756008E+03 -0.35390545289E+03  0.40564906290E+03  0.82129664779E+02 0.  0.
         -6    2    1    2    0  502  0.45055313115E+02  0.19299325952E+03  0.14426589660E+03  0.29976100531E+03  0.17253298793E+03 0.  0.
        -24    2    5    5    0    0  0.25083527634E+02  0.55673967517E+02  0.59596429945E+01  0.10378608355E+03  0.83709376876E+02 0.  0.
          5    1    3    3  501    0  0.30405939289E+02 -0.29095699441E+02 -0.11563000790E+02  0.43896171328E+02  0.47000000000E+01 0. -1.
        -11    1    4    4    0    0 -0.90792572702E+02 -0.11330726775E+03 -0.25144604269E+03  0.29035657486E+03  0.00000000000E+00 0.  1.
         12    1    4    4    0    0  0.15331320298E+02 -0.50590292331E+02 -0.10245941020E+03  0.11529248804E+03  0.00000000000E+00 0. -1.
         -5    1    5    5    0  502  0.19971785480E+02  0.13731929200E+03  0.13830625361E+03  0.19597492176E+03  0.47000000000E+01 0.  1.
         11    1    6    6    0    0  0.17763462705E+01  0.23596342191E+02  0.43284941683E+02  0.49330811339E+02  0.00000000000E+00 0. -1.
        -12    1    6    6    0    0  0.23307181364E+02  0.32077625325E+02 -0.37325298689E+02  0.54455272213E+02  0.00000000000E+00 0.  1.
</event>
<event>
12    1  0.1629553E-001  0.1820824E+03  0.7818608E-02  0.1166980E+00
         21   -1    0    0  501  502  0.00000000000E+00  0.00000000000E+00  0.11971394672E+03  0.11971394672E+03  0.00000000000E+00 0. -1.
         21   -1    0    0  502  503 -0.00000000000E+00 -0.00000000000E+00 -0.31025776408E+03  0.31025776408E+03  0.00000000000E+00 0. -1.
         -6    2    1    2    0  503  0.19307441486E+01  0.41004541145E+02 -0.17422079501E+03  0.25200573758E+03  0.17739477499E+03 0.  0.
        -24    2    3    3    0    0  0.32217644517E+02  0.88603320099E+02 -0.10876988779E+03  0.16546758791E+03  0.81609492156E+02 0.  0.
          6    2    1    2  501    0 -0.19307441486E+01 -0.41004541145E+02 -0.16323022347E+02  0.17796597321E+03  0.17239590017E+03 0.  0.
         24    2    5    5    0    0 -0.65908006495E+02 -0.38645174332E+02 -0.22337693526E+02  0.11349176923E+03  0.80895576594E+02 0.  0.
          5    1    5    5  501    0  0.63977262346E+02 -0.23593668135E+01  0.60146711793E+01  0.64474203977E+02  0.47000000000E+01 0. -1.
        -13    1    6    6    0    0  0.18055028471E+02 -0.54556608023E+01 -0.12601420909E+02  0.22683564464E+02  0.00000000000E+00 0.  1.
         14    1    6    6    0    0 -0.83963034966E+02 -0.33189513530E+02 -0.97362726172E+01  0.90808204770E+02  0.00000000000E+00 0. -1.
         -5    1    3    3    0  503 -0.30286900368E+02 -0.47598778954E+02 -0.65450907227E+02  0.86538149672E+02  0.47000000000E+01 0.  1.
         13    1    4    4    0    0 -0.71474943225E+01  0.69265544625E+02 -0.31084001205E+02  0.76256261895E+02  0.00000000000E+00 0. -1.
        -14    1    4    4    0    0  0.39365138839E+02  0.19337775474E+02 -0.77685886580E+02  0.89211326018E+02  0.00000000000E+00 0.  1.
</event>
<event>
12    1  0.1629553E-001  0.2698274E+03  0.7818608E-02  0.1101615E+00
         21   -1    0    0  501  502  0.00000000000E+00  0.00000000000E+00  0.11332084058E+04  0.11332084058E+04  0.00000000000E+00 0.  1.
         21   -1    0    0  502  503 -0.00000000000E+00 -0.00000000000E+00 -0.88632351537E+02  0.88632351537E+02  0.00000000000E+00 0. -1.
         -6    2    1    2    0  503 -0.20560781124E+03  0.57054309514E+01  0.20044110749E+03  0.33613013075E+03  0.17464164234E+03 0.  0.
        -24    2    3    3    0    0 -0.14391579001E+03 -0.61187963612E+02  0.10598305370E+03  0.20488590937E+03  0.79310192794E+02 0.  0.
          6    2    1    2  501    0  0.20560781124E+03 -0.57054309514E+01  0.84413494677E+03  0.88571062659E+03  0.17208248519E+03 0.  0.
         24    2    5    5    0    0  0.18287932515E+03  0.46335833856E+02  0.57312224287E+03  0.60877227063E+03  0.80887051837E+02 0.  0.
          5    1    5    5  501    0  0.22728486082E+02 -0.52041264807E+02  0.27101270391E+03  0.27693835596E+03  0.47000000000E+01 0. -1.
        -11    1    6    6    0    0  0.12193030931E+03  0.38166037623E+01  0.43674001880E+03  0.45345717638E+03  0.00000000000E+00 0.  1.
         12    1    6    6    0    0  0.60949015844E+02  0.42519230094E+02  0.13638222407E+03  0.15531509425E+03  0.00000000000E+00 0. -1.
         -5    1    3    3    0  503 -0.61692021223E+02  0.66893394563E+02  0.94458053794E+02  0.13124422138E+03  0.47000000000E+01 0.  1.
         13    1    4    4    0    0 -0.85933673277E+02  0.44090756527E+01  0.38110274250E+02  0.94108602978E+02  0.00000000000E+00 0. -1.
        -14    1    4    4    0    0 -0.57982116736E+02 -0.65597039264E+02  0.67872779450E+02  0.11077730639E+03  0.00000000000E+00 0.  1.
</event>
<event>
12    1  0.1629553E-001  0.2007676E+03  0.7818608E-02  0.1149350E+00
         21   -1    0    0  503  502  0.00000000000E+00  0.00000000000E+00  0.34232906684E+03  0.34232906684E+03  0.00000000000E+00 0. -1.
         21   -1    0    0  501  503 -0.00000000000E+00 -0.00000000000E+00 -0.12129765162E+03  0.12129765162E+03  0.00000000000E+00 0.  1.
          6    2    1    2  501    0 -0.87572497742E+02  0.54333958936E+02  0.15366556196E+03  0.25185846073E+03  0.17087556249E+03 0.  0.
         24    2    3    3    0    0  0.12812176149E+02  0.69207808152E+00  0.38741505232E+02  0.90043248379E+02  0.80263637603E+02 0.  0.
         -6    2    1    2    0  502  0.87572497742E+02 -0.54333958936E+02  0.67365853256E+02  0.21176825773E+03  0.17229775199E+03 0.  0.
        -24    2    5    5    0    0  0.10376490741E+03 -0.72466477066E+02  0.92442273387E+02  0.17652766762E+03  0.81227441280E+02 0.  0.
          5    1    3    3  501    0 -0.10038467389E+03  0.53641880855E+02  0.11492405673E+03  0.16181521235E+03  0.47000000000E+01 0. -1.
        -11    1    4    4    0    0  0.49046149038E+01  0.23910106789E+02 -0.16594545601E+02  0.29514867402E+02  0.00000000000E+00 0.  1.
         12    1    4    4    0    0  0.79075612453E+01 -0.23218028708E+02  0.55336050833E+02  0.60528380977E+02  0.00000000000E+00 0. -1.
         -5    1    5    5    0  502 -0.16192409670E+02  0.18132518130E+02 -0.25076420131E+02  0.35240590109E+02  0.47000000000E+01 0.  1.
         13    1    6    6    0    0  0.35934066683E+02 -0.18801048001E+02  0.79264129180E+02  0.89036726855E+02  0.00000000000E+00 0. -1.
        -14    1    6    6    0    0  0.67830840729E+02 -0.53665429066E+02  0.13178144207E+02  0.87490940763E+02  0.00000000000E+00 0.  1.
</event>
<event>
12    1  0.1629553E-001  0.1922434E+03  0.7818608E-02  0.1157841E+00
         21   -1    0    0  501  502  0.00000000000E+00  0.00000000000E+00  0.27061252860E+03  0.27061252860E+03  0.00000000000E+00 0. -1.
         21   -1    0    0  502  503 -0.00000000000E+00 -0.00000000000E+00 -0.20332023886E+03  0.20332023886E+03  0.00000000000E+00 0. -1.
         -6    2    1    2    0  503 -0.52709124345E+02 -0.46975803183E+02 -0.10609400863E+03  0.21957563760E+03  0.17880868012E+03 0.  0.
        -24    2    3    3    0    0  0.32826553243E+02  0.46762924705E+01 -0.21864361983E+02  0.88804790314E+02  0.79427892762E+02 0.  0.
          6    2    1    2  501    0  0.52709124345E+02  0.46975803183E+02  0.17338629837E+03  0.25435712986E+03  0.17219106590E+03 0.  0.
         24    2    5    5    0    0 -0.13374327963E+02  0.74180039075E+02  0.13142897365E+03  0.17135351418E+03  0.80043118758E+02 0.  0.
          5    1    5    5  501    0  0.66083452307E+02 -0.27204235891E+02  0.41957324720E+02  0.83003615686E+02  0.47000000000E+01 0. -1.
        -13    1    6    6    0    0  0.16940526412E+02 -0.98481319630E+01  0.33438334162E+02  0.38756797208E+02  0.00000000000E+00 0.  1.
         14    1    6    6    0    0 -0.30314854375E+02  0.84028171038E+02  0.97990639489E+02  0.13259671697E+03  0.00000000000E+00 0. -1.
         -5    1    3    3    0  503 -0.85535677588E+02 -0.51652095654E+02 -0.84229646643E+02  0.13077084728E+03  0.47000000000E+01 0.  1.
         11    1    4    4    0    0 -0.13271362750E+02 -0.22448214273E+02  0.83407507478E+01  0.27379180345E+02  0.00000000000E+00 0. -1.
        -12    1    4    4    0    0  0.46097915994E+02  0.27124506744E+02 -0.30205112731E+02  0.61425609969E+02  0.00000000000E+00 0.  1.
</event>
<event>
12    1  0.1629553E-001  0.1916878E+03  0.7818608E-02  0.1157133E+00
         21   -1    0    0  503  502  0.00000000000E+00  0.00000000000E+00  0.35212373218E+03  0.35212373218E+03  0.00000000000E+00 0. -1.
         21   -1    0    0  501  503 -0.00000000000E+00 -0.00000000000E+00 -0.46502680204E+03  0.46502680204E+03  0.00000000000E+00 0. -1.
          6    2    1    2  501    0 -0.82939469182E+02  0.94370433923E+01 -0.41652880225E+03  0.45851983798E+03  0.17255777402E+03 0.  0.
         24    2    3    3    0    0 -0.52746767259E+02 -0.48793263057E+02 -0.15202061609E+03  0.18595968244E+03  0.79421230164E+02 0.  0.
         -6    2    1    2    0  502  0.82939469182E+02 -0.94370433923E+01  0.30362573240E+03  0.35863069625E+03  0.17163734321E+03 0.  0.
        -24    2    5    5    0    0  0.48357993592E+02 -0.57825914775E+02  0.26680985551E+03  0.28852463290E+03  0.79853821624E+02 0.  0.
          5    1    3    3  501    0 -0.30192701923E+02  0.58230306449E+02 -0.26450818617E+03  0.27256015554E+03  0.47000000000E+01 0. -1.
        -13    1    4    4    0    0 -0.16826419692E+02  0.18965734352E+02 -0.16519411467E+02  0.30260839948E+02  0.00000000000E+00 0.  1.
         14    1    4    4    0    0 -0.35920347568E+02 -0.67758997408E+02 -0.13550120462E+03  0.15569884249E+03  0.00000000000E+00 0. -1.
         -5    1    5    5    0  502  0.34581475590E+02  0.48388871383E+02  0.36815876882E+02  0.70106063349E+02  0.47000000000E+01 0.  1.
         11    1    6    6    0    0  0.33891291945E+02  0.53528492923E+01  0.40318428760E+02  0.52941933880E+02  0.00000000000E+00 0. -1.
        -12    1    6    6    0    0  0.14466701648E+02 -0.63178764067E+02  0.22649142675E+03  0.23558269902E+03  0.00000000000E+00 0.  1.
</event>
<event>
12    1  0.1629553E-001  0.2567807E+03  0.7818608E-02  0.1109310E+00
         21   -1    0    0  501  502  0.00000000000E+00  0.00000000000E+00  0.18030412191E+04  0.18030412191E+04  0.00000000000E+00 0.  1.
         21   -1    0    0  502  503 -0.00000000000E+00 -0.00000000000E+00 -0.45817784192E+02  0.45817784192E+02  0.00000000000E+00 0.  1.
         -6    2    1    2    0  503 -0.18000066445E+03  0.58476094411E+02  0.45685327397E+03  0.52337838433E+03  0.17143607097E+03 0.  0.
        -24    2    3    3    0    0 -0.65055396598E+02 -0.32974308686E+02  0.19426988435E+03  0.22246690676E+03  0.80194931140E+02 0.  0.
          6    2    1    2  501    0  0.18000066445E+03 -0.58476094411E+02  0.13003701609E+04  0.13254806189E+04  0.17354141567E+03 0.  0.
         24    2    5    5    0    0  0.51963158919E+02 -0.39897784006E+02  0.31498983813E+03  0.33163192473E+03  0.80430916452E+02 0.  0.
          5    1    5    5  501    0  0.12803750553E+03 -0.18578310405E+02  0.98538032276E+03  0.99384869418E+03  0.47000000000E+01 0. -1.
        -11    1    6    6    0    0  0.71456349145E+02 -0.19375409209E+02  0.20166981711E+03  0.21483047141E+03  0.00000000000E+00 0.  1.
         12    1    6    6    0    0 -0.19493190226E+02 -0.20522374797E+02  0.11332002102E+03  0.11680145332E+03  0.00000000000E+00 0. -1.
         -5    1    3    3    0  503 -0.11494526785E+03  0.91450403096E+02  0.26258338962E+03  0.30091147757E+03  0.47000000000E+01 0.  1.
         11    1    4    4    0    0 -0.54397559712E+02 -0.43140925884E+01  0.18115515882E+03  0.18919539493E+03  0.00000000000E+00 0. -1.
        -12    1    4    4    0    0 -0.10657836886E+02 -0.28660216097E+02  0.13114725532E+02  0.33271511832E+02  0.00000000000E+00 0.  1.
</event>
<event>
12    1  0.1629553E-001  0.1905986E+03  0.7818608E-02  0.1159315E+00
         21   -1    0    0  503  502  0.00000000000E+00  0.00000000000E+00  0.73260283765E+02  0.73260283765E+02  0.00000000000E+00 0.  1.
         21   -1    0    0  501  503 -0.00000000000E+00 -0.00000000000E+00 -0.53276771527E+03  0.53276771527E+03  0.00000000000E+00 0.  1.
          6    2    1    2  501    0 -0.75568340233E+02  0.31607065231E+02 -0.32160603717E+03  0.37077364366E+03  0.16532716374E+03 0.  0.
         24    2    3    3    0    0 -0.32980628956E+02  0.58063700978E+02 -0.29813785077E+03  0.31521725339E+03  0.77566897029E+02 0.  0.
         -6    2    1    2    0  502  0.75568340233E+02 -0.31607065231E+02 -0.13790139434E+03  0.23525435538E+03  0.17209949607E+03 0.  0.
        -24    2    5    5    0    0  0.11463150871E+03 -0.19462545379E+02 -0.13418176272E+03  0.19391011572E+03  0.77956488303E+02 0.  0.
          5    1    3    3  501    0 -0.42587711277E+02 -0.26456635747E+02 -0.23468186400E+02  0.55556390269E+02  0.47000000000E+01 0. -1.
        -13    1    4    4    0    0  0.17142096589E+02  0.33508902840E+02 -0.18815219842E+03  0.19188003495E+03  0.00000000000E+00 0.  1.
         14    1    4    4    0    0 -0.50122725545E+02  0.24554798138E+02 -0.10998565235E+03  0.12333721843E+03  0.00000000000E+00 0. -1.
         -5    1    5    5    0  502 -0.39063168481E+02 -0.12144519851E+02 -0.37196316248E+01  0.41344239667E+02  0.47000000000E+01 0.  1.
         13    1    6    6    0    0  0.84578006818E+02 -0.45270625364E+02 -0.71043834519E+02  0.11937376253E+03  0.00000000000E+00 0. -1.
        -14    1    6    6    0    0  0.30053501896E+02  0.25808079984E+02 -0.63137928199E+02  0.74536353184E+02  0.00000000000E+00 0.  1.
</event>
<event>
12    1  0.1629553E-001  0.2873656E+03  0.7818608E-02  0.1092662E+00
         21   -1    0    0  501  502  0.00000000000E+00  0.00000000000E+00  0.70526957968E+02  0.70526957968E+02  0.00000000000E+00 0.  1.
         21   -1    0    0  502  503 -0.00000000000E+00 -0.00000000000E+00 -0.11467538182E+04  0.11467538182E+04  0.00000000000E+00 0.  1.
         -6    2    1    2    0  503 -0.21270469139E+03 -0.62714657986E+02 -0.56743536190E+03  0.63294542772E+03  0.17164093471E+03 0.  0.
        -24    2    3    3    0    0 -0.77408721336E+02 -0.89997163394E+02 -0.29440944946E+03  0.32698044038E+03  0.78407173784E+02 0.  0.
          6    2    1    2  501    0  0.21270469139E+03  0.62714657986E+02 -0.50879149837E+03  0.58433534849E+03  0.18276377271E+03 0.  0.
         24    2    5    5    0    0  0.12556663009E+03 -0.36944937772E+02 -0.30944973345E+03  0.34499394799E+03  0.78292908966E+02 0.  0.
          5    1    5    5  501    0  0.87138061298E+02  0.99659595758E+02 -0.19934176492E+03  0.23934140050E+03  0.47000000000E+01 0. -1.
        -11    1    6    6    0    0  0.65744988730E+02  0.46453834873E+01 -0.76807131816E+02  0.10120928134E+03  0.00000000000E+00 0.  1.
         12    1    6    6    0    0  0.59821641361E+02 -0.41590321260E+02 -0.23264260164E+03  0.24378466665E+03  0.00000000000E+00 0. -1.
         -5    1    3    3    0  503 -0.13529597005E+03  0.27282505408E+02 -0.27302591244E+03  0.30596498734E+03  0.47000000000E+01 0.  1.
         11    1    4    4    0    0 -0.33494345983E+02 -0.70563291648E+01 -0.27049370072E+02  0.43627186655E+02  0.00000000000E+00 0. -1.
        -12    1    4    4    0    0 -0.43914375353E+02 -0.82940834229E+02 -0.26736007939E+03  0.28335325372E+03  0.00000000000E+00 0.  1.
</event>
<event>
12    1  0.1629553E-001  0.1898376E+03  0.7818608E-02  0.1159358E+00
         21   -1    0    0  501  502  0.00000000000E+00  0.00000000000E+00  0.11295510560E+03  0.11295510560E+03  0.00000000000E+00 0.  1.
         21   -1    0    0  502  503 -0.00000000000E+00 -0.00000000000E+00 -0.33147700082E+03  0.33147700082E+03  0.00000000000E+00 0. -1.
         -6    2    1    2    0  503  0.65133968782E+02 -0.50357879659E+02 -0.16004941307E+03  0.24579340750E+03  0.16739245686E+03 0.  0.
        -24    2    3    3    0    0  0.84117710957E+02  0.11460315615E+02 -0.71715105773E+02  0.13621735364E+03  0.78771713869E+02 0.  0.
          6    2    1    2  501    0 -0.65133968782E+02  0.50357879659E+02 -0.58472482151E+02  0.19863869893E+03  0.17105540509E+03 0.  0.
         24    2    5    5    0    0 -0.34363522086E+02 -0.21760968377E+02 -0.76875301309E+02  0.11796216959E+03  0.79692346617E+02 0.  0.
          5    1    5    5  501    0 -0.30770446696E+02  0.72118848036E+02  0.18402819158E+02  0.80676529331E+02  0.47000000000E+01 0. -1.
        -13    1    6    6    0    0 -0.59926825414E+02 -0.21052505930E+02 -0.59598496435E+02  0.87100018298E+02  0.00000000000E+00 0.  1.
         14    1    6    6    0    0  0.25563303327E+02 -0.70846244698E+00 -0.17276804874E+02  0.30862151297E+02  0.00000000000E+00 0. -1.
         -5    1    3    3    0  503 -0.18983742175E+02 -0.61818195273E+02 -0.88334307296E+02  0.10957605386E+03  0.47000000000E+01 0.  1.
         13    1    4    4    0    0  0.31104473904E+02 -0.11929104964E+02 -0.70823044600E+02  0.78266822400E+02  0.00000000000E+00 0. -1.
        -14    1    4    4    0    0  0.53013237053E+02  0.23389420579E+02 -0.89206117339E+00  0.57950531240E+02  0.00000000000E+00 0.  1.
</event>
<event>
12    1  0.1629553E-001  0.3592445E+03  0.7818608E-02  0.1058895E+00
         21   -1    0    0  501  502  0.00000000000E+00  0.00000000000E+00  0.11312634656E+04  0.11312634656E+04  0.00000000000E+00 0. -1.
         21   -1    0    0  502  503 -0.00000000000E+00 -0.00000000000E+00 -0.18997707970E+03  0.18997707970E+03  0.00000000000E+00 0. -1.
         -6    2    1    2    0  503 -0.55850796543E+02 -0.31018022310E+03  0.52945650941E+02  0.36300995520E+03  0.17216824139E+03 0.  0.
        -24    2    3    3    0    0  0.21514560198E+01 -0.24675763855E+03 -0.42824188947E+01  0.25964735311E+03  0.80650157603E+02 0.  0.
          6    2    1    2  501    0  0.55850796543E+02  0.31018022310E+03  0.88834073499E+03  0.95823059012E+03  0.17241090491E+03 0.  0.
         24    2    5    5    0    0 -0.32449520640E+01  0.17070558740E+03  0.62294412200E+03  0.65261165469E+03  0.93229101811E+02 0.  0.
          5    1    5    5  501    0  0.59095748607E+02  0.13947463571E+03  0.26539661299E+03  0.30561893543E+03  0.47000000000E+01 0. -1.
        -11    1    6    6    0    0 -0.29481864203E+02  0.19833095781E+02  0.65514138190E+02  0.74529419077E+02  0.00000000000E+00 0.  1.
         12    1    6    6    0    0  0.26236912139E+02  0.15087249162E+03  0.55742998381E+03  0.57808223562E+03  0.00000000000E+00 0. -1.
         -5    1    3    3    0  503 -0.58002252563E+02 -0.63422584554E+02  0.57228069836E+02  0.10336260209E+03  0.47000000000E+01 0.  1.
         13    1    4    4    0    0  0.20486934494E+02 -0.55526646072E+02 -0.29083218880E+02  0.65945102391E+02  0.00000000000E+00 0. -1.
        -14    1    4    4    0    0 -0.18335478474E+02 -0.19123099248E+03  0.24800799985E+02  0.19370225072E+03  0.00000000000E+00 0.  1.
</event>
<event>
12    1  0.1629553E-001  0.2052099E+03  0.7818608E-02  0.1146106E+00
         21   -1    0    0  503  502  0.00000000000E+00  0.00000000000E+00  0.89004548092E+02  0.89004548092E+02  0.00000000000E+00 0. -1.
         21   -1    0    0  501  503 -0.00000000000E+00 -0.00000000000E+00 -0.13682975443E+04  0.13682975443E+04  0.00000000000E+00 0. -1.
          6    2    1    2  501    0  0.32762268550E+02 -0.10129248629E+03 -0.12297362240E+04  0.12461931501E+04  0.17150117475E+03 0.  0.
         24    2    3    3    0    0  0.20718723526E+02 -0.74490776879E+02 -0.39173476209E+03  0.40766353308E+03  0.82190577501E+02 0.  0.
         -6    2    1    2    0  502 -0.32762268550E+02  0.10129248629E+03 -0.49556772218E+02  0.21110894221E+03  0.17543539492E+03 0.  0.
        -24    2    5    5    0    0  0.49574258020E+02  0.49419926497E+02 -0.11784027616E+02  0.10661522804E+03  0.79548773403E+02 0.  0.
          5    1    3    3  501    0  0.12043545024E+02 -0.26801709411E+02 -0.83800146187E+03  0.83852961707E+03  0.47000000000E+01 0. -1.
        -13    1    4    4    0    0 -0.12688100814E+02  0.77985656418E+01 -0.17240871132E+02  0.22782738328E+02  0.00000000000E+00 0.  1.
         14    1    4    4    0    0  0.33406824340E+02 -0.82289342521E+02 -0.37449389096E+03  0.38488079475E+03  0.00000000000E+00 0. -1.
         -5    1    5    5    0  502 -0.82336526570E+02  0.51872559793E+02 -0.37772744602E+02  0.10449371417E+03  0.47000000000E+01 0.  1.
         13    1    6    6    0    0  0.44920948701E+02  0.64179569989E+02 -0.28937656457E+02  0.83512255373E+02  0.00000000000E+00 0. -1.
        -14    1    6    6    0    0  0.46533093186E+01 -0.14759643492E+02  0.17153628841E+02  0.23102972667E+02  0.00000000000E+00 0.  1.
</event>
<event>
12    1  0.1629553E-001  0.2618189E+03  0.7818608E-02  0.1106341E+00
         21   -1    0    0  501  502  0.00000000000E+00  0.00000000000E+00  0.24427026732E+03  0.24427026732E+03  0.00000000000E+00 0. -1.
         21   -1    0    0  502  503 -0.00000000000E+00 -0.00000000000E+00 -0.35402241771E+03  0.35402241771E+03  0.00000000000E+00 0.  1.
         -6    2    1    2    0  503 -0.12917967967E+03 -0.14956893490E+03  0.83374847590E+02  0.27295107497E+03  0.16879771382E+03 0.  0.
        -24    2    3    3    0    0 -0.76294306359E+02 -0.16076649751E+03  0.96322566824E+02  0.21716593759E+03  0.78843640633E+02 0.  0.
          6    2    1    2  501    0  0.12917967967E+03  0.14956893490E+03 -0.19312699797E+03  0.32534161006E+03  0.17172905976E+03 0.  0.
         24    2    5    5    0    0  0.83780696954E+02  0.12268386117E+03 -0.21032511580E+03  0.26964834227E+03  0.80018992593E+02 0.  0.
          5    1    5    5  501    0  0.45398982715E+02  0.26885073726E+02  0.17198117831E+02  0.55693267796E+02  0.47000000000E+01 0. -1.
        -11    1    6    6    0    0  0.80272338159E+02  0.94022416494E+02 -0.11078136374E+03  0.16600112538E+03  0.00000000000E+00 0.  1.
         12    1    6    6    0    0  0.35083587959E+01  0.28661444675E+02 -0.99543752065E+02  0.10364721688E+03  0.00000000000E+00 0. -1.
         -5    1    3    3    0  503 -0.52885373311E+02  0.11197562610E+02 -0.12947719234E+02  0.55785137376E+02  0.47000000000E+01 0.  1.
         11    1    4    4    0    0  0.45354906682E+01 -0.55506499053E+02  0.54739566778E+02  0.78089450528E+02  0.00000000000E+00 0. -1.
        -12    1    4    4    0    0 -0.80829797027E+02 -0.10525999845E+03  0.41583000046E+02  0.13907648707E+03  0.00000000000E+00 0.  1.
</event>
<event>
12    1  0.1629553E-001  0.2375823E+03  0.7818608E-02  0.1121451E+00
         21   -1    0    0  503  502  0.00000000000E+00  0.00000000000E+00  0.33090035763E+03  0.33090035763E+03  0.00000000000E+00 0.  1.
         21   -1    0    0  501  503 -0.00000000000E+00 -0.00000000000E+00 -0.22881156498E+03  0.22881156498E+03  0.00000000000E+00 0.  1.
          6    2    1    2  501    0 -0.13723934044E+03  0.89772763834E+02 -0.90308048845E+02  0.25416708397E+03  0.17190572183E+03 0.  0.
         24    2    3    3    0    0 -0.15862313763E+03  0.78544457984E+02 -0.10809755674E+03  0.22380430699E+03  0.84099669355E+02 0.  0.
         -6    2    1    2    0  502  0.13723934044E+03 -0.89772763834E+02  0.19239684150E+03  0.30554483863E+03  0.17160220892E+03 0.  0.
        -24    2    5    5    0    0  0.39967005571E+02 -0.94829641016E+02  0.15090551389E+03  0.19956795718E+03  0.80404434317E+02 0.  0.
          5    1    3    3  501    0  0.21383797190E+02  0.11228305851E+02  0.17789507894E+02  0.30362776975E+02  0.47000000000E+01 0. -1.
        -11    1    4    4    0    0 -0.63803099563E+02  0.61466463864E+02 -0.89010821021E+02  0.12558617739E+03  0.00000000000E+00 0.  1.
         12    1    4    4    0    0 -0.94820038064E+02  0.17077994120E+02 -0.19086735718E+02  0.98218129600E+02  0.00000000000E+00 0. -1.
         -5    1    5    5    0  502  0.97272334867E+02  0.50568771821E+01  0.41491327600E+02  0.10597688146E+03  0.47000000000E+01 0.  1.
         11    1    6    6    0    0  0.48802225105E+02 -0.47391035968E+02  0.40727176857E+02  0.79286003810E+02  0.00000000000E+00 0. -1.
        -12    1    6    6    0    0 -0.88352195345E+01 -0.47438605048E+02  0.11017833704E+03  0.12028195337E+03  0.00000000000E+00 0.  1.
</event>
<event>
12    1  0.1629553E-001  0.2053749E+03  0.7818608E-02  0.1146424E+00
         21   -1    0    0  503  502  0.00000000000E+00  0.00000000000E+00  0.13965197423E+04  0.13965197423E+04  0.00000000000E+00 0. -1.
         21   -1    0    0  501  503 -0.00000000000E+00 -0.00000000000E+00 -0.45380209044E+02  0.45380209044E+02  0.00000000000E+00 0.  1.
          6    2    1    2  501    0 -0.84123978484E+02 -0.72068506149E+02  0.24176034784E+03  0.31367079077E+03  0.16634478009E+03 0.  0.
         24    2    3    3    0    0  0.19605299267E+02 -0.11340175821E+02  0.92279086810E+02  0.12179992126E+03  0.76202517087E+02 0.  0.
         -6    2    1    2    0  502  0.84123978484E+02  0.72068506149E+02  0.11093791854E+04  0.11282291606E+04  0.17293972475E+03 0.  0.
        -24    2    5    5    0    0  0.43469328944E+02  0.51122280617E+02  0.29445514842E+03  0.31200932440E+03  0.78376743646E+02 0.  0.
          5    1    3    3  501    0 -0.10372927775E+03 -0.60728330328E+02  0.14948126103E+03  0.19187086951E+03  0.47000000000E+01 0. -1.
        -11    1    4    4    0    0 -0.32504576049E+01 -0.41170379027E+02  0.40704382350E+02  0.57986311543E+02  0.00000000000E+00 0.  1.
         12    1    4    4    0    0  0.22855756872E+02  0.29830203205E+02  0.51574704460E+02  0.63813609721E+02  0.00000000000E+00 0. -1.
         -5    1    5    5    0  502  0.40654649540E+02  0.20946225532E+02  0.81492403701E+03  0.81621983619E+03  0.47000000000E+01 0.  1.
         13    1    6    6    0    0 -0.36782019646E+01  0.17155634383E+02  0.20232696742E+03  0.20308630359E+03  0.00000000000E+00 0. -1.
        -14    1    6    6    0    0  0.47147530908E+02  0.33966646234E+02  0.92128181008E+02  0.10892302081E+03  0.00000000000E+00 0.  1.
</event>
<event>
12    1  0.1629553E-001  0.1743499E+03  0.7818608E-02  0.1173811E+00
         21   -1    0    0  503  502  0.00000000000E+00  0.00000000000E+00  0.41226061871E+03  0.41226061871E+03  0.00000000000E+00 0. -1.
         21   -1    0    0  501  503 -0.00000000000E+00 -0.00000000000E+00 -0.73054502342E+02  0.73054502342E+02  0.00000000000E+00 0. -1.
          6    2    1    2  501    0  0.13312029830E+02 -0.35120486352E+01  0.17345795147E+03  0.24475254421E+03  0.17212379948E+03 0.  0.
         24    2    3    3    0    0 -0.29702083387E+02 -0.16704777705E+02  0.17795558662E+03  0.19929288344E+03  0.82995175903E+02 0.  0.
         -6    2    1    2    0  502 -0.13312029830E+02  0.35120486352E+01  0.16574816490E+03  0.24056257684E+03  0.17380550792E+03 0.  0.
        -24    2    5    5    0    0  0.13904919123E+01  0.61774351186E+02  0.59011595553E+02  0.11798425380E+03  0.81362840425E+02 0.  0.
          5    1    3    3  501    0  0.43014113217E+02  0.13192729070E+02 -0.44976351501E+01  0.45459660779E+02  0.47000000000E+01 0. -1.
        -13    1    4    4    0    0  0.11601095655E+02  0.26968292993E+02  0.51574290813E+02  0.59344601441E+02  0.00000000000E+00 0.  1.
         14    1    4    4    0    0 -0.41303179043E+02 -0.43673070699E+02  0.12638129581E+03  0.13994828199E+03  0.00000000000E+00 0. -1.
         -5    1    5    5    0  502 -0.14702521742E+02 -0.58262302550E+02  0.10673656935E+03  0.12257832304E+03  0.47000000000E+01 0.  1.
         13    1    6    6    0    0  0.14278577275E+02 -0.13225104304E+02  0.31573649917E+02  0.37090113534E+02  0.00000000000E+00 0. -1.
        -14    1    6    6    0    0 -0.12888085363E+02  0.74999455490E+02  0.27437945636E+02  0.80894140263E+02  0.00000000000E+00 0.  1.
</event>
<event>
12    1  0.1629553E-001  0.1959065E+03  0.7818608E-02  0.1153489E+00
         21   -1    0    0  501  502  0.00000000000E+00  0.00000000000E+00  0.10537473908E+04  0.10537473908E+04  0.00000000000E+00 0. -1.
         21   -1    0    0  502  503 -0.00000000000E+00 -0.00000000000E+00 -0.40929036303E+02  0.40929036303E+02  0.00000000000E+00 0. -1.
         -6    2    1    2    0  503  0.79383379512E+02  0.39286914272E+02  0.31920830816E+03  0.37393081629E+03  0.17345065234E+03 0.  0.
        -24    2    3    3    0    0 -0.54692384369E+01  0.17054031580E+00  0.63441705357E+02  0.10159150111E+03  0.79158331626E+02 0.  0.
          6    2    1    2  501    0 -0.79383379512E+02 -0.39286914272E+02  0.69361004633E+03  0.72074561081E+03  0.17474025452E+03 0.  0.
         24    2    5    5    0    0 -0.76362018780E+02  0.22834004480E+02  0.26311596205E+03  0.28575666408E+03  0.77937872131E+02 0.  0.
          5    1    5    5  501    0 -0.30213607321E+01 -0.62120918751E+02  0.43049408429E+03  0.43498894672E+03  0.47000000000E+01 0. -1.
        -11    1    6    6    0    0 -0.36019020259E+02 -0.23579953506E+02  0.62240649154E+02  0.75678811003E+02  0.00000000000E+00 0.  1.
         12    1    6    6    0    0 -0.40342998521E+02  0.46413957986E+02  0.20087531289E+03  0.21007785308E+03  0.00000000000E+00 0. -1.
         -5    1    3    3    0  503  0.84852617949E+02  0.39116373956E+02  0.25576660280E+03  0.27233931518E+03  0.47000000000E+01 0.  1.
         13    1    4    4    0    0  0.30471681737E+02  0.20421642829E+02  0.20402535673E+02  0.41974162833E+02  0.00000000000E+00 0. -1.
        -14    1    4    4    0    0 -0.35940920173E+02 -0.20251102513E+02  0.43039169685E+02  0.59617338276E+02  0.00000000000E+00 0.  1.
</event>
<event>
12    1  0.1629553E-001  0.1799573E+03  0.7818608E-02  0.1167850E+00
         21   -1    0    0  501  502  0.00000000000E+00  0.00000000000E+00  0.14241960580E+03  0.14241960580E+03  0.00000000000E+00 0. -1.
         21   -1    0    0  502  503 -0.00000000000E+00 -0.00000000000E+00 -0.23594775695E+03  0.23594775695E+03  0.00000000000E+00 0. -1.
         -6    2    1    2    0  503 -0.14618634194E+01 -0.53278064665E+02 -0.82859153506E+02  0.19809408878E+03  0.17185732301E+03 0.  0.
        -24    2    3    3    0    0 -0.57269379844E+02 -0.23800373163E+02 -0.84908199389E+02  0.13477188277E+03  0.84307878820E+02 0.  0.
          6    2    1    2  501    0  0.14618634194E+01  0.53278064665E+02 -0.10668997639E+02  0.18027327397E+03  0.17188349711E+03 0.  0.
         24    2    5    5    0    0 -0.36282108052E+02  0.78238379968E+02  0.27359684778E+02  0.12097828760E+03  0.80309141784E+02 0.  0.
          5    1    5    5  501    0  0.37743971471E+02 -0.24960315303E+02 -0.38028682417E+02  0.59294986372E+02  0.47000000000E+01 0. -1.
        -11    1    6    6    0    0  0.12242197939E+02 -0.10872883006E+02  0.34541182294E+01  0.16733855742E+02  0.00000000000E+00 0.  1.
         12    1    6    6    0    0 -0.48524305991E+02  0.89111262974E+02  0.23905566549E+02  0.10424443185E+03  0.00000000000E+00 0. -1.
         -5    1    3    3    0  503  0.55807516424E+02 -0.29477691502E+02  0.20490458835E+01  0.63322206016E+02  0.47000000000E+01 0.  1.
         13    1    4    4    0    0  0.70544384635E+01 -0.27487647873E+02 -0.58730776408E+02  0.65227601405E+02  0.00000000000E+00 0. -1.
        -14    1    4    4    0    0 -0.64323818307E+02  0.36872747102E+01 -0.26177422981E+02  0.69544281363E+02  0.00000000000E+00 0.  1.
</event>
<event>
12    1  0.1629553E-001  0.1881645E+03  0.7818608E-02  0.1160188E+00
         21   -1    0    0  503  502  0.00000000000E+00  0.00000000000E+00  0.15344363806E+04  0.15344363806E+04  0.00000000000E+00 0. -1.
         21   -1    0    0  501  503 -0.00000000000E+00 -0.00000000000E+00 -0.76001639386E+02  0.76001639386E+02  0.00000000000E+00 0. -1.
          6    2    1    2  501    0 -0.30824762266E+02  0.69437228112E+02  0.56895303525E+02  0.19632392467E+03  0.17185550098E+03 0.  0.
         24    2    3    3    0    0 -0.48307705708E+02  0.10893273787E+03  0.48587308177E+02  0.15208975926E+03  0.81059191615E+02 0.  0.
         -6    2    1    2    0  502  0.30824762266E+02 -0.69437228112E+02  0.14015394377E+04  0.14141140954E+04  0.17214582355E+03 0.  0.
        -24    2    5    5    0    0 -0.71645590057E+01 -0.88707516868E+02  0.60997310866E+03  0.62138849601E+03  0.78333359566E+02 0.  0.
          5    1    3    3  501    0  0.17482943442E+02 -0.39495509760E+02  0.83079953481E+01  0.44234165407E+02  0.47000000000E+01 0. -1.
        -11    1    4    4    0    0 -0.12615462730E+01 -0.56660354716E+01 -0.12636979458E+02  0.13906426816E+02  0.00000000000E+00 0.  1.
         12    1    4    4    0    0 -0.47046159435E+02  0.11459877334E+03  0.61224287635E+02  0.13818333245E+03  0.00000000000E+00 0. -1.
         -5    1    5    5    0  502  0.37989321272E+02  0.19270288756E+02  0.79156632907E+03  0.79272559935E+03  0.47000000000E+01 0.  1.
         11    1    6    6    0    0  0.90904547950E+01 -0.98825634765E+02  0.52300466921E+03  0.53233732395E+03  0.00000000000E+00 0. -1.
        -12    1    6    6    0    0 -0.16255013801E+02  0.10118117897E+02  0.86968439454E+02  0.89051172056E+02  0.00000000000E+00 0.  1.
</event>
<event>
12    1  0.1629553E-001  0.1847920E+03  0.7818608E-02  0.1163310E+00
         21   -1    0    0  501  502  0.00000000000E+00  0.00000000000E+00  0.79708677604E+03  0.79708677604E+03  0.00000000000E+00 0. -1.
         21   -1    0    0  502  503 -0.00000000000E+00 -0.00000000000E+00 -0.68212997386E+02  0.68212997386E+02  0.00000000000E+00 0.  1.
         -6    2    1    2    0  503  0.67793713879E+02  0.13732375524E+01  0.10040798322E+03  0.21030894189E+03  0.17190175835E+03 0.  0.
        -24    2    3    3    0    0  0.22924690515E+02  0.36673912542E+02 -0.47386279636E+01  0.90570615714E+02  0.79435914670E+02 0.  0.
          6    2    1    2  501    0 -0.67793713879E+02 -0.13732375524E+01  0.62846579544E+03  0.65499083154E+03  0.17159796019E+03 0.  0.
         24    2    5    5    0    0 -0.72057607806E+02  0.40441353814E+02  0.57731795658E+03  0.58862192118E+03  0.79699066256E+02 0.  0.
          5    1    5    5  501    0  0.42638939266E+01 -0.41814591366E+02  0.51147838860E+02  0.66368910361E+02  0.47000000000E+01 0. -1.
        -11    1    6    6    0    0 -0.22161725805E+02 -0.20387470976E+01  0.29783462181E+02  0.37180010757E+02  0.00000000000E+00 0.  1.
         12    1    6    6    0    0 -0.49895882001E+02  0.42480100911E+02  0.54753449440E+03  0.55144191042E+03  0.00000000000E+00 0. -1.
         -5    1    3    3    0  503  0.44869023365E+02 -0.35300674990E+02  0.10514661118E+03  0.11973832618E+03  0.47000000000E+01 0.  1.
         13    1    4    4    0    0 -0.11683486539E+02  0.45724950681E+02 -0.20532408658E+02  0.51467026121E+02  0.00000000000E+00 0. -1.
        -14    1    4    4    0    0  0.34608177054E+02 -0.90510381383E+01  0.15793780695E+02  0.39103589592E+02  0.00000000000E+00 0.  1.
</event>
<event>
12    1  0.1629553E-001  0.2200570E+03  0.7818608E-02  0.1135719E+00
         21   -1    0    0  503  502  0.00000000000E+00  0.00000000000E+00  0.31090927596E+03  0.31090927596E+03  0.00000000000E+00 0.  1.
         21   -1    0    0  501  503 -0.00000000000E+00 -0.00000000000E+00 -0.19344802541E+03  0.19344802541E+03  0.00000000000E+00 0.  1.
          6    2    1    2  501    0  0.47666337131E+02  0.11792573773E+03 -0.61270333440E+02  0.22842755336E+03  0.17957319973E+03 0.  0.
         24    2    3    3    0    0  0.43142848873E+02  0.75788949221E+02 -0.11198684740E+03  0.16216877523E+03  0.78437155961E+02 0.  0.
         -6    2    1    2    0  502 -0.47666337131E+02 -0.11792573773E+03  0.17873158398E+03  0.27592974801E+03  0.16737289927E+03 0.  0.
        -24    2    5    5    0    0 -0.91010847427E+01 -0.12601798241E+03  0.17695604152E+03  0.23620562855E+03  0.92283783475E+02 0.  0.
          5    1    3    3  501    0  0.45234882575E+01  0.42136788505E+02  0.50716513959E+02  0.66258778133E+02  0.47000000000E+01 0. -1.
        -13    1    4    4    0    0  0.52820767278E+02  0.15591087674E+02 -0.64992296906E+02  0.85188697184E+02  0.00000000000E+00 0.  1.
         14    1    4    4    0    0 -0.96779184046E+01  0.60197861547E+02 -0.46994550493E+02  0.76980078043E+02  0.00000000000E+00 0. -1.
         -5    1    5    5    0  502 -0.38565252388E+02  0.80922446885E+01  0.17755424610E+01  0.39724119460E+02  0.47000000000E+01 0.  1.
         11    1    6    6    0    0 -0.47984168222E+02 -0.42211199325E+02  0.77703828023E+02  0.10060889940E+03  0.00000000000E+00 0. -1.
        -12    1    6    6    0    0  0.38883083480E+02 -0.83806783089E+02  0.99252213498E+02  0.13559672915E+03  0.00000000000E+00 0.  1.
</event>
<event>
12    1  0.1629553E-001  0.2000517E+03  0.7818608E-02  0.1152145E+00
         21   -1    0    0  503  502  0.00000000000E+00  0.00000000000E+00  0.10889533518E+03  0.10889533518E+03  0.00000000000E+00 0.  1.
         21   -1    0    0  501  503 -0.00000000000E+00 -0.00000000000E+00 -0.35697526135E+03  0.35697526135E+03  0.00000000000E+00 0.  1.
          6    2    1    2  501    0 -0.97239243370E+02 -0.31090468364E+02 -0.16622654840E+03  0.26009984265E+03  0.17204236419E+03 0.  0.
         24    2    3    3    0    0  0.11841749252E+02 -0.35743302058E+02 -0.99540543719E+02  0.13207865287E+03  0.78221736312E+02 0.  0.
         -6    2    1    2    0  502  0.97239243370E+02  0.31090468364E+02 -0.81853377764E+02  0.20577075388E+03  0.15880661204E+03 0.  0.
        -24    2    5    5    0    0  0.10160829022E+03 -0.25640318179E+02 -0.39942322806E+02  0.13494634256E+03  0.75056349905E+02 0.  0.
          5    1    3    3  501    0 -0.10908099262E+03  0.46528336935E+01 -0.66686004686E+02  0.12802118978E+03  0.47000000000E+01 0. -1.
        -11    1    4    4    0    0 -0.26684050223E+02  0.70570051992E+01 -0.20964532260E+02  0.34660517474E+02  0.00000000000E+00 0.  1.
         12    1    4    4    0    0  0.38525799475E+02 -0.42800307257E+02 -0.78576011459E+02  0.97418135392E+02  0.00000000000E+00 0. -1.
         -5    1    5    5    0  502 -0.43690468487E+01  0.56730786543E+02 -0.41911054958E+02  0.70824411327E+02  0.47000000000E+01 0.  1.
         13    1    6    6    0    0  0.45880820953E+02 -0.43358534830E+02 -0.43015238897E+02  0.76389286234E+02  0.00000000000E+00 0. -1.
        -14    1    6    6    0    0  0.55727469265E+02  0.17718216651E+02  0.30729160913E+01  0.58557056323E+02  0.00000000000E+00 0.  1.
</event>
<event>
12    1  0.1629553E-001  0.1790528E+03  0.7818608E-02  0.1169184E+00
         21   -1    0    0  501  502  0.00000000000E+00  0.00000000000E+00  0.24928716220E+02  0.24928716220E+02  0.00000000000E+00 0. -1.
         21   -1    0    0  502  503 -0.00000000000E+00 -0.00000000000E+00 -0.18022737742E+04  0.18022737742E+04  0.00000000000E+00 0. -1.
         -6    2    1    2    0  503  0.49785748081E+02  0.42352631736E+01 -0.13806426846E+04  0.13919638503E+04  0.16997817513E+03 0.  0.
        -24    2    3    3    0    0 -0.17237673992E+02  0.35261983266E+02 -0.44139803973E+03  0.44980813639E+03  0.77165958908E+02 0.  0.
          6    2    1    2  501    0 -0.49785748081E+02 -0.42352631736E+01 -0.39670237345E+03  0.43523864013E+03  0.17193993890E+03 0.  0.
         24    2    5    5    0    0 -0.16685640298E+02  0.55527851598E+02 -0.30483934268E+03  0.32066048582E+03  0.80835446574E+02 0.  0.
          5    1    5    5  501    0 -0.33100107783E+02 -0.59763114771E+02 -0.91863030772E+02  0.11457815431E+03  0.47000000000E+01 0. -1.
        -11    1    6    6    0    0  0.14339170031E+02  0.64947208494E+02 -0.18862076186E+03  0.20000385870E+03  0.00000000000E+00 0.  1.
         12    1    6    6    0    0 -0.31024810329E+02 -0.94193568964E+01 -0.11621858082E+03  0.12065662712E+03  0.00000000000E+00 0. -1.
         -5    1    3    3    0  503  0.67023422073E+02 -0.31026720092E+02 -0.93924464484E+03  0.94215571395E+03  0.47000000000E+01 0.  1.
         11    1    4    4    0    0  0.15690006599E+02  0.27145808210E+02 -0.36347945221E+03  0.36482925238E+03  0.00000000000E+00 0. -1.
        -12    1    4    4    0    0 -0.32927680591E+02  0.81161750561E+01 -0.77918587519E+02  0.84978884010E+02  0.00000000000E+00 0.  1.
</event>
<event>
12    1  0.1629553E-001  0.1831829E+03  0.7818608E-02  0.1165063E+00
         21   -1    0    0  501  502  0.00000000000E+00  0.00000000000E+00  0.27907093342E+03  0.27907093342E+03  0.00000000000E+00 0. -1.
         21   -1    0    0  502  503 -0.00000000000E+00 -0.00000000000E+00 -0.16933832056E+03  0.16933832056E+03  0.00000000000E+00 0. -1.
         -6    2    1    2    0  503  0.55694489662E+02 -0.22306944753E+02 -0.67025911808E+02  0.19385172355E+03  0.17171645788E+03 0.  0.
        -24    2    3    3    0    0  0.10329989741E+03 -0.19071877659E+02 -0.39583253945E+02  0.13860744804E+03  0.81305506180E+02 0.  0.
          6    2    1    2  501    0 -0.55694489662E+02  0.22306944753E+02  0.17675852467E+03  0.25455753044E+03  0.17307941615E+03 0.  0.
         24    2    5    5    0    0  0.83264829057E+01 -0.21592744655E+02  0.15207189456E+03  0.17296471602E+03  0.79090801817E+02 0.  0.
          5    1    5    5  501    0 -0.64020972568E+02  0.43899689408E+02  0.24686630103E+02  0.81592814417E+02  0.47000000000E+01 0. -1.
        -11    1    6    6    0    0  0.28680631380E+02 -0.16062995612E+02  0.18465578338E+02  0.37703793280E+02  0.00000000000E+00 0.  1.
         12    1    6    6    0    0 -0.20354148475E+02 -0.55297490436E+01  0.13360631623E+03  0.13526092274E+03  0.00000000000E+00 0. -1.
         -5    1    3    3    0  503 -0.47605407753E+02 -0.32350670939E+01 -0.27442657863E+02  0.55244275514E+02  0.47000000000E+01 0.  1.
         11    1    4    4    0    0  0.67983001272E+02 -0.51183442528E+02 -0.25970479744E+02  0.88971338470E+02  0.00000000000E+00 0. -1.
        -12    1    4    4    0    0  0.35316896143E+02  0.32111564870E+02 -0.13612774201E+02  0.49636109567E+02  0.00000000000E+00 0.  1.
</event>
<event>
12    1  0.1629553E-001  0.2346217E+03  0.7818608E-02  0.1124083E+00
         21   -1    0    0  503  502  0.00000000000E+00  0.00000000000E+00  0.11856952913E+03  0.11856952913E+03  0.00000000000E+00 0. -1.
         21   -1    0    0  501  503 -0.00000000000E+00 -0.00000000000E+00 -0.46418550077E+03  0.46418550077E+03  0.00000000000E+00 0. -1.
          6    2    1    2  501    0 -0.30730204396E+02  0.15653189070E+03 -0.13468508028E+03  0.26725673887E+03  0.16685177659E+03 0.  0.
         24    2    3    3    0    0 -0.83819928470E+02  0.10312335481E+03 -0.98129377351E+02  0.18341522216E+03  0.79696689412E+02 0.  0.
         -6    2    1    2    0  502  0.30730204396E+02 -0.15653189070E+03 -0.21093089136E+03  0.31549829103E+03  0.17204869209E+03 0.  0.
        -24    2    5    5    0    0  0.73524532838E+01 -0.10126439706E+02 -0.41330774002E+02  0.90182146174E+02  0.79170595922E+02 0.  0.
          5    1    3    3  501    0  0.53089724074E+02  0.53408535890E+02 -0.36555702928E+02  0.83841516713E+02  0.47000000000E+01 0. -1.
        -11    1    4    4    0    0  0.10841677297E+02 -0.36779148661E+01 -0.27855461421E+01  0.11782541817E+02  0.00000000000E+00 0.  1.
         12    1    4    4    0    0 -0.94661605766E+02  0.10680126968E+03 -0.95343831209E+02  0.17163268034E+03  0.00000000000E+00 0. -1.
         -5    1    5    5    0  502  0.23377751112E+02 -0.14640545099E+03 -0.16960011735E+03  0.22531614486E+03  0.47000000000E+01 0.  1.
         11    1    6    6    0    0  0.63091159567E+01 -0.38192021797E+02  0.17569670118E+01  0.38749482657E+02  0.00000000000E+00 0. -1.
        -12    1    6    6    0    0  0.10433373271E+01  0.28065582091E+02 -0.43087741013E+02  0.51432663518E+02  0.00000000000E+00 0.  1.
</event>
<event>
12    1  0.1629553E-001  0.1916777E+03  0.7818608E-02  0.1157733E+00
         21   -1    0    0  501  502  0.00000000000E+00  0.00000000000E+00  0.31539575295E+02  0.31539575295E+02  0.00000000000E+00 0.  1.
         21   -1    0    0  502  503 -0.00000000000E+00 -0.00000000000E+00 -0.11606074683E+04  0.11606074683E+04  0.00000000000E+00 0. -1.
         -6    2    1    2    0  503  0.64474473077E+01  0.72717335099E+02 -0.64080018812E+03  0.66885366735E+03  0.17723139346E+03 0.  0.
        -24    2    3    3    0    0 -0.62092280227E+02  0.23619122715E+02 -0.28342672906E+03  0.30163955004E+03  0.79008817100E+02 0.  0.
          6    2    1    2  501    0 -0.64474473077E+01 -0.72717335099E+02 -0.48826770484E+03  0.52329337620E+03  0.17349704778E+03 0.  0.
         24    2    5    5    0    0  0.45942529006E+02 -0.92456549490E+02 -0.34162333780E+03  0.36625514332E+03  0.82324938890E+02 0.  0.
          5    1    5    5  501    0 -0.52389976313E+02  0.19739214390E+02 -0.14664436704E+03  0.15703823288E+03  0.47000000000E+01 0. -1.
        -11    1    6    6    0    0  0.25351440668E+02 -0.88053837855E+02 -0.16803790927E+03  0.19139726450E+03  0.00000000000E+00 0.  1.
         12    1    6    6    0    0  0.20591088338E+02 -0.44027116345E+01 -0.17358542852E+03  0.17485787882E+03  0.00000000000E+00 0. -1.
         -5    1    3    3    0  503  0.68539727535E+02  0.49098212384E+02 -0.35737345906E+03  0.36721411731E+03  0.47000000000E+01 0.  1.
         11    1    4    4    0    0 -0.67142461480E+02  0.46780471404E+01 -0.26902129991E+03  0.27731291723E+03  0.00000000000E+00 0. -1.
        -12    1    4    4    0    0  0.50501812524E+01  0.18941075575E+02 -0.14405429148E+02  0.24326632803E+02  0.00000000000E+00 0.  1.
</event>
<event>
12    1  0.1629553E-001  0.2009451E+03  0.7818608E-02  0.1149115E+00
         21   -1    0    0  503  502  0.00000000000E+00  0.00000000000E+00  0.35176352273E+02  0.35176352273E+02  0.00000000000E+00 0.  1.
         21   -1    0    0  501  503 -0.00000000000E+00 -0.00000000000E+00 -0.12192094360E+04  0.12192094360E+04  0.00000000000E+00 0.  1.
          6    2    1    2  501    0 -0.86555250395E+02 -0.58872948793E+02 -0.74742994202E+03  0.77375991848E+03  0.17057273448E+03 0.  0.
         24    2    3    3    0    0 -0.14248499055E+02 -0.56996292036E+02 -0.61256373239E+03  0.62064959019E+03  0.80746458315E+02 0.  0.
         -6    2    1    2    0  502  0.86555250395E+02  0.58872948793E+02 -0.43660314166E+03  0.48062586975E+03  0.17152576451E+03 0.  0.
        -24    2    5    5    0    0  0.74307279439E+02  0.10098096922E+03 -0.26769886010E+03  0.30605827680E+03  0.79311166795E+02 0.  0.
          5    1    3    3  501    0 -0.72306751340E+02 -0.18766567561E+01 -0.13486620963E+03  0.15311032829E+03  0.47000000000E+01 0. -1.
        -13    1    4    4    0    0 -0.28916882159E+02 -0.32305694435E+02 -0.12622866012E+03  0.13346729413E+03  0.00000000000E+00 0.  1.
         14    1    4    4    0    0  0.14668383104E+02 -0.24690597601E+02 -0.48633507227E+03  0.48718229606E+03  0.00000000000E+00 0. -1.
         -5    1    5    5    0  502  0.12247970956E+02 -0.42108020426E+02 -0.16890428156E+03  0.17456759295E+03  0.47000000000E+01 0.  1.
         11    1    6    6    0    0  0.22334581585E+02  0.83951094865E+02 -0.20623475662E+03  0.22378425928E+03  0.00000000000E+00 0. -1.
        -12    1    6    6    0    0  0.51972697854E+02  0.17029874353E+02 -0.61464103485E+02  0.82274017526E+02  0.00000000000E+00 0.  1.
</event>
<event>
12    1  0.1629553E-001  0.1870108E+03  0.7818608E-02  0.1162856E+00
         21   -1    0    0  501  502  0.00000000000E+00  0.00000000000E+00  0.91321360184E+02  0.91321360184E+02  0.00000000000E+00 0. -1.
         21   -1    0    0  502  503 -0.00000000000E+00 -0.00000000000E+00 -0.46018355063E+03  0.46018355063E+03  0.00000000000E+00 0. -1.
         -6    2    1    2    0  503 -0.59356094222E+02  0.43303934675E+01 -0.31032451224E+03  0.36231801180E+03  0.17728829784E+03 0.  0.
        -24    2    3    3    0    0  0.12936141555E+02  0.21549451795E+02 -0.25843195596E+03  0.27155683772E+03  0.79525578403E+02 0.  0.
          6    2    1    2  501    0  0.59356094222E+02 -0.43303934675E+01 -0.58537678205E+02  0.18918689901E+03  0.16977374579E+03 0.  0.
         24    2    5    5    0    0 -0.29712021553E+02  0.32714640755E+02 -0.12169706287E+02  0.82053605271E+02  0.68056156536E+02 0.  0.
          5    1    5    5  501    0  0.89068115775E+02 -0.37045034222E+02 -0.46367971918E+02  0.10713329374E+03  0.47000000000E+01 0. -1.
        -11    1    6    6    0    0 -0.28449542754E+02  0.31296420729E+02  0.22107370298E+02  0.47723979872E+02  0.00000000000E+00 0.  1.
         12    1    6    6    0    0 -0.12624787991E+01  0.14182200253E+01 -0.34277076586E+02  0.34329625399E+02  0.00000000000E+00 0. -1.
         -5    1    3    3    0  503 -0.72292235777E+02 -0.17219058328E+02 -0.51892556281E+02  0.90761174081E+02  0.47000000000E+01 0.  1.
         11    1    4    4    0    0 -0.59052936957E+01  0.45456103523E+02 -0.20500670831E+03  0.21006875135E+03  0.00000000000E+00 0. -1.
        -12    1    4    4    0    0  0.18841435250E+02 -0.23906651728E+02 -0.53425247648E+02  0.61488086369E+02  0.00000000000E+00 0.  1.
</event>
<event>
12    1  0.1629553E-001  0.1911763E+03  0.7818608E-02  0.1157524E+00
         21   -1    0    0  503  502  0.00000000000E+00  0.00000000000E+00  0.47745839549E+03  0.47745839549E+03  0.00000000000E+00 0. -1.
         21   -1    0    0  501  503 -0.00000000000E+00 -0.00000000000E+00 -0.94404634961E+02  0.94404634961E+02  0.00000000000E+00 0. -1.
          6    2    1    2  501    0  0.79904216917E+02  0.18298427511E+02  0.66646335866E+02  0.20246016332E+03  0.17271035672E+03 0.  0.
         24    2    3    3    0    0  0.17169728649E+02  0.76894727027E+02  0.29223107883E+02  0.10869593598E+03  0.68943584464E+02 0.  0.
         -6    2    1    2    0  502 -0.79904216917E+02 -0.18298427511E+02  0.31640742467E+03  0.36940286713E+03  0.17212002653E+03 0.  0.
        -24    2    5    5    0    0 -0.75412766143E+02 -0.34023368788E+02  0.32949343445E+03  0.34793706735E+03  0.75163851474E+02 0.  0.
          5    1    3    3  501    0  0.62734488268E+02 -0.58596299516E+02  0.37423227983E+02  0.93764227336E+02  0.47000000000E+01 0. -1.
        -11    1    4    4    0    0  0.19559122469E+01 -0.90443894234E+01  0.18602262163E+02  0.20776687184E+02  0.00000000000E+00 0.  1.
         12    1    4    4    0    0  0.15213816402E+02  0.85939116451E+02  0.10620845720E+02  0.87919248800E+02  0.00000000000E+00 0. -1.
         -5    1    5    5    0  502 -0.44914507731E+01  0.15724941277E+02 -0.13086009786E+02  0.21465799783E+02  0.47000000000E+01 0.  1.
         11    1    6    6    0    0  0.68180359913E+01 -0.24196398993E+02  0.12128652019E+03  0.12386432626E+03  0.00000000000E+00 0. -1.
        -12    1    6    6    0    0 -0.82230802135E+02 -0.98269697952E+01  0.20820691426E+03  0.22407274109E+03  0.00000000000E+00 0.  1.
</event>
<event>
12    1  0.1629553E-001  0.2570431E+03  0.7818608E-02  0.1109037E+00
         21   -1    0    0  503  502  0.00000000000E+00  0.00000000000E+00  0.15645002043E+03  0.15645002043E+03  0.00000000000E+00 0.  1.
         21   -1    0    0  501  503 -0.00000000000E+00 -0.00000000000E+00 -0.46899864911E+03  0.46899864911E+03  0.00000000000E+00 0. -1.
          6    2    1    2  501    0  0.70611094231E+02 -0.17703745852E+03 -0.56621052706E+02  0.26320547639E+03  0.17246156339E+03 0.  0.
         24    2    3    3    0    0  0.78193804612E+02 -0.17884131015E+03 -0.89823433502E+02  0.22877816938E+03  0.78566635942E+02 0.  0.
         -6    2    1    2    0  502 -0.70611094231E+02  0.17703745852E+03 -0.25592757597E+03  0.36224319315E+03  0.17144392230E+03 0.  0.
        -24    2    5    5    0    0 -0.27093115664E+02  0.12760344116E+03 -0.25380645537E+03  0.29618166363E+03  0.79304388081E+02 0.  0.
          5    1    3    3  501    0 -0.75827103809E+01  0.18038516313E+01  0.33202380796E+02  0.34427307010E+02  0.47000000000E+01 0. -1.
        -11    1    4    4    0    0  0.30646256134E+02 -0.12000705452E+03 -0.19291111877E+02  0.12535163799E+03  0.00000000000E+00 0.  1.
         12    1    4    4    0    0  0.47547548478E+02 -0.58834255633E+02 -0.70532321625E+02  0.10342653139E+03  0.00000000000E+00 0. -1.
         -5    1    5    5    0  502 -0.43517978567E+02  0.49434017357E+02 -0.21211206039E+01  0.66061529526E+02  0.47000000000E+01 0.  1.
         13    1    6    6    0    0 -0.21389312941E+02  0.34522570859E+02 -0.15535140604E+03  0.16057200866E+03  0.00000000000E+00 0. -1.
        -14    1    6    6    0    0 -0.57038027231E+01  0.93080870302E+02 -0.98455049333E+02  0.13560965497E+03  0.00000000000E+00 0.  1.
</event>
<event>
12    1  0.1629553E-001  0.2128280E+03  0.7818608E-02  0.1139494E+00
         21   -1    0    0  501  502  0.00000000000E+00  0.00000000000E+00  0.28973854309E+03  0.28973854309E+03  0.00000000000E+00 0. -1.
         21   -1    0    0  502  503 -0.00000000000E+00 -0.00000000000E+00 -0.15584422470E+03  0.15584422470E+03  0.00000000000E+00 0. -1.
         -6    2    1    2    0  503  0.34026174284E+02 -0.11959766868E+03  0.62405083680E+02  0.22178856650E+03  0.17272634678E+03 0.  0.
        -24    2    3    3    0    0  0.26592975866E+02 -0.63160020728E+02 -0.31310461284E+02  0.11203815004E+03  0.82920609594E+02 0.  0.
          6    2    1    2  501    0 -0.34026174284E+02  0.11959766868E+03  0.71489234706E+02  0.22379420129E+03  0.17178984534E+03 0.  0.
         24    2    5    5    0    0 -0.28679049824E+02  0.20594525756E+02  0.59039024624E+02  0.12375764907E+03  0.10287724182E+03 0.  0.
          5    1    5    5  501    0 -0.53471244604E+01  0.99003142920E+02  0.12450210082E+02  0.10003655222E+03  0.47000000000E+01 0. -1.
        -13    1    6    6    0    0 -0.28748768576E+02  0.61330048769E+02  0.41261150634E+02  0.79311721254E+02  0.00000000000E+00 0.  1.
         14    1    6    6    0    0  0.69718752272E-01 -0.40735523013E+02  0.17777873990E+02  0.44445927817E+02  0.00000000000E+00 0. -1.
         -5    1    3    3    0  503  0.74331984181E+01 -0.56437647948E+02  0.93715544964E+02  0.10975041646E+03  0.47000000000E+01 0.  1.
         13    1    4    4    0    0 -0.26505889588E+02 -0.41165390114E+02 -0.22536062217E+02  0.53898289642E+02  0.00000000000E+00 0. -1.
        -14    1    4    4    0    0  0.53098865454E+02 -0.21994630614E+02 -0.87743990665E+01  0.58139860400E+02  0.00000000000E+00 0.  1.
</event>
<event>
12    1  0.1629553E-001  0.2218956E+03  0.7818608E-02  0.1133326E+00
         21   -1    0    0  503  502  0.00000000000E+00  0.00000000000E+00  0.21406018972E+04  0.21406018972E+04  0.00000000000E+00 0.  1.
         21   -1    0    0  501  503 -0.00000000000E+00 -0.00000000000E+00 -0.22580807464E+02  0.22580807464E+02  0.00000000000E+00 0.  1.
          6    2    1    2  501    0  0.13522382525E+03  0.32295377574E+02  0.10981320790E+04  0.11194340450E+04  0.16706299379E+03 0.  0.
         24    2    3    3    0    0  0.54386951277E+02 -0.84089964493E+01  0.28913716511E+03  0.30537857580E+03  0.81407141102E+02 0.  0.
         -6    2    1    2    0  502 -0.13522382525E+03 -0.32295377574E+02  0.10198890108E+04  0.10437486597E+04  0.17294275342E+03 0.  0.
        -24    2    5    5    0    0 -0.79346985237E+02  0.76313097474E+01  0.29482962244E+03  0.31542897148E+03  0.78846362163E+02 0.  0.
          5    1    3    3  501    0  0.80836873972E+02  0.40704374023E+02  0.80899491390E+03  0.81405546923E+03  0.47000000000E+01 0. -1.
        -11    1    4    4    0    0  0.24967532171E+02  0.22779465087E+02  0.39058396795E+02  0.51651137961E+02  0.00000000000E+00 0.  1.
         12    1    4    4    0    0  0.29419419106E+02 -0.31188461537E+02  0.25007876831E+03  0.25372743784E+03  0.00000000000E+00 0. -1.
         -5    1    5    5    0  502 -0.55876840012E+02 -0.39926687321E+02  0.72505938833E+03  0.72831968819E+03  0.47000000000E+01 0.  1.
         13    1    6    6    0    0 -0.51280414883E+01 -0.28604517138E+02  0.64685785402E+02  0.70913793040E+02  0.00000000000E+00 0. -1.
        -14    1    6    6    0    0 -0.74218943749E+02  0.36235826886E+02  0.23014383703E+03  0.24451517844E+03  0.00000000000E+00 0.  1.
</event>
<event>
12    1  0.1629553E-001  0.6502733E+03  0.7818608E-02  0.9807181E-01
         21   -1    0    0  503  502  0.00000000000E+00  0.00000000000E+00  0.70700763999E+03  0.70700763999E+03  0.00000000000E+00 0.  1.
         21   -1    0    0  501  503 -0.00000000000E+00 -0.00000000000E+00 -0.71970247862E+03  0.71970247862E+03  0.00000000000E+00 0. -1.
          6    2    1    2  501    0  0.60916500995E+03  0.14011199204E+03 -0.30172448951E+03  0.71509679588E+03  0.17208248096E+03 0.  0.
         24    2    3    3    0    0  0.41338601161E+03  0.37050884282E+02 -0.24214684409E+03  0.48591871238E+03  0.72257444731E+02 0.  0.
         -6    2    1    2    0  502 -0.60916500995E+03 -0.14011199204E+03  0.28902965087E+03  0.71161332273E+03  0.17928190744E+03 0.  0.
        -24    2    5    5    0    0 -0.40299739476E+03 -0.42369009165E+02  0.24219242101E+03  0.47864424247E+03  0.79000689440E+02 0.  0.
          5    1    3    3  501    0  0.19577899834E+03  0.10306110776E+03 -0.59577645419E+02  0.22917808350E+03  0.47000000000E+01 0. -1.
        -11    1    4    4    0    0  0.40078993685E+03  0.49183951042E+02 -0.23220479269E+03  0.46580113812E+03  0.00000000000E+00 0.  1.
         12    1    4    4    0    0  0.12596074761E+02 -0.12133066760E+02 -0.99420513949E+01  0.20117574266E+02  0.00000000000E+00 0. -1.
         -5    1    5    5    0  502 -0.20616761519E+03 -0.97742982879E+02  0.46837229861E+02  0.23296908026E+03  0.47000000000E+01 0.  1.
         13    1    6    6    0    0 -0.48135555575E+01  0.76523067784E+01  0.14917949407E+02  0.17443432307E+02  0.00000000000E+00 0. -1.
        -14    1    6    6    0    0 -0.39818383920E+03 -0.50021315944E+02  0.22727447160E+03  0.46120081016E+03  0.00000000000E+00 0.  1.
</event>
<event>
12    1  0.1629553E-001  0.2615496E+03  0.7818608E-02  0.1106220E+00
         21   -1    0    0  501  502  0.00000000000E+00  0.00000000000E+00  0.43628387720E+03  0.43628387720E+03  0.00000000000E+00 0.  1.
         21   -1    0    0  502  503 -0.00000000000E+00 -0.00000000000E+00 -0.20498463517E+03  0.20498463517E+03  0.00000000000E+00 0. -1.
         -6    2    1    2    0  503  0.14098423422E+03 -0.13760955133E+03 -0.39843098100E+02  0.26453733202E+03  0.17198716419E+03 0.  0.
        -24    2    3    3    0    0  0.91674594130E+02 -0.13302601616E+03 -0.74484164526E+02  0.20391932410E+03  0.99674709882E+02 0.  0.
          6    2    1    2  501    0 -0.14098423422E+03  0.13760955133E+03  0.27114234013E+03  0.37673118035E+03  0.17203276061E+03 0.  0.
         24    2    5    5    0    0  0.80790537025E+00  0.45708249564E+02  0.80884623719E+02  0.12222980753E+03  0.79422331271E+02 0.  0.
          5    1    5    5  501    0 -0.14179213959E+03  0.91901301766E+02  0.19025771641E+03  0.25450137283E+03  0.47000000000E+01 0. -1.
        -11    1    6    6    0    0 -0.32320643091E+01  0.27073034739E+02  0.94787817205E+02  0.98631261475E+02  0.00000000000E+00 0.  1.
         12    1    6    6    0    0  0.40399696794E+01  0.18635214826E+02 -0.13903193486E+02  0.23598546051E+02  0.00000000000E+00 0. -1.
         -5    1    3    3    0  503  0.49309640093E+02 -0.45835351660E+01  0.34641066426E+02  0.60618007917E+02  0.47000000000E+01 0.  1.
         13    1    4    4    0    0  0.77313106710E+02 -0.14679498156E+03 -0.51936903683E+02  0.17384914451E+03  0.00000000000E+00 0. -1.
        -14    1    4    4    0    0  0.14361487419E+02  0.13768965400E+02 -0.22547260843E+02  0.30070179591E+02  0.00000000000E+00 0.  1.
</event>
<event>
12    1  0.1629553E-001  0.1908941E+03  0.7818608E-02  0.1158100E+00
         21   -1    0    0  503  502  0.00000000000E+00  0.00000000000E+00  0.54810919505E+02  0.54810919505E+02  0.00000000000E+00 0.  1.
         21   -1    0    0  501  503 -0.00000000000E+00 -0.00000000000E+00 -0.13311293000E+04  0.13311293000E+04  0.00000000000E+00 0.  1.
          6    2    1    2  501    0 -0.35619390705E+02  0.72568775855E+02 -0.11325582056E+04  0.11485332545E+04  0.17293229707E+03 0.  0.
         24    2    3    3    0    0 -0.40809802418E+02  0.14153174234E+02 -0.99251508992E+03  0.99663365892E+03  0.79540518270E+02 0.  0.
         -6    2    1    2    0  502  0.35619390705E+02 -0.72568775855E+02 -0.14376017487E+03  0.23740696499E+03  0.17076331844E+03 0.  0.
        -24    2    5    5    0    0  0.20112148246E+02 -0.14646206841E+02 -0.15527068504E+03  0.17616906485E+03  0.79420047189E+02 0.  0.
          5    1    3    3  501    0  0.51904117129E+01  0.58415601621E+02 -0.14004311569E+03  0.15189959558E+03  0.47000000000E+01 0. -1.
        -13    1    4    4    0    0 -0.52901527890E+02  0.24028699096E+02 -0.43067439217E+03  0.43457609472E+03  0.00000000000E+00 0.  1.
         14    1    4    4    0    0  0.12091725473E+02 -0.98755248614E+01 -0.56184069775E+03  0.56205756420E+03  0.00000000000E+00 0. -1.
         -5    1    5    5    0  502  0.15507242459E+02 -0.57922569014E+02  0.11510510166E+02  0.61237900144E+02  0.47000000000E+01 0.  1.
         13    1    6    6    0    0  0.42584575595E+02 -0.32188441533E+02 -0.11546690567E+03  0.12720907260E+03  0.00000000000E+00 0. -1.
        -14    1    6    6    0    0 -0.22472427349E+02  0.17542234692E+02 -0.39803779368E+02  0.48959992248E+02  0.00000000000E+00 0.  1.
</event>
<event>
12    1  0.1629553E-001  0.2219597E+03  0.7818608E-02  0.1132789E+00
         21   -1    0    0  501  502  0.00000000000E+00  0.00000000000E+00  0.12074673364E+03  0.12074673364E+03  0.00000000000E+00 0.  1.
         21   -1    0    0  502  503 -0.00000000000E+00 -0.00000000000E+00 -0.59664492398E+03  0.59664492398E+03  0.00000000000E+00 0.  1.
         -6    2    1    2    0  503  0.12443421974E+03  0.52989239631E+02 -0.44081711456E+03  0.49267674429E+03  0.17354800867E+03 0.  0.
        -24    2    3    3    0    0  0.14198313689E+03  0.33684441582E+02 -0.25385405109E+03  0.30384370474E+03  0.81149645043E+02 0.  0.
          6    2    1    2  501    0 -0.12443421974E+03 -0.52989239631E+02 -0.35081075777E+02  0.22471491334E+03  0.17599538585E+03 0.  0.
         24    2    5    5    0    0 -0.11399130961E+03 -0.42457846132E+02 -0.84045162890E+02  0.17333849416E+03  0.90476277477E+02 0.  0.
          5    1    5    5  501    0 -0.10442910124E+02 -0.10531393499E+02  0.48964087113E+02  0.51376419180E+02  0.47000000000E+01 0. -1.
        -11    1    6    6    0    0 -0.74705091462E+02 -0.70141636327E+02 -0.66579905521E+02  0.12220304275E+03  0.00000000000E+00 0.  1.
         12    1    6    6    0    0 -0.39286218152E+02  0.27683790195E+02 -0.17465257369E+02  0.51135451413E+02  0.00000000000E+00 0. -1.
         -5    1    3    3    0  503 -0.17548917153E+02  0.19304798049E+02 -0.18696306347E+03  0.18883303954E+03  0.47000000000E+01 0.  1.
         13    1    4    4    0    0  0.92808796073E+02 -0.89641144492E+01 -0.19475734264E+03  0.21592649325E+03  0.00000000000E+00 0. -1.
        -14    1    4    4    0    0  0.49174340819E+02  0.42648556031E+02 -0.59096708452E+02  0.87917211491E+02  0.00000000000E+00 0.  1.
</event>
<event>
12    1  0.1629553E-001  0.1799533E+03  0.7818608E-02  0.1168267E+00
         21   -1    0    0  503  502  0.00000000000E+00  0.00000000000E+00  0.26331022054E+02  0.26331022054E+02  0.00000000000E+00 0.  1.
         21   -1    0    0  501  503 -0.00000000000E+00 -0.00000000000E+00 -0.19119406470E+04  0.19119406470E+04  0.00000000000E+00 0.  1.
          6    2    1    2  501    0  0.17480169478E+02  0.48301245097E+02 -0.36188503306E+03  0.40415833056E+03  0.17246626455E+03 0.  0.
         24    2    3    3    0    0 -0.32261713911E+02  0.52890239820E+02 -0.12062923185E+03  0.15774046300E+03  0.80575718668E+02 0.  0.
         -6    2    1    2    0  502 -0.17480169478E+02 -0.48301245097E+02 -0.15237245919E+04  0.15341133385E+04  0.17067084347E+03 0.  0.
        -24    2    5    5    0    0 -0.60761260881E+02 -0.36600928987E+02 -0.13619485489E+04  0.13661736816E+04  0.80592305073E+02 0.  0.
          5    1    3    3  501    0  0.49741883389E+02 -0.45889947233E+01 -0.24125580121E+03  0.24641786756E+03  0.47000000000E+01 0. -1.
        -11    1    4    4    0    0 -0.58008904943E+01  0.35438016265E+02 -0.31357779620E+01  0.36046309530E+02  0.00000000000E+00 0.  1.
         12    1    4    4    0    0 -0.26460823417E+02  0.17452223555E+02 -0.11749345389E+03  0.12169415347E+03  0.00000000000E+00 0. -1.
         -5    1    5    5    0  502  0.43281091404E+02 -0.11700316109E+02 -0.16177604301E+03  0.16793965691E+03  0.47000000000E+01 0.  1.
         11    1    6    6    0    0  0.99382472910E+01 -0.95791713081E+01 -0.45415683323E+02  0.47466973507E+02  0.00000000000E+00 0. -1.
        -12    1    6    6    0    0 -0.70699508172E+02 -0.27021757679E+02 -0.13165328656E+04  0.13187067081E+04  0.00000000000E+00 0.  1.
</event>
<event>
12    1  0.1629553E-001  0.1750989E+03  0.7818608E-02  0.1172843E+00
         21   -1    0    0  503  502  0.00000000000E+00  0.00000000000E+00  0.32565840471E+04  0.32565840471E+04  0.00000000000E+00 0. -1.
         21   -1    0    0  501  503 -0.00000000000E+00 -0.00000000000E+00 -0.22136020944E+02  0.22136020944E+02  0.00000000000E+00 0. -1.
          6    2    1    2  501    0 -0.25703130054E+02 -0.95683694210E+01  0.37062062317E+03  0.40954474983E+03  0.17209024146E+03 0.  0.
         24    2    3    3    0    0 -0.24822663152E+02  0.30871531296E+02  0.91333630089E+02  0.12730464762E+03  0.79343716005E+02 0.  0.
         -6    2    1    2    0  502  0.25703130054E+02  0.95683694210E+01  0.28638274030E+04  0.28691753182E+04  0.17293758403E+03 0.  0.
        -24    2    5    5    0    0  0.25838687562E+02 -0.56625412568E+02  0.12977742737E+04  0.13017168247E+04  0.79840785956E+02 0.  0.
          5    1    3    3  501    0 -0.88046690151E+00 -0.40439900717E+02  0.27928699309E+03  0.28224010222E+03  0.47000000000E+01 0. -1.
        -11    1    4    4    0    0 -0.26483092396E+02  0.16697792382E+02  0.10376100039E+03  0.10838134366E+03  0.00000000000E+00 0.  1.
         12    1    4    4    0    0  0.16604292431E+01  0.14173738914E+02 -0.12427370297E+02  0.18923303955E+02  0.00000000000E+00 0. -1.
         -5    1    5    5    0  502 -0.13555750836E+00  0.66193781989E+02  0.15660531293E+04  0.15674584935E+04  0.47000000000E+01 0.  1.
         13    1    6    6    0    0 -0.17824354653E+02 -0.52343437734E+02  0.59056177486E+03  0.59314479937E+03  0.00000000000E+00 0. -1.
        -14    1    6    6    0    0  0.43663042216E+02 -0.42819748337E+01  0.70721249886E+03  0.70857202535E+03  0.00000000000E+00 0.  1.
</event>
<event>
12    1  0.1629553E-001  0.2055369E+03  0.7818608E-02  0.1148247E+00
         21   -1    0    0  503  502  0.00000000000E+00  0.00000000000E+00  0.87913653847E+02  0.87913653847E+02  0.00000000000E+00 0.  1.
         21   -1    0    0  501  503 -0.00000000000E+00 -0.00000000000E+00 -0.68440446858E+03  0.68440446858E+03  0.00000000000E+00 0.  1.
          6    2    1    2  501    0  0.74304777762E+02 -0.26330669606E+02 -0.51841850135E+03  0.55245296208E+03  0.17387359953E+03 0.  0.
         24    2    3    3    0    0  0.15855330324E+02  0.47505668525E-01 -0.45535457558E+03  0.46239023522E+03  0.78775290349E+02 0.  0.
         -6    2    1    2    0  502 -0.74304777762E+02  0.26330669606E+02 -0.78072313382E+02  0.21986516034E+03  0.18981806673E+03 0.  0.
        -24    2    5    5    0    0  0.28127594001E+02 -0.18656478595E+02 -0.61981052036E+02  0.10674021623E+03  0.80078693871E+02 0.  0.
          5    1    3    3  501    0  0.58449447438E+02 -0.26378175275E+02 -0.63063925770E+02  0.90062726864E+02  0.47000000000E+01 0. -1.
        -13    1    4    4    0    0  0.39290456980E+02 -0.24068393857E+02 -0.23363511366E+03  0.23813524293E+03  0.00000000000E+00 0.  1.
         14    1    4    4    0    0 -0.23435126656E+02  0.24115899525E+02 -0.22171946192E+03  0.22425499228E+03  0.00000000000E+00 0. -1.
         -5    1    5    5    0  502 -0.10243237176E+03  0.44987148201E+02 -0.16091261346E+02  0.11312494411E+03  0.47000000000E+01 0.  1.
         11    1    6    6    0    0 -0.35983948095E+01  0.19876922610E+02 -0.52071732098E+02  0.55852536034E+02  0.00000000000E+00 0. -1.
        -12    1    6    6    0    0  0.31725988810E+02 -0.38533401205E+02 -0.99093199375E+01  0.50887680199E+02  0.00000000000E+00 0.  1.
</event>
<event>
12    1  0.1629553E-001  0.1861075E+03  0.7818608E-02  0.1162645E+00
         21   -1    0    0  503  502  0.00000000000E+00  0.00000000000E+00  0.41274489034E+03  0.41274489034E+03  0.00000000000E+00 0. -1.
         21   -1    0    0  501  503 -0.00000000000E+00 -0.00000000000E+00 -0.84272585963E+02  0.84272585963E+02  0.00000000000E+00 0. -1.
          6    2    1    2  501    0  0.70571737656E+02 -0.69102586024E+01  0.12926690426E+03  0.22440273256E+03  0.16917012742E+03 0.  0.
         24    2    3    3    0    0  0.11277115076E+03 -0.16572718727E+02  0.11282493294E+03  0.17785617497E+03  0.76885408450E+02 0.  0.
         -6    2    1    2    0  502 -0.70571737656E+02  0.69102586024E+01  0.19920540012E+03  0.27261474375E+03  0.17206941984E+03 0.  0.
        -24    2    5    5    0    0 -0.43693969565E+02  0.37542964338E+02  0.35797636478E+02  0.10413636444E+03  0.79020721795E+02 0.  0.
          5    1    3    3  501    0 -0.42199413106E+02  0.96624601250E+01  0.16441971324E+02  0.46546557587E+02  0.47000000000E+01 0. -1.
        -13    1    4    4    0    0  0.10926252446E+03 -0.35847939355E+02  0.81635795499E+02  0.14102403027E+03  0.00000000000E+00 0.  1.
         14    1    4    4    0    0  0.35086262986E+01  0.19275220627E+02  0.31189137439E+02  0.36832144696E+02  0.00000000000E+00 0. -1.
         -5    1    5    5    0  502 -0.26877768091E+02 -0.30632705735E+02  0.16340776364E+03  0.16847837931E+03  0.47000000000E+01 0.  1.
         13    1    6    6    0    0  0.14476712054E+02 -0.71604271178E+01 -0.86877111951E+01  0.18339117596E+02  0.00000000000E+00 0. -1.
        -14    1    6    6    0    0 -0.58170681619E+02  0.44703391455E+02  0.44485347673E+02  0.85797246840E+02  0.00000000000E+00 0.  1.
</event>
<event>
12    1  0.1629553E-001  0.3117163E+03  0.7818608E-02  0.1079661E+00
         21   -1    0    0  503  502  0.00000000000E+00  0.00000000000E+00  0.11824240516E+03  0.11824240516E+03  0.00000000000E+00 0.  1.
         21   -1    0    0  501  503 -0.00000000000E+00 -0.00000000000E+00 -0.11027975105E+04  0.11027975105E+04  0.00000000000E+00 0. -1.
          6    2    1    2  501    0  0.23168811200E+03 -0.11482811902E+03 -0.80277106257E+03  0.86116691656E+03  0.17407527428E+03 0.  0.
         24    2    3    3    0    0  0.25117186574E+03 -0.10537210081E+03 -0.68403527459E+03  0.74038069926E+03  0.77902100056E+02 0.  0.
         -6    2    1    2    0  502 -0.23168811200E+03  0.11482811902E+03 -0.18178404272E+03  0.35987299906E+03  0.17204144590E+03 0.  0.
        -24    2    5    5    0    0 -0.14422420340E+03  0.11142456882E+03 -0.18583888110E+03  0.27212306359E+03  0.79365084424E+02 0.  0.
          5    1    3    3  501    0 -0.19483753745E+02 -0.94560182141E+01 -0.11873578798E+03  0.12078621729E+03  0.47000000000E+01 0. -1.
        -11    1    4    4    0    0  0.15798850928E+03 -0.24419774308E+02 -0.38549082402E+03  0.41732465760E+03  0.00000000000E+00 0.  1.
         12    1    4    4    0    0  0.93183356459E+02 -0.80952326498E+02 -0.29854445057E+03  0.32305604166E+03  0.00000000000E+00 0. -1.
         -5    1    5    5    0  502 -0.87463908597E+02  0.34035502013E+01  0.40548383806E+01  0.87749935472E+02  0.47000000000E+01 0.  1.
         11    1    6    6    0    0  0.16088583800E+01  0.31608980211E+01  0.66096716260E+01  0.75011639490E+01  0.00000000000E+00 0. -1.
        -12    1    6    6    0    0 -0.14583306178E+03  0.10826367080E+03 -0.19244855272E+03  0.26462189964E+03  0.00000000000E+00 0.  1.
</event>
<event>
12    1  0.1629553E-001  0.2264059E+03  0.7818608E-02  0.1129250E+00
         21   -1    0    0  503  502  0.00000000000E+00  0.00000000000E+00  0.64099538714E+02  0.64099538714E+02  0.00000000000E+00 0. -1.
         21   -1    0    0  501  503 -0.00000000000E+00 -0.00000000000E+00 -0.13951698986E+04  0.13951698986E+04  0.00000000000E+00 0. -1.
          6    2    1    2  501    0 -0.13424146613E+03  0.58301875298E+02 -0.11429004977E+04  0.11651099482E+04  0.17274189991E+03 0.  0.
         24    2    3    3    0    0 -0.11480040884E+03 -0.19144028747E+02 -0.59151720142E+03  0.60795516529E+03  0.78557340336E+02 0.  0.
         -6    2    1    2    0  502  0.13424146613E+03 -0.58301875298E+02 -0.18816986222E+03  0.29415948910E+03  0.17234276337E+03 0.  0.
        -24    2    5    5    0    0  0.37817824800E+02 -0.41820226311E+02 -0.21203549885E+02  0.10059037272E+03  0.80558757156E+02 0.  0.
          5    1    3    3  501    0 -0.19441057289E+02  0.77445904045E+02 -0.55138329625E+03  0.55715478293E+03  0.47000000000E+01 0. -1.
        -11    1    4    4    0    0 -0.83731483475E+02 -0.42177923740E+02 -0.31221763561E+03  0.32599047619E+03  0.00000000000E+00 0.  1.
         12    1    4    4    0    0 -0.31068925365E+02  0.23033894992E+02 -0.27929956581E+03  0.28196468910E+03  0.00000000000E+00 0. -1.
         -5    1    5    5    0  502  0.96423641329E+02 -0.16481648987E+02 -0.16696631234E+03  0.19356911638E+03  0.47000000000E+01 0.  1.
         13    1    6    6    0    0 -0.24480347963E+02 -0.21755443372E+02 -0.95209232002E+01  0.34106227163E+02  0.00000000000E+00 0. -1.
        -14    1    6    6    0    0  0.62298172762E+02 -0.20064782938E+02 -0.11682626685E+02  0.66484145555E+02  0.00000000000E+00 0.  1.
</event>
<event>
12    1  0.1629553E-001  0.2134867E+03  0.7818608E-02  0.1138927E+00
         21   -1    0    0  501  502  0.00000000000E+00  0.00000000000E+00  0.61792142046E+03  0.61792142046E+03  0.00000000000E+00 0.  1.
         21   -1    0    0  502  503 -0.00000000000E+00 -0.00000000000E+00 -0.19526685237E+03  0.19526685237E+03  0.00000000000E+00 0. -1.
         -6    2    1    2    0  503  0.11302199902E+03 -0.52224281389E+02 -0.10971756583E+03  0.23960597505E+03  0.17283440399E+03 0.  0.
        -24    2    3    3    0    0  0.76210096866E+02 -0.19480265811E+02 -0.14202862990E+03  0.18050113974E+03  0.78873760645E+02 0.  0.
          6    2    1    2  501    0 -0.11302199902E+03  0.52224281389E+02  0.53237213393E+03  0.57358229777E+03  0.17342207330E+03 0.  0.
         24    2    5    5    0    0 -0.63772419402E+02  0.84944484764E+02  0.21394419051E+03  0.24967709876E+03  0.72691471455E+02 0.  0.
          5    1    5    5  501    0 -0.49249579615E+02 -0.32720203375E+02  0.31842794342E+03  0.32390519902E+03  0.47000000000E+01 0. -1.
        -13    1    6    6    0    0 -0.52512794538E+00  0.60115742571E+02  0.11297541072E+03  0.12797508231E+03  0.00000000000E+00 0.  1.
         14    1    6    6    0    0 -0.63247291456E+02  0.24828742192E+02  0.10096877979E+03  0.12170201645E+03  0.00000000000E+00 0. -1.
         -5    1    3    3    0  503  0.36811902150E+02 -0.32744015577E+02  0.32311064066E+02  0.59104835311E+02  0.47000000000E+01 0.  1.
         13    1    4    4    0    0  0.50280475958E+02  0.20796265219E+02 -0.11045616054E+03  0.12313072042E+03  0.00000000000E+00 0. -1.
        -14    1    4    4    0    0  0.25929620908E+02 -0.40276531030E+02 -0.31572469355E+02  0.57370419324E+02  0.00000000000E+00 0.  1.
</event>
<event>
12    1  0.1629553E-001  0.2252685E+03  0.7818608E-02  0.1133017E+00
         21   -1    0    0  501  502  0.00000000000E+00  0.00000000000E+00  0.58856768594E+02  0.58856768594E+02  0.00000000000E+00 0.  1.
         21   -1    0    0  502  503 -0.00000000000E+00 -0.00000000000E+00 -0.80266324546E+03  0.80266324546E+03  0.00000000000E+00 0.  1.
         -6    2    1    2    0  503 -0.98798132680E+02  0.67912445177E+02 -0.37468801941E+03  0.43719220501E+03  0.19071638891E+03 0.  0.
        -24    2    3    3    0    0 -0.87693290637E+02  0.35228980421E+02 -0.38174342715E+03  0.40164793453E+03  0.81620002792E+02 0.  0.
          6    2    1    2  501    0  0.98798132680E+02 -0.67912445177E+02 -0.36911845746E+03  0.42432780905E+03  0.17155897722E+03 0.  0.
         24    2    5    5    0    0  0.99649923725E+02 -0.82517443100E+01 -0.32918772191E+03  0.35237867134E+03  0.76210059554E+02 0.  0.
          5    1    5    5  501    0 -0.85179104437E+00 -0.59660700867E+02 -0.39930735552E+02  0.71949137713E+02  0.47000000000E+01 0. -1.
        -11    1    6    6    0    0  0.95985931073E+02  0.81636897650E+01 -0.19879714572E+03  0.22090778606E+03  0.00000000000E+00 0.  1.
         12    1    6    6    0    0  0.36639926517E+01 -0.16415434075E+02 -0.13039057619E+03  0.13147088528E+03  0.00000000000E+00 0. -1.
         -5    1    3    3    0  503 -0.11104842043E+02  0.32683464756E+02  0.70554077397E+01  0.35544270476E+02  0.47000000000E+01 0.  1.
         11    1    4    4    0    0 -0.12384261627E+02 -0.16847640149E+02 -0.21660302185E+02  0.30106172214E+02  0.00000000000E+00 0. -1.
        -12    1    4    4    0    0 -0.75309029011E+02  0.52076620570E+02 -0.36008312496E+03  0.37154176232E+03  0.00000000000E+00 0.  1.
</event>
<event>
12    1  0.1629553E-001  0.1832125E+03  0.7818608E-02  0.1164802E+00
         21   -1    0    0  501  502  0.00000000000E+00  0.00000000000E+00  0.30964289146E+03  0.30964289146E+03  0.00000000000E+00 0.  1.
         21   -1    0    0  502  503 -0.00000000000E+00 -0.00000000000E+00 -0.10893796247E+03  0.10893796247E+03  0.00000000000E+00 0.  1.
         -6    2    1    2    0  503 -0.41516737598E+02  0.48933602519E+02  0.11737185597E+03  0.21758444411E+03  0.17160623761E+03 0.  0.
        -24    2    3    3    0    0 -0.26286118182E+02  0.34365288320E+02 -0.60827358487E+01  0.92255541664E+02  0.81253629100E+02 0.  0.
          6    2    1    2  501    0  0.41516737598E+02 -0.48933602519E+02  0.83333073019E+02  0.20099640982E+03  0.17128052647E+03 0.  0.
         24    2    5    5    0    0  0.33639182119E+02  0.61987355555E+01  0.10917407142E+03  0.13942143293E+03  0.79682740875E+02 0.  0.
          5    1    5    5  501    0  0.78775554785E+01 -0.55132338074E+02 -0.25840998397E+02  0.61574976898E+02  0.47000000000E+01 0. -1.
        -13    1    6    6    0    0  0.18092783303E+01 -0.34675693174E+02  0.39389677709E+02  0.52509274373E+02  0.00000000000E+00 0.  1.
         14    1    6    6    0    0  0.31829903789E+02  0.40874428730E+02  0.69784393707E+02  0.86912158552E+02  0.00000000000E+00 0. -1.
         -5    1    3    3    0  503 -0.15230619416E+02  0.14568314198E+02  0.12345459182E+03  0.12532890244E+03  0.47000000000E+01 0.  1.
         13    1    4    4    0    0  0.21331220091E+02 -0.11477359599E+02  0.62511230074E+01  0.25016539985E+02  0.00000000000E+00 0. -1.
        -14    1    4    4    0    0 -0.47617338273E+02  0.45842647920E+02 -0.12333858856E+02  0.67239001679E+02  0.00000000000E+00 0.  1.
</event>
<event>
12    1  0.1629553E-001  0.2291887E+03  0.7818608E-02  0.1127871E+00
         21   -1    0    0  501  502  0.00000000000E+00  0.00000000000E+00  0.48547202496E+02  0.48547202496E+02  0.00000000000E+00 0.  1.
         21   -1    0    0  502  503 -0.00000000000E+00 -0.00000000000E+00 -0.18026598061E+04  0.18026598061E+04  0.00000000000E+00 0.  1.
         -6    2    1    2    0  503 -0.13238107451E+03  0.64908773773E+02 -0.14650940281E+04  0.14823450073E+04  0.17061158120E+03 0.  0.
        -24    2    3    3    0    0 -0.27161955046E+02 -0.17738388521E+02 -0.73855706894E+03  0.74357599091E+03  0.79914253661E+02 0.  0.
          6    2    1    2  501    0  0.13238107451E+03 -0.64908773773E+02 -0.28901857550E+03  0.36886200131E+03  0.17546948801E+03 0.  0.
         24    2    5    5    0    0  0.15360238701E+03 -0.71879786586E+02 -0.29052839940E+03  0.34598605997E+03  0.80865356135E+02 0.  0.
          5    1    5    5  501    0 -0.21221312500E+02  0.69710128132E+01  0.15098238969E+01  0.22875941338E+02  0.47000000000E+01 0. -1.
        -11    1    6    6    0    0  0.65310973097E+02 -0.44386927509E+01 -0.54738109842E+02  0.85331622915E+02  0.00000000000E+00 0.  1.
         12    1    6    6    0    0  0.88291413916E+02 -0.67441093835E+02 -0.23579028956E+03  0.26065443706E+03  0.00000000000E+00 0. -1.
         -5    1    3    3    0  503 -0.10521911947E+03  0.82647162294E+02 -0.72653695919E+03  0.73876901641E+03  0.47000000000E+01 0.  1.
         13    1    4    4    0    0  0.26510396669E+02 -0.38149881618E+01 -0.14651028602E+03  0.14893830661E+03  0.00000000000E+00 0. -1.
        -14    1    4    4    0    0 -0.53672351715E+02 -0.13923400359E+02 -0.59204678292E+03  0.59463768430E+03  0.00000000000E+00 0.  1.
</event>
<event>
12    1  0.1629553E-001  0.2153028E+03  0.7818608E-02  0.1139102E+00
         21   -1    0    0  501  502  0.00000000000E+00  0.00000000000E+00  0.26710696865E+03  0.26710696865E+03  0.00000000000E+00 0. -1.
         21   -1    0    0  502  503 -0.00000000000E+00 -0.00000000000E+00 -0.18750427334E+03  0.18750427334E+03  0.00000000000E+00 0. -1.
         -6    2    1    2    0  503  0.50166250770E+02  0.10370660255E+03 -0.36524602835E+02  0.20998736937E+03  0.17172343042E+03 0.  0.
        -24    2    3    3    0    0  0.64841041168E+02  0.13436740131E+03 -0.14844860370E+02  0.16939752720E+03  0.78842838526E+02 0.  0.
          6    2    1    2  501    0 -0.50166250770E+02 -0.10370660255E+03  0.11612729815E+03  0.24462387262E+03  0.18188891542E+03 0.  0.
         24    2    5    5    0    0 -0.59496343207E+02 -0.12106307266E+03  0.14272775150E+03  0.21118778735E+03  0.77672312074E+02 0.  0.
          5    1    5    5  501    0  0.93300924365E+01  0.17356470110E+02 -0.26600453352E+02  0.33436085269E+02  0.47000000000E+01 0. -1.
        -13    1    6    6    0    0 -0.29742728051E+02 -0.68197512351E+00  0.15580533286E+02  0.33583447998E+02  0.00000000000E+00 0.  1.
         14    1    6    6    0    0 -0.29753615156E+02 -0.12038109754E+03  0.12714721821E+03  0.17760433936E+03  0.00000000000E+00 0. -1.
         -5    1    3    3    0  503 -0.14674790398E+02 -0.30660798763E+02 -0.21679742465E+02  0.40589842170E+02  0.47000000000E+01 0.  1.
         11    1    4    4    0    0 -0.13331789406E+02  0.15109605013E+02  0.13175185304E+02  0.24075345900E+02  0.00000000000E+00 0. -1.
        -12    1    4    4    0    0  0.78172830574E+02  0.11925779630E+03 -0.28020045674E+02  0.14532218130E+03  0.00000000000E+00 0.  1.
</event>
<event>
12    1  0.1629553E-001  0.3520750E+03  0.7818608E-02  0.1062829E+00
         21   -1    0    0  501  502  0.00000000000E+00  0.00000000000E+00  0.51353196592E+03  0.51353196592E+03  0.00000000000E+00 0. -1.
         21   -1    0    0  502  503 -0.00000000000E+00 -0.00000000000E+00 -0.33228429915E+03  0.33228429915E+03  0.00000000000E+00 0.  1.
         -6    2    1    2    0  503  0.15199677499E+03 -0.25355671148E+03 -0.13984863505E+03  0.36930847786E+03  0.17157239157E+03 0.  0.
        -24    2    3    3    0    0  0.61927467475E+02 -0.50971384872E+02 -0.14582950239E+02  0.11461871264E+03  0.80571046578E+02 0.  0.
          6    2    1    2  501    0 -0.15199677499E+03  0.25355671148E+03  0.32109630182E+03  0.47650778721E+03  0.19121404415E+03 0.  0.
         24    2    5    5    0    0 -0.12077459108E+03  0.22084160254E+03  0.16086378359E+03  0.30994953007E+03  0.82668246983E+02 0.  0.
          5    1    5    5  501    0 -0.31222183907E+02  0.32715108947E+02  0.16023251823E+03  0.16655825713E+03  0.47000000000E+01 0. -1.
        -13    1    6    6    0    0 -0.44947827309E+02  0.40709903836E+02  0.66756669199E+01  0.61009572847E+02  0.00000000000E+00 0.  1.
         14    1    6    6    0    0 -0.75826763775E+02  0.18013169870E+03  0.15418811667E+03  0.24893995723E+03  0.00000000000E+00 0. -1.
         -5    1    3    3    0  503  0.90069307517E+02 -0.20258532661E+03 -0.12526568482E+03  0.25468976522E+03  0.47000000000E+01 0.  1.
         11    1    4    4    0    0  0.59048565813E+02  0.76164583728E+00 -0.20405341168E+02  0.62479526063E+02  0.00000000000E+00 0. -1.
        -12    1    4    4    0    0  0.28789016629E+01 -0.51733030709E+02  0.58223909292E+01  0.52139186580E+02  0.00000000000E+00 0.  1.
</event>
<event>
12    1  0.1629553E-001  0.1815366E+03  0.7818608E-02  0.1169556E+00
         21   -1    0    0  501  502  0.00000000000E+00  0.00000000000E+00  0.56561514031E+02  0.56561514031E+02  0.00000000000E+00 0. -1.
         21   -1    0    0  502  503 -0.00000000000E+00 -0.00000000000E+00 -0.63497416036E+03  0.63497416036E+03  0.00000000000E+00 0. -1.
         -6    2    1    2    0  503  0.59479964411E+02  0.24646338997E-01 -0.41247740524E+03  0.44558842971E+03  0.15771357609E+03 0.  0.
        -24    2    3    3    0    0  0.65367209912E+02 -0.49030925473E+02 -0.33837237049E+03  0.35639899670E+03  0.76468816870E+02 0.  0.
          6    2    1    2  501    0 -0.59479964411E+02 -0.24646338997E-01 -0.16593524108E+03  0.24594724467E+03  0.17151581897E+03 0.  0.
         24    2    5    5    0    0  0.24073319539E+01 -0.58763669952E+02 -0.87846022155E+02  0.13018746557E+03  0.75979526380E+02 0.  0.
          5    1    5    5  501    0 -0.61887296365E+02  0.58739023613E+02 -0.78089218927E+02  0.11575977911E+03  0.47000000000E+01 0. -1.
        -11    1    6    6    0    0  0.17005589584E+02 -0.34957935063E+02 -0.93886315027E+02  0.10161637393E+03  0.00000000000E+00 0.  1.
         12    1    6    6    0    0 -0.14598257630E+02 -0.23805734889E+02  0.60402928724E+01  0.28571091639E+02  0.00000000000E+00 0. -1.
         -5    1    3    3    0  503 -0.58872455008E+01  0.49055571812E+02 -0.74105034754E+02  0.89189433014E+02  0.47000000000E+01 0.  1.
         11    1    4    4    0    0 -0.10755988259E+02  0.10057233295E+02 -0.31924938870E+02  0.35157374004E+02  0.00000000000E+00 0. -1.
        -12    1    4    4    0    0  0.76123198171E+02 -0.59088158768E+02 -0.30644743162E+03  0.32124162270E+03  0.00000000000E+00 0.  1.
</event>
<event>
12    1  0.1629553E-001  0.1742449E+03  0.7818608E-02  0.1175641E+00
         21   -1    0    0  501  502  0.00000000000E+00  0.00000000000E+00  0.14575008853E+03  0.14575008853E+03  0.00000000000E+00 0.  1.
         21   -1    0    0  502  503 -0.00000000000E+00 -0.00000000000E+00 -0.31589742000E+03  0.31589742000E+03  0.00000000000E+00 0.  1.
         -6    2    1    2    0  503 -0.28158089158E+02 -0.20837733133E+02 -0.22444911355E+03  0.27913731586E+03  0.16221327759E+03 0.  0.
        -24    2    3    3    0    0 -0.67268648438E+02  0.22040077287E+02 -0.12976231737E+03  0.16798057138E+03  0.79802113271E+02 0.  0.
          6    2    1    2  501    0  0.28158089158E+02  0.20837733133E+02  0.54301782073E+02  0.18251019268E+03  0.17068742715E+03 0.  0.
         24    2    5    5    0    0 -0.20852830109E+02  0.17041587486E+02  0.88637007354E+02  0.12236471384E+03  0.79945906042E+02 0.  0.
          5    1    5    5  501    0  0.49010919267E+02  0.37961456473E+01 -0.34335225281E+02  0.60145478835E+02  0.47000000000E+01 0. -1.
        -13    1    6    6    0    0  0.48952748695E+01  0.32757490524E+02  0.85913160488E+02  0.92076533636E+02  0.00000000000E+00 0.  1.
         14    1    6    6    0    0 -0.25748104979E+02 -0.15715903038E+02  0.27238468657E+01  0.30288180204E+02  0.00000000000E+00 0. -1.
         -5    1    3    3    0  503  0.39110559280E+02 -0.42877810420E+02 -0.94686796173E+02  0.11115674448E+03  0.47000000000E+01 0.  1.
         11    1    4    4    0    0  0.35469933281E+01  0.21254847868E+02 -0.16689794908E+01  0.21613310994E+02  0.00000000000E+00 0. -1.
        -12    1    4    4    0    0 -0.70815641766E+02  0.78522941870E+00 -0.12809333788E+03  0.14636726039E+03  0.00000000000E+00 0.  1.
</event>
<event>
12    1  0.1629553E-001  0.2400526E+03  0.7818608E-02  0.1121307E+00
         21   -1    0    0  501  502  0.00000000000E+00  0.00000000000E+00  0.19731576675E+04  0.19731576675E+04  0.00000000000E+00 0. -1.
         21   -1    0    0  502  503 -0.00000000000E+00 -0.00000000000E+00 -0.28192637392E+02  0.28192637392E+02  0.00000000000E+00 0. -1.
         -6    2    1    2    0  503  0.11154601810E+03  0.13091951872E+03  0.93583697649E+03  0.96613461769E+03  0.16745990089E+03 0.  0.
        -24    2    3    3    0    0  0.92252637509E+02  0.15099854307E+03  0.89892093104E+03  0.91965573899E+03  0.79979552801E+02 0.  0.
          6    2    1    2  501    0 -0.11154601810E+03 -0.13091951872E+03  0.10091280537E+04  0.10352156872E+04  0.15410923362E+03 0.  0.
         24    2    5    5    0    0 -0.13749168568E+03 -0.96710479665E+02  0.86475560505E+03  0.88452086339E+03  0.79485978556E+02 0.  0.
          5    1    5    5  501    0  0.25945667583E+02 -0.34209039053E+02  0.14437244860E+03  0.15069482384E+03  0.47000000000E+01 0. -1.
        -13    1    6    6    0    0 -0.58596946737E+01  0.92069059041E+01  0.17811013249E+02  0.20888641195E+02  0.00000000000E+00 0.  1.
         14    1    6    6    0    0 -0.13163199101E+03 -0.10591738557E+03  0.84694459180E+03  0.86363222219E+03  0.00000000000E+00 0. -1.
         -5    1    3    3    0  503  0.19293380591E+02 -0.20079024351E+02  0.36916045449E+02  0.46478878699E+02  0.47000000000E+01 0.  1.
         13    1    4    4    0    0  0.10103964261E+03  0.10775234526E+03  0.62611986058E+03  0.64330836859E+03  0.00000000000E+00 0. -1.
        -14    1    4    4    0    0 -0.87870051043E+01  0.43246197811E+02  0.27280107046E+03  0.27634737040E+03  0.00000000000E+00 0.  1.
</event>
<event>
12    1  0.1629553E-001  0.3194437E+03  0.7818608E-02  0.1075962E+00
         21   -1    0    0  503  502  0.00000000000E+00  0.00000000000E+00  0.12425958220E+04  0.12425958220E+04  0.00000000000E+00 0.  1.
         21   -1    0    0  501  503 -0.00000000000E+00 -0.00000000000E+00 -0.93639261324E+02  0.93639261324E+02  0.00000000000E+00 0. -1.
          6    2    1    2  501    0 -0.14845882021E+03  0.21910915214E+03  0.81044523306E+03  0.87112901674E+03  0.17887270940E+03 0.  0.
         24    2    3    3    0    0 -0.11806075821E+03  0.10867315591E+03  0.32640048894E+03  0.37369404034E+03  0.85800694410E+02 0.  0.
         -6    2    1    2    0  502  0.14845882021E+03 -0.21910915214E+03  0.33851132764E+03  0.46510606661E+03  0.17800250674E+03 0.  0.
        -24    2    5    5    0    0  0.72883213093E+02 -0.21724713013E+03  0.26548390371E+03  0.35989088632E+03  0.80817501986E+02 0.  0.
          5    1    3    3  501    0 -0.30398062002E+02  0.11043599623E+03  0.48404474412E+03  0.49743497640E+03  0.47000000000E+01 0. -1.
        -13    1    4    4    0    0  0.20557864979E+01  0.37402443087E+02  0.10935555946E+03  0.11559328437E+03  0.00000000000E+00 0.  1.
         14    1    4    4    0    0 -0.12011654470E+03  0.71270712824E+02  0.21704492948E+03  0.25810075597E+03  0.00000000000E+00 0. -1.
         -5    1    5    5    0  502  0.75575607116E+02 -0.18620220088E+01  0.73027423932E+02  0.10521518029E+03  0.47000000000E+01 0.  1.
         11    1    6    6    0    0  0.51934563310E+02 -0.55614383784E+02  0.56035319552E+02  0.94499288819E+02  0.00000000000E+00 0. -1.
        -12    1    6    6    0    0  0.20948649783E+02 -0.16163274635E+03  0.20944858416E+03  0.26539159750E+03  0.00000000000E+00 0.  1.
</event>
<event>
12    1  0.1629553E-001  0.2596111E+03  0.7818608E-02  0.1107566E+00
         21   -1    0    0  501  502  0.00000000000E+00  0.00000000000E+00  0.23886789250E+02  0.23886789250E+02  0.00000000000E+00 0.  1.
         21   -1    0    0  502  503 -0.00000000000E+00 -0.00000000000E+00 -0.29306842419E+04  0.29306842419E+04  0.00000000000E+00 0. -1.
         -6    2    1    2    0  503 -0.10355159461E+03 -0.16241768425E+03 -0.17590357591E+04  0.17780901940E+04  0.17405602322E+03 0.  0.
        -24    2    3    3    0    0 -0.57818927490E+02 -0.18175106089E+03 -0.13787066580E+04  0.13945050386E+04  0.86230953321E+02 0.  0.
          6    2    1    2  501    0  0.10355159461E+03  0.16241768425E+03 -0.11477616935E+04  0.11764808372E+04  0.17218541795E+03 0.  0.
         24    2    5    5    0    0  0.16515450428E+02  0.43130152025E+02 -0.24455787531E+03  0.26127373874E+03  0.79513785365E+02 0.  0.
          5    1    5    5  501    0  0.87036144182E+02  0.11928753223E+03 -0.90320381824E+03  0.91520709843E+03  0.47000000000E+01 0.  1.
        -11    1    6    6    0    0 -0.23400878560E+02 -0.83956248805E+01 -0.93609550759E+02  0.96854714019E+02  0.00000000000E+00 0.  1.
         12    1    6    6    0    0  0.39916328988E+02  0.51525776906E+02 -0.15094832455E+03  0.16441902472E+03  0.00000000000E+00 0. -1.
         -5    1    3    3    0  503 -0.45732667121E+02  0.19333376640E+02 -0.38032910110E+03  0.38358515540E+03  0.47000000000E+01 0.  1.
         11    1    4    4    0    0 -0.12726772595E+02 -0.76261796760E+02 -0.30342152841E+03  0.31311732033E+03  0.00000000000E+00 0. -1.
        -12    1    4    4    0    0 -0.45092154895E+02 -0.10548926413E+03 -0.10752851296E+04  0.10813877183E+04  0.00000000000E+00 0.  1.
</event>
<event>
12    1  0.1629553E-001  0.2257503E+03  0.7818608E-02  0.1129906E+00
         21   -1    0    0  503  502  0.00000000000E+00  0.00000000000E+00  0.37793382976E+03  0.37793382976E+03  0.00000000000E+00 0.  1.
         21   -1    0    0  501  503 -0.00000000000E+00 -0.00000000000E+00 -0.18107453347E+03  0.18107453347E+03  0.00000000000E+00 0.  1.
          6    2    1    2  501    0 -0.43230311798E+01 -0.14527243495E+03  0.24063731531E+03  0.32905250257E+03  0.17101597284E+03 0.  0.
         24    2    3    3    0    0  0.50120144733E+02 -0.46610670800E+02  0.79117522427E+02  0.13205266347E+03  0.80583745473E+02 0.  0.
         -6    2    1    2    0  502  0.43230311798E+01  0.14527243495E+03 -0.43778019029E+02  0.22995586066E+03  0.17274378121E+03 0.  0.
        -24    2    5    5    0    0  0.56603458174E+02  0.96206507494E+02  0.12630374920E+02  0.13860650274E+03  0.81194782289E+02 0.  0.
          5    1    3    3  501    0 -0.54443175913E+02 -0.98661764152E+02  0.16151979289E+03  0.19699983909E+03  0.47000000000E+01 0. -1.
        -11    1    4    4    0    0  0.61084514906E+01 -0.54317490029E+02  0.20567845463E+02  0.58401533967E+02  0.00000000000E+00 0.  1.
         12    1    4    4    0    0  0.44011693243E+02  0.77068192289E+01  0.58549676965E+02  0.73651129505E+02  0.00000000000E+00 0. -1.
         -5    1    5    5    0  502 -0.52280426994E+02  0.49065927458E+02 -0.56408393949E+02  0.91349357917E+02  0.47000000000E+01 0.  1.
         11    1    6    6    0    0 -0.73015472028E+01 -0.16993346722E+01  0.20099395606E+02  0.21451947082E+02  0.00000000000E+00 0. -1.
        -12    1    6    6    0    0  0.63905005377E+02  0.97905842166E+02 -0.74690206858E+01  0.11715455566E+03  0.00000000000E+00 0.  1.
</event>
<event>
12    1  0.1629553E-001  0.2566206E+03  0.7818608E-02  0.1111070E+00
         21   -1    0    0  503  502  0.00000000000E+00  0.00000000000E+00  0.62637959891E+03  0.62637959891E+03  0.00000000000E+00 0. -1.
         21   -1    0    0  501  503 -0.00000000000E+00 -0.00000000000E+00 -0.13612217794E+03  0.13612217794E+03  0.00000000000E+00 0.  1.
          6    2    1    2  501    0 -0.17414750724E+03 -0.61237594990E+01  0.45210927144E+02  0.24876983192E+03  0.17169026365E+03 0.  0.
         24    2    3    3    0    0 -0.32482530828E+02 -0.22903809924E+02 -0.25588440750E+02  0.89442570823E+02  0.75930928201E+02 0.  0.
         -6    2    1    2    0  502  0.17414750724E+03  0.61237594990E+01  0.44504649382E+03  0.51373194493E+03  0.18838597311E+03 0.  0.
        -24    2    5    5    0    0  0.79888169263E+02  0.37368401210E+02  0.37216957591E+03  0.39046724765E+03  0.78587284287E+02 0.  0.
          5    1    3    3  501    0 -0.14166497641E+03  0.16780050425E+02  0.70799367893E+02  0.15932726109E+03  0.47000000000E+01 0. -1.
        -11    1    4    4    0    0 -0.57064783220E+02 -0.13475947212E+02 -0.12137729622E+02  0.59877500930E+02  0.00000000000E+00 0.  1.
         12    1    4    4    0    0  0.24582252392E+02 -0.94278627123E+01 -0.13450711127E+02  0.29565069894E+02  0.00000000000E+00 0. -1.
         -5    1    5    5    0  502  0.94259337976E+02 -0.31244641711E+02  0.72876917911E+02  0.12326469728E+03  0.47000000000E+01 0.  1.
         13    1    6    6    0    0  0.53362803546E+02 -0.14455335911E+02  0.23572772775E+03  0.24212415652E+03  0.00000000000E+00 0. -1.
        -14    1    6    6    0    0  0.26525365717E+02  0.51823737121E+02  0.13644184816E+03  0.14834309113E+03  0.00000000000E+00 0.  1.
</event>
<event>
12    1  0.1629553E-001  0.2104594E+03  0.7818608E-02  0.1141736E+00
         21   -1    0    0  501  502  0.00000000000E+00  0.00000000000E+00  0.61729558935E+03  0.61729558935E+03  0.00000000000E+00 0.  1.
         21   -1    0    0  502  503 -0.00000000000E+00 -0.00000000000E+00 -0.87431650526E+02  0.87431650526E+02  0.00000000000E+00 0.  1.
         -6    2    1    2    0  503 -0.11854816541E+03 -0.20723942555E+02  0.11006731344E+03  0.23512915484E+03  0.16937460451E+03 0.  0.
        -24    2    3    3    0    0 -0.98729733471E+02 -0.65218159971E+02  0.36173622212E+02  0.14650143214E+03  0.78442144377E+02 0.  0.
          6    2    1    2  501    0  0.11854816541E+03  0.20723942555E+02  0.41979662538E+03  0.46959808503E+03  0.17265574264E+03 0.  0.
         24    2    5    5    0    0  0.12752659167E+03 -0.18055801434E+02  0.39417912007E+03  0.42202890109E+03  0.78372004639E+02 0.  0.
          5    1    5    5  501    0 -0.89784262624E+01  0.38779743989E+02  0.25617505313E+02  0.47569183937E+02  0.47000000000E+01 0. -1.
        -11    1    6    6    0    0  0.12356636874E+03  0.22851138713E+01  0.28112778820E+03  0.30709396368E+03  0.00000000000E+00 0.  1.
         12    1    6    6    0    0  0.39602229284E+01 -0.20340915305E+02  0.11305133187E+03  0.11493493742E+03  0.00000000000E+00 0. -1.
         -5    1    3    3    0  503 -0.19818431939E+02  0.44494217416E+02  0.73893691228E+02  0.88627722702E+02  0.47000000000E+01 0.  1.
         13    1    4    4    0    0  0.23895728498E+01 -0.16826027765E+02  0.29692334604E+02  0.34211986248E+02  0.00000000000E+00 0. -1.
        -14    1    4    4    0    0 -0.10111930632E+03 -0.48392132206E+02  0.64812876076E+01  0.11228944589E+03  0.00000000000E+00 0.  1.
</event>
<event>
12    1  0.1629553E-001  0.2675461E+03  0.7818608E-02  0.1103662E+00
         21   -1    0    0  503  502  0.00000000000E+00  0.00000000000E+00  0.10144034421E+03  0.10144034421E+03  0.00000000000E+00 0.  1.
         21   -1    0    0  501  503 -0.00000000000E+00 -0.00000000000E+00 -0.72460937825E+03  0.72460937825E+03  0.00000000000E+00 0. -1.
          6    2    1    2  501    0  0.16184394708E+03 -0.10965335671E+03 -0.40771377321E+03  0.48765916034E+03  0.18265709391E+03 0.  0.
         24    2    3    3    0    0  0.92993566010E+02 -0.54039357797E+02 -0.10000257216E+03  0.16743804127E+03  0.80417210313E+02 0.  0.
         -6    2    1    2    0  502 -0.16184394708E+03  0.10965335671E+03 -0.21545526084E+03  0.33839056212E+03  0.17282905214E+03 0.  0.
        -24    2    5    5    0    0 -0.25051816112E+02  0.16644976611E+02 -0.13103553642E+03  0.15261805141E+03  0.72230942641E+02 0.  0.
          5    1    3    3  501    0  0.68850381066E+02 -0.55613998917E+02 -0.30771120105E+03  0.32022111908E+03  0.47000000000E+01 0. -1.
        -13    1    4    4    0    0 -0.28776762499E+01 -0.21855485619E+02  0.39661532766E+01  0.22398072329E+02  0.00000000000E+00 0.  1.
         14    1    4    4    0    0  0.95871242260E+02 -0.32183872178E+02 -0.10396872544E+03  0.14503996894E+03  0.00000000000E+00 0. -1.
         -5    1    5    5    0  502 -0.13679213096E+03  0.93008380103E+02 -0.84419724412E+02  0.18577251070E+03  0.47000000000E+01 0.  1.
         13    1    6    6    0    0 -0.17205449269E+01 -0.27872451850E+02 -0.49610260775E+02  0.56929885132E+02  0.00000000000E+00 0. -1.
        -14    1    6    6    0    0 -0.23331271186E+02  0.44517428462E+02 -0.81425275649E+02  0.95688166283E+02  0.00000000000E+00 0.  1.
</event>
<event>
12    1  0.1629553E-001  0.2182794E+03  0.7818608E-02  0.1135469E+00
         21   -1    0    0  501  502  0.00000000000E+00  0.00000000000E+00  0.30973791656E+02  0.30973791656E+02  0.00000000000E+00 0. -1.
         21   -1    0    0  502  503 -0.00000000000E+00 -0.00000000000E+00 -0.22558051990E+04  0.22558051990E+04  0.00000000000E+00 0. -1.
         -6    2    1    2    0  503 -0.11638429409E+03  0.65404804300E+02 -0.17594997797E+04  0.17727951328E+04  0.17070446928E+03 0.  0.
        -24    2    3    3    0    0 -0.94758351419E+02  0.56043832298E+02 -0.17270226420E+04  0.17323950874E+04  0.80408188036E+02 0.  0.
          6    2    1    2  501    0  0.11638429409E+03 -0.65404804300E+02 -0.46533162764E+03  0.51398385784E+03  0.17269276215E+03 0.  0.
         24    2    5    5    0    0  0.73038531003E+02 -0.11291136238E+03 -0.31676753315E+03  0.35202982605E+03  0.74160134919E+02 0.  0.
          5    1    5    5  501    0  0.43345763086E+02  0.47506558077E+02 -0.14856409450E+03  0.16195403178E+03  0.47000000000E+01 0. -1.
        -13    1    6    6    0    0 -0.48803099118E+01  0.38451191219E+01 -0.51860024573E+02  0.52230877023E+02  0.00000000000E+00 0.  1.
         14    1    6    6    0    0  0.77918840915E+02 -0.11675648150E+03 -0.26490750857E+03  0.29979894903E+03  0.00000000000E+00 0. -1.
         -5    1    3    3    0  503 -0.21625942671E+02  0.93609720024E+01 -0.32477137703E+02  0.40400045379E+02  0.47000000000E+01 0.  1.
         11    1    4    4    0    0 -0.28278858832E+02  0.10025407890E+02 -0.13382330595E+03  0.13714546976E+03  0.00000000000E+00 0. -1.
        -12    1    4    4    0    0 -0.66479492587E+02  0.46018424408E+02 -0.15931993360E+04  0.15952496176E+04  0.00000000000E+00 0.  1.
</event>
<event>
12    1  0.1629553E-001  0.2142384E+03  0.7818608E-02  0.1138286E+00
         21   -1    0    0  503  502  0.00000000000E+00  0.00000000000E+00  0.10308384496E+04  0.10308384496E+04  0.00000000000E+00 0.  1.
         21   -1    0    0  501  503 -0.00000000000E+00 -0.00000000000E+00 -0.60434058537E+02  0.60434058537E+02  0.00000000000E+00 0.  1.
          6    2    1    2  501    0  0.39993187502E+02 -0.12021978792E+03  0.20479727820E+03  0.29625531540E+03  0.17254864327E+03 0.  0.
         24    2    3    3    0    0  0.26814822831E+02 -0.10940415708E+03  0.61162392609E+02  0.15153587122E+03  0.80833023495E+02 0.  0.
         -6    2    1    2    0  502 -0.39993187502E+02  0.12021978792E+03  0.76560711285E+03  0.79501719271E+03  0.17275946578E+03 0.  0.
        -24    2    5    5    0    0 -0.68997248054E+02  0.14151389596E+03  0.66908718753E+03  0.69190142986E+03  0.79139883353E+02 0.  0.
          5    1    3    3  501    0  0.13178364671E+02 -0.10815630838E+02  0.14363488559E+03  0.14471944418E+03  0.47000000000E+01 0. -1.
        -11    1    4    4    0    0  0.49203959295E+02 -0.33621738133E+02  0.24740853187E+02  0.64525659252E+02  0.00000000000E+00 0.  1.
         12    1    4    4    0    0 -0.22389136465E+02 -0.75782418949E+02  0.36421539423E+02  0.87010211971E+02  0.00000000000E+00 0. -1.
         -5    1    5    5    0  502  0.29004060552E+02 -0.21294108043E+02  0.96519925312E+02  0.10311576285E+03  0.47000000000E+01 0.  1.
         13    1    6    6    0    0 -0.16139297402E+01 -0.10135359364E+02  0.38418578181E+02  0.39765782126E+02  0.00000000000E+00 0. -1.
        -14    1    6    6    0    0 -0.67383318314E+02  0.15164925533E+03  0.63066860935E+03  0.65213564774E+03  0.00000000000E+00 0.  1.
</event>
<event>
12    1  0.1629553E-001  0.1895784E+03  0.7818608E-02  0.1159257E+00
         21   -1    0    0  501  502  0.00000000000E+00  0.00000000000E+00  0.33169355595E+02  0.33169355595E+02  0.00000000000E+00 0. -1.
         21   -1    0    0  502  503 -0.00000000000E+00 -0.00000000000E+00 -0.11464041914E+04  0.11464041914E+04  0.00000000000E+00 0. -1.
         -6    2    1    2    0  503 -0.41888026471E+02  0.64789300234E+02 -0.70321193566E+03  0.72784490680E+03  0.17116927796E+03 0.  0.
        -24    2    3    3    0    0 -0.39053698891E+02 -0.21478956413E+02 -0.24615470842E+03  0.26268510148E+03  0.80154757156E+02 0.  0.
          6    2    1    2  501    0  0.41888026471E+02 -0.64789300234E+02 -0.41002290013E+03  0.45172864018E+03  0.17316964382E+03 0.  0.
         24    2    5    5    0    0  0.40991681980E+00 -0.31097844937E+02 -0.38070221671E+03  0.39059485070E+03  0.81626684322E+02 0.  0.
          5    1    5    5  501    0  0.41478109652E+02 -0.33691455297E+02 -0.29320683425E+02  0.61133789485E+02  0.47000000000E+01 0. -1.
        -13    1    6    6    0    0  0.58411689129E+01  0.14691058317E+02 -0.14346245385E+02  0.21348564481E+02  0.00000000000E+00 0.  1.
         14    1    6    6    0    0 -0.54312520931E+01 -0.45788903255E+02 -0.36635597132E+03  0.36924628622E+03  0.00000000000E+00 0. -1.
         -5    1    3    3    0  503 -0.28343275809E+01  0.86268256647E+02 -0.45705722724E+03  0.46515980532E+03  0.47000000000E+01 0.  1.
         11    1    4    4    0    0 -0.42157137044E+02  0.18504583714E+02 -0.17553928962E+03  0.18147640624E+03  0.00000000000E+00 0. -1.
        -12    1    4    4    0    0  0.31034381537E+01 -0.39983540127E+02 -0.70615418807E+02  0.81208695241E+02  0.00000000000E+00 0.  1.
</event>
<event>
12    1  0.1629553E-001  0.2332000E+03  0.7818608E-02  0.1124678E+00
         21   -1    0    0  503  502  0.00000000000E+00  0.00000000000E+00  0.29342831307E+04  0.29342831307E+04  0.00000000000E+00 0. -1.
         21   -1    0    0  501  503 -0.00000000000E+00 -0.00000000000E+00 -0.20514562698E+02  0.20514562698E+02  0.00000000000E+00 0. -1.
          6    2    1    2  501    0  0.38552282532E+02 -0.15040466470E+03  0.97926060261E+03  0.10062845877E+04  0.17189968572E+03 0.  0.
         24    2    3    3    0    0 -0.38452000639E+01 -0.12400625791E+03  0.42725835229E+03  0.45200758404E+03  0.79804879980E+02 0.  0.
         -6    2    1    2    0  502 -0.38552282532E+02  0.15040466470E+03  0.19345079654E+04  0.19485131057E+04  0.17399544045E+03 0.  0.
        -24    2    5    5    0    0 -0.31004585783E+02  0.26201614076E+02  0.45901269370E+03  0.46777283398E+03  0.80442291853E+02 0.  0.
          5    1    3    3  501    0  0.42397482596E+02 -0.26398406783E+02  0.55200225032E+03  0.55427700365E+03  0.47000000000E+01 0. -1.
        -11    1    4    4    0    0 -0.24343634191E+02 -0.35085105406E+02  0.23916115844E+03  0.24294369070E+03  0.00000000000E+00 0.  1.
         12    1    4    4    0    0  0.20498434127E+02 -0.88921152507E+02  0.18809719385E+03  0.20906389334E+03  0.00000000000E+00 0. -1.
         -5    1    5    5    0  502 -0.75476967492E+01  0.12420305062E+03  0.14754952717E+04  0.14807402717E+04  0.47000000000E+01 0.  1.
         11    1    6    6    0    0 -0.55908692731E+02  0.23266758980E+02  0.24851284440E+03  0.25578459263E+03  0.00000000000E+00 0. -1.
        -12    1    6    6    0    0  0.24904106948E+02  0.29348550964E+01  0.21049984929E+03  0.21198824135E+03  0.00000000000E+00 0.  1.
</event>
<event>
12    1  0.1629553E-001  0.1887005E+03  0.7818608E-02  0.1160341E+00
         21   -1    0    0  501  502  0.00000000000E+00  0.00000000000E+00  0.51961122906E+03  0.51961122906E+03  0.00000000000E+00 0. -1.
         21   -1    0    0  502  503 -0.00000000000E+00 -0.00000000000E+00 -0.11904493587E+03  0.11904493587E+03  0.00000000000E+00 0.  1.
         -6    2    1    2    0  503 -0.11393605528E+02 -0.67140104819E+02 -0.90691397442E+01  0.18891831039E+03  0.17598372306E+03 0.  0.
        -24    2    3    3    0    0  0.42031058646E+02 -0.92860278085E+02 -0.57977507763E+01  0.12934890515E+03  0.79422189671E+02 0.  0.
          6    2    1    2  501    0  0.11393605528E+02  0.67140104819E+02  0.40963543294E+03  0.44973785455E+03  0.17270015047E+03 0.  0.
         24    2    5    5    0    0 -0.35116633853E+02  0.96874201901E+02  0.30338537775E+03  0.32991096640E+03  0.78617869151E+02 0.  0.
          5    1    5    5  501    0  0.46510239381E+02 -0.29734097082E+02  0.10625005519E+03  0.11982688815E+03  0.47000000000E+01 0. -1.
        -13    1    6    6    0    0 -0.37074105877E+01  0.48200682032E+02  0.48323098221E+02  0.68353291532E+02  0.00000000000E+00 0.  1.
         14    1    6    6    0    0 -0.31409223266E+02  0.48673519869E+02  0.25506227953E+03  0.26155767486E+03  0.00000000000E+00 0. -1.
         -5    1    3    3    0  503 -0.53424664174E+02  0.25720173266E+02 -0.32713889679E+01  0.59569405240E+02  0.47000000000E+01 0.  1.
         11    1    4    4    0    0 -0.85485664488E+01 -0.18808746708E+02  0.26881144027E+02  0.33903434122E+02  0.00000000000E+00 0. -1.
        -12    1    4    4    0    0  0.50579625095E+02 -0.74051531377E+02 -0.32678894803E+02  0.95445471027E+02  0.00000000000E+00 0.  1.
</event>
<event>
12    1  0.1629553E-001  0.1866458E+03  0.7818608E-02  0.1161914E+00
         21   -1    0    0  503  502  0.00000000000E+00  0.00000000000E+00  0.87337344480E+03  0.87337344480E+03  0.00000000000E+00 0. -1.
         21   -1    0    0  501  503 -0.00000000000E+00 -0.00000000000E+00 -0.47313456593E+02  0.47313456593E+02  0.00000000000E+00 0.  1.
          6    2    1    2  501    0 -0.60268479782E+02  0.36182680889E+02  0.22785447467E+03  0.29454088143E+03  0.17290226474E+03 0.  0.
         24    2    3    3    0    0 -0.34492045048E+02 -0.34130889960E+02  0.59880693817E+02  0.11056886212E+03  0.79278981816E+02 0.  0.
         -6    2    1    2    0  502  0.60268479782E+02 -0.36182680889E+02  0.59820551353E+03  0.62614601996E+03  0.17107754336E+03 0.  0.
        -24    2    5    5    0    0  0.61318842883E+01 -0.65367328196E+02  0.48079276215E+03  0.49351736998E+03  0.89929009398E+02 0.  0.
          5    1    3    3  501    0 -0.25776434734E+02  0.70313570849E+02  0.16797378086E+03  0.18397201931E+03  0.47000000000E+01 0. -1.
        -11    1    4    4    0    0  0.25566525033E+02 -0.16189522467E+02  0.18821468292E+02  0.35636996347E+02  0.00000000000E+00 0.  1.
         12    1    4    4    0    0 -0.60058570082E+02 -0.17941367493E+02  0.41059225525E+02  0.74931865775E+02  0.00000000000E+00 0. -1.
         -5    1    5    5    0  502  0.54136595494E+02  0.29184647307E+02  0.11741275138E+03  0.13262864998E+03  0.47000000000E+01 0.  1.
         13    1    6    6    0    0  0.25689012263E+02 -0.78293095007E+02  0.42638716161E+03  0.43427611684E+03  0.00000000000E+00 0. -1.
        -14    1    6    6    0    0 -0.19557127974E+02  0.12925766811E+02  0.54405600541E+02  0.59241253131E+02  0.00000000000E+00 0.  1.
</event>
<event>
12    1  0.1629553E-001  0.2009686E+03  0.7818608E-02  0.1149099E+00
         21   -1    0    0  503  502  0.00000000000E+00  0.00000000000E+00  0.18791374668E+03  0.18791374668E+03  0.00000000000E+00 0.  1.
         21   -1    0    0  501  503 -0.00000000000E+00 -0.00000000000E+00 -0.11766805728E+04  0.11766805728E+04  0.00000000000E+00 0. -1.
          6    2    1    2  501    0 -0.15044529052E+02  0.10265243566E+03 -0.11113254639E+04  0.11292031297E+04  0.17114777574E+03 0.  0.
         24    2    3    3    0    0 -0.66763345349E+02  0.72355141062E+02 -0.76531979519E+03  0.77801261906E+03  0.99481836529E+02 0.  0.
         -6    2    1    2    0  502  0.15044529052E+02 -0.10265243566E+03  0.12255863778E+03  0.23539118972E+03  0.17211778554E+03 0.  0.
        -24    2    5    5    0    0 -0.41908808801E+02 -0.89197664815E+02  0.37028103732E+02  0.13164980065E+03  0.79044404488E+02 0.  0.
          5    1    3    3  501    0  0.51718816297E+02  0.30297294593E+02 -0.34600566868E+03  0.35119051066E+03  0.47000000000E+01 0. -1.
        -11    1    4    4    0    0  0.12062691846E+02  0.43287826183E+02 -0.13900668345E+03  0.14608970694E+03  0.00000000000E+00 0.  1.
         12    1    4    4    0    0 -0.78826037195E+02  0.29067314880E+02 -0.62631311174E+03  0.63192291212E+03  0.00000000000E+00 0. -1.
         -5    1    5    5    0  502  0.56953337853E+02 -0.13454770841E+02  0.85530534050E+02  0.10374138907E+03  0.47000000000E+01 0.  1.
         13    1    6    6    0    0 -0.56202795879E+02 -0.73710564519E+02  0.51542949417E+02  0.10605978135E+03  0.00000000000E+00 0. -1.
        -14    1    6    6    0    0  0.14293987077E+02 -0.15487100295E+02 -0.14514845685E+02  0.25590019293E+02  0.00000000000E+00 0.  1.
</event>
<event>
12    1  0.1629553E-001  0.2013324E+03  0.7818608E-02  0.1148653E+00
         21   -1    0    0  503  502  0.00000000000E+00  0.00000000000E+00  0.57620708656E+02  0.57620708656E+02  0.00000000000E+00 0.  1.
         21   -1    0    0  501  503 -0.00000000000E+00 -0.00000000000E+00 -0.90841110258E+03  0.90841110258E+03  0.00000000000E+00 0.  1.
          6    2    1    2  501    0 -0.40103653395E+02 -0.97908434109E+02 -0.65525790276E+03  0.68549080842E+03  0.17129029397E+03 0.  0.
         24    2    3    3    0    0 -0.64057049986E+01 -0.14226297467E+02 -0.49312179132E+03  0.49988784413E+03  0.80469466497E+02 0.  0.
         -6    2    1    2    0  502  0.40103653395E+02  0.97908434109E+02 -0.19553249116E+03  0.28054100282E+03  0.17110211768E+03 0.  0.
        -24    2    5    5    0    0  0.45242795515E+02  0.52031565955E+02 -0.20740454085E+03  0.23264389041E+03  0.79701579529E+02 0.  0.
          5    1    3    3  501    0 -0.33697948397E+02 -0.83682136642E+02 -0.16213611144E+03  0.18560296429E+03  0.47000000000E+01 0. -1.
        -11    1    4    4    0    0  0.36901745530E+02 -0.40877335731E+01 -0.20117127589E+03  0.20456864528E+03  0.00000000000E+00 0.  1.
         12    1    4    4    0    0 -0.43307450528E+02 -0.10138563894E+02 -0.29195051543E+03  0.29531919885E+03  0.00000000000E+00 0. -1.
         -5    1    5    5    0  502 -0.51391421196E+01  0.45876868154E+02  0.11872049684E+02  0.47897112408E+02  0.47000000000E+01 0.  1.
         11    1    6    6    0    0 -0.16774942820E+02  0.36442964696E+02 -0.62656377561E+02  0.74399664190E+02  0.00000000000E+00 0. -1.
        -12    1    6    6    0    0  0.62017738335E+02  0.15588601259E+02 -0.14474816329E+03  0.15824422622E+03  0.00000000000E+00 0.  1.
</event>
<event>
12    1  0.1629553E-001  0.3113068E+03  0.7818608E-02  0.1080857E+00
         21   -1    0    0  501  502  0.00000000000E+00  0.00000000000E+00  0.45311374067E+03  0.45311374067E+03  0.00000000000E+00 0. -1.
         21   -1    0    0  502  503 -0.00000000000E+00 -0.00000000000E+00 -0.55826645345E+03  0.55826645345E+03  0.00000000000E+00 0.  1.
         -6    2    1    2    0  503 -0.85536288515E+02  0.23265930370E+03 -0.45370755678E+03  0.55023858287E+03  0.18832191256E+03 0.  0.
        -24    2    3    3    0    0  0.43948442023E+01  0.19289387124E+03 -0.34609977195E+03  0.40439474993E+03  0.80763242939E+02 0.  0.
          6    2    1    2  501    0  0.85536288515E+02 -0.23265930370E+03  0.34855484400E+03  0.46114161125E+03  0.17237835741E+03 0.  0.
         24    2    5    5    0    0 -0.66342526385E+01 -0.17555656693E+03  0.21284856644E+03  0.28737620914E+03  0.80102758032E+02 0.  0.
          5    1    5    5  501    0  0.92170541153E+02 -0.57102736773E+02  0.13570627756E+03  0.17376540211E+03  0.47000000000E+01 0. -1.
        -13    1    6    6    0    0 -0.35040131746E+02 -0.11034785946E+03  0.95171088338E+02  0.14987326971E+03  0.00000000000E+00 0.  1.
         14    1    6    6    0    0  0.28405879107E+02 -0.65208707468E+02  0.11767747810E+03  0.13750293943E+03  0.00000000000E+00 0. -1.
         -5    1    3    3    0  503 -0.89931132717E+02  0.39765432460E+02 -0.10760778483E+03  0.14584383294E+03  0.47000000000E+01 0.  1.
         11    1    4    4    0    0  0.11728741103E+02  0.64015517916E+02 -0.19546947480E+03  0.20601909008E+03  0.00000000000E+00 0. -1.
        -12    1    4    4    0    0 -0.73338969011E+01  0.12887835332E+03 -0.15063029716E+03  0.19837565985E+03  0.00000000000E+00 0.  1.
</event>
<event>
12    1  0.1629553E-001  0.1823877E+03  0.7818608E-02  0.1166387E+00
         21   -1    0    0  501  502  0.00000000000E+00  0.00000000000E+00  0.41976912576E+03  0.41976912576E+03  0.00000000000E+00 0.  1.
         21   -1    0    0  502  503 -0.00000000000E+00 -0.00000000000E+00 -0.82949825187E+02  0.82949825187E+02  0.00000000000E+00 0.  1.
         -6    2    1    2    0  503 -0.25221062372E+02  0.53947670726E+02  0.23021113344E+03  0.29145943610E+03  0.16853778144E+03 0.  0.
        -24    2    3    3    0    0 -0.75255375096E+01 -0.21707186842E+02  0.54843512332E+02  0.99593124299E+02  0.79894579837E+02 0.  0.
          6    2    1    2  501    0  0.25221062372E+02 -0.53947670726E+02  0.10660816714E+03  0.21125951484E+03  0.17239149674E+03 0.  0.
         24    2    5    5    0    0  0.55928843222E+02 -0.73198759176E+02  0.26797034722E+02  0.12347865663E+03  0.77735472755E+02 0.  0.
          5    1    5    5  501    0 -0.30707780850E+02  0.19251088450E+02  0.79811132416E+02  0.87780858213E+02  0.47000000000E+01 0. -1.
        -11    1    6    6    0    0  0.16417366323E+01 -0.65170292510E+02  0.19952066310E+02  0.68175855514E+02  0.00000000000E+00 0.  1.
         12    1    6    6    0    0  0.54287106589E+02 -0.80284666667E+01  0.68449684121E+01  0.55302801117E+02  0.00000000000E+00 0. -1.
         -5    1    3    3    0  503 -0.17695524862E+02  0.75654857569E+02  0.17536762110E+03  0.19186631180E+03  0.47000000000E+01 0.  1.
         13    1    4    4    0    0  0.33658142662E+02  0.45924073193E+01  0.26667489342E+02  0.43186986006E+02  0.00000000000E+00 0. -1.
        -14    1    4    4    0    0 -0.41183680172E+02 -0.26299594162E+02  0.28176022990E+02  0.56406138293E+02  0.00000000000E+00 0.  1.
</event>
<event>
12    1  0.1629553E-001  0.1925239E+03  0.7818608E-02  0.1156216E+00
         21   -1    0    0  501  502  0.00000000000E+00  0.00000000000E+00  0.13601324471E+04  0.13601324471E+04  0.00000000000E+00 0.  1.
         21   -1    0    0  502  503 -0.00000000000E+00 -0.00000000000E+00 -0.49574479013E+02  0.49574479013E+02  0.00000000000E+00 0.  1.
         -6    2    1    2    0  503  0.86357082027E+02  0.12385630976E+02  0.18226393175E+03  0.26511429509E+03  0.17162313123E+03 0.  0.
        -24    2    3    3    0    0  0.62672183619E+02  0.74584201440E+02  0.11950759087E+03  0.17351688846E+03  0.79595481043E+02 0.  0.
          6    2    1    2  501    0 -0.86357082027E+02 -0.12385630976E+02  0.11282940363E+04  0.11445926310E+04  0.17156313439E+03 0.  0.
         24    2    5    5    0    0 -0.67440099183E+02  0.53554074953E+02  0.54868625640E+03  0.56092049222E+03  0.78479199154E+02 0.  0.
          5    1    5    5  501    0 -0.18916982844E+02 -0.65939705929E+02  0.57960777989E+03  0.58367213876E+03  0.47000000000E+01 0. -1.
        -13    1    6    6    0    0 -0.61350082632E+01  0.27406790098E+02  0.35458512980E+03  0.35569563499E+03  0.00000000000E+00 0.  1.
         14    1    6    6    0    0 -0.61305090920E+02  0.26147284855E+02  0.19410112660E+03  0.20522485723E+03  0.00000000000E+00 0. -1.
         -5    1    3    3    0  503  0.23684898407E+02 -0.62198570464E+02  0.62756340883E+02  0.91597406630E+02  0.47000000000E+01 0.  1.
         13    1    4    4    0    0  0.11790641261E+01  0.12167725541E+02 -0.10919417390E+02  0.16391382284E+02  0.00000000000E+00 0. -1.
        -14    1    4    4    0    0  0.61493119493E+02  0.62416475899E+02  0.13042700826E+03  0.15712550618E+03  0.00000000000E+00 0.  1.
</event>
<event>
12    1  0.1629553E-001  0.2774476E+03  0.7818608E-02  0.1097163E+00
         21   -1    0    0  501  502  0.00000000000E+00  0.00000000000E+00  0.27527321692E+03  0.27527321692E+03  0.00000000000E+00 0. -1.
         21   -1    0    0  502  503 -0.00000000000E+00 -0.00000000000E+00 -0.27913368257E+03  0.27913368257E+03  0.00000000000E+00 0.  1.
         -6    2    1    2    0  503  0.16633034337E+03 -0.13934332501E+03 -0.41260184914E+01  0.27747823442E+03  0.17290113128E+03 0.  0.
        -24    2    3    3    0    0  0.16629035637E+03 -0.12648528460E+03 -0.52195718793E+02  0.22749706908E+03  0.73345167085E+02 0.  0.
          6    2    1    2  501    0 -0.16633034337E+03  0.13934332501E+03  0.26555284028E+00  0.27692866508E+03  0.17206704993E+03 0.  0.
         24    2    5    5    0    0 -0.15362990837E+03  0.16347797485E+03 -0.24852129876E+02  0.23955527404E+03  0.80261472402E+02 0.  0.
          5    1    5    5  501    0 -0.12700435005E+02 -0.24134649849E+02  0.25117682717E+02  0.37373391038E+02  0.47000000000E+01 0. -1.
        -11    1    6    6    0    0 -0.11534069943E+03  0.81428850267E+02 -0.42210220600E+02  0.14736294421E+03  0.00000000000E+00 0.  1.
         12    1    6    6    0    0 -0.38289208934E+02  0.82049124587E+02  0.17358090723E+02  0.92192329832E+02  0.00000000000E+00 0. -1.
         -5    1    3    3    0  503  0.39986999162E-01 -0.12858040407E+02  0.48069700301E+02  0.49981165344E+02  0.47000000000E+01 0.  1.
         13    1    4    4    0    0  0.97617056750E+02 -0.11491246707E+03 -0.25525363889E+02  0.15292321295E+03  0.00000000000E+00 0. -1.
        -14    1    4    4    0    0  0.68673299625E+02 -0.11572817526E+02 -0.26670354903E+02  0.74573856126E+02  0.00000000000E+00 0.  1.
</event>
<event>
12    1  0.1629553E-001  0.2505853E+03  0.7818608E-02  0.1113058E+00
         21   -1    0    0  503  502  0.00000000000E+00  0.00000000000E+00  0.21623327065E+04  0.21623327065E+04  0.00000000000E+00 0. -1.
         21   -1    0    0  501  503 -0.00000000000E+00 -0.00000000000E+00 -0.35979311029E+02  0.35979311029E+02  0.00000000000E+00 0. -1.
          6    2    1    2  501    0  0.12586963807E+03  0.13066804793E+03  0.57865236475E+03  0.63058033619E+03  0.17284587532E+03 0.  0.
         24    2    3    3    0    0  0.50958329153E+02  0.13178457860E+02  0.34839742947E+03  0.36140579579E+03  0.80392520206E+02 0.  0.
         -6    2    1    2    0  502 -0.12586963807E+03 -0.13066804793E+03  0.15477010307E+04  0.15677316813E+04  0.17171732485E+03 0.  0.
        -24    2    5    5    0    0 -0.15630381450E+03 -0.79689469918E+02  0.12293653211E+04  0.12438725013E+04  0.71403169380E+02 0.  0.
          5    1    3    3  501    0  0.74911308919E+02  0.11748959007E+03  0.23025493528E+03  0.26917454040E+03  0.47000000000E+01 0. -1.
        -11    1    4    4    0    0 -0.14481489416E+02  0.69121971712E+00  0.13054224449E+02  0.19509077281E+02  0.00000000000E+00 0.  1.
         12    1    4    4    0    0  0.65439818569E+02  0.12487238143E+02  0.33534320502E+03  0.34189671850E+03  0.00000000000E+00 0. -1.
         -5    1    5    5    0  502  0.30434176429E+02 -0.50978578009E+02  0.31833570958E+03  0.32385918005E+03  0.47000000000E+01 0.  1.
         11    1    6    6    0    0 -0.67435838440E+02 -0.45553752219E+02  0.34839143537E+03  0.35776993849E+03  0.00000000000E+00 0. -1.
        -12    1    6    6    0    0 -0.88867976061E+02 -0.34135717699E+02  0.88097388573E+03  0.88610256276E+03  0.00000000000E+00 0.  1.
</event>
<event>
12    1  0.1629553E-001  0.1920042E+03  0.7818608E-02  0.1157027E+00
         21   -1    0    0  503  502  0.00000000000E+00  0.00000000000E+00  0.42181626968E+03  0.42181626968E+03  0.00000000000E+00 0. -1.
         21   -1    0    0  501  503 -0.00000000000E+00 -0.00000000000E+00 -0.21556370244E+03  0.21556370244E+03  0.00000000000E+00 0. -1.
          6    2    1    2  501    0 -0.14400034127E+02  0.79030182925E+02 -0.14313516444E+03  0.23948549373E+03  0.17439178769E+03 0.  0.
         24    2    3    3    0    0 -0.55136819835E+02  0.10382593792E+03 -0.90458515560E+02  0.16827289293E+03  0.79455202301E+02 0.  0.
         -6    2    1    2    0  502  0.14400034127E+02 -0.79030182925E+02  0.34938773167E+03  0.39789447839E+03  0.17261256643E+03 0.  0.
        -24    2    5    5    0    0 -0.15828858985E+02  0.24801773183E+01  0.10409314799E+03  0.13760762203E+03  0.88565061545E+02 0.  0.
          5    1    3    3  501    0  0.40736785708E+02 -0.24795754993E+02 -0.52676648879E+02  0.71212600799E+02  0.47000000000E+01 0. -1.
        -13    1    4    4    0    0 -0.37966629441E+02  0.37700332204E+02  0.17254591246E+01  0.53532767615E+02  0.00000000000E+00 0.  1.
         14    1    4    4    0    0 -0.17170190394E+02  0.66125605714E+02 -0.92183974684E+02  0.11474012532E+03  0.00000000000E+00 0. -1.
         -5    1    5    5    0  502  0.30228893112E+02 -0.81510360243E+02  0.24529458369E+03  0.26028685636E+03  0.47000000000E+01 0.  1.
         13    1    6    6    0    0  0.19333616756E+02 -0.15203116617E+02  0.93736100581E+02  0.96909132923E+02  0.00000000000E+00 0. -1.
        -14    1    6    6    0    0 -0.35162475740E+02  0.17683293936E+02  0.10357047406E+02  0.40698489107E+02  0.00000000000E+00 0.  1.
</event>
<event>
12    1  0.1629553E-001  0.1909351E+03  0.7818608E-02  0.1157848E+00
         21   -1    0    0  501  502  0.00000000000E+00  0.00000000000E+00  0.53757224551E+03  0.53757224551E+03  0.00000000000E+00 0. -1.
         21   -1    0    0  502  503 -0.00000000000E+00 -0.00000000000E+00 -0.92434194112E+02  0.92434194112E+02  0.00000000000E+00 0.  1.
         -6    2    1    2    0  503 -0.65899966552E+02 -0.46341414254E+02  0.58391906162E+02  0.19869589597E+03  0.17198869760E+03 0.  0.
        -24    2    3    3    0    0 -0.70892276522E+01  0.38930787073E+02  0.23946397454E+02  0.89431837837E+02  0.76542539395E+02 0.  0.
          6    2    1    2  501    0  0.65899966552E+02  0.46341414254E+02  0.38674614523E+03  0.43131054365E+03  0.17310653352E+03 0.  0.
         24    2    5    5    0    0  0.87412929223E+02  0.75760226368E+02  0.22517436670E+03  0.26561261462E+03  0.80411028652E+02 0.  0.
          5    1    5    5  501    0 -0.21512962671E+02 -0.29418812115E+02  0.16157177853E+03  0.16569792904E+03  0.47000000000E+01 0. -1.
        -13    1    6    6    0    0  0.71138635559E+01  0.42612785007E+02  0.31871851893E+02  0.53686790217E+02  0.00000000000E+00 0.  1.
         14    1    6    6    0    0  0.80299065668E+02  0.33147441362E+02  0.19330251481E+03  0.21192582440E+03  0.00000000000E+00 0. -1.
         -5    1    3    3    0  503 -0.58810738900E+02 -0.85272201327E+02  0.34445508708E+02  0.10926405813E+03  0.47000000000E+01 0.  1.
         11    1    4    4    0    0 -0.31461424837E+02  0.27006211089E+02  0.40242873782E+02  0.57781014013E+02  0.00000000000E+00 0. -1.
        -12    1    4    4    0    0  0.24372197184E+02  0.11924575984E+02 -0.16296476328E+02  0.31650823824E+02  0.00000000000E+00 0.  1.
</event>
<event>
12    1  0.1629553E-001  0.2017476E+03  0.7818608E-02  0.1148767E+00
         21   -1    0    0  503  502  0.00000000000E+00  0.00000000000E+00  0.84106001661E+02  0.84106001661E+02  0.00000000000E+00 0. -1.
         21   -1    0    0  501  503 -0.00000000000E+00 -0.00000000000E+00 -0.55809162577E+03  0.55809162577E+03  0.00000000000E+00 0. -1.
          6    2    1    2  501    0 -0.89556320097E+02  0.56787709559E+02 -0.35958974656E+03  0.41231890858E+03  0.17163017832E+03 0.  0.
         24    2    3    3    0    0 -0.39642349389E+02 -0.17162829633E+02 -0.89633357315E+02  0.12796239148E+03  0.80462142056E+02 0.  0.
         -6    2    1    2    0  502  0.89556320097E+02 -0.56787709559E+02 -0.11439587755E+03  0.22987871886E+03  0.16885683331E+03 0.  0.
        -24    2    5    5    0    0  0.18360468182E+02 -0.87132221674E+02 -0.87662401109E+02  0.14786404024E+03  0.79056606195E+02 0.  0.
          5    1    3    3  501    0 -0.49913970708E+02  0.73950539192E+02 -0.26995638925E+03  0.28435651710E+03  0.47000000000E+01 0. -1.
        -13    1    4    4    0    0 -0.24871559995E+02 -0.49199746568E+02 -0.63292179842E+02  0.83935151088E+02  0.00000000000E+00 0.  1.
         14    1    4    4    0    0 -0.14770789394E+02  0.32036916936E+02 -0.26341177473E+02  0.44027240394E+02  0.00000000000E+00 0. -1.
         -5    1    5    5    0  502  0.71195851915E+02  0.30344512115E+02 -0.26733476438E+02  0.82014678612E+02  0.47000000000E+01 0.  1.
         13    1    6    6    0    0  0.14021807866E+02  0.52963255057E+01  0.60538790209E+01  0.16165135660E+02  0.00000000000E+00 0. -1.
        -14    1    6    6    0    0  0.43386603161E+01 -0.92428547180E+02 -0.93716280130E+02  0.13169890458E+03  0.00000000000E+00 0.  1.
</event>
<event>
12    1  0.1629553E-001  0.1919230E+03  0.7818608E-02  0.1156919E+00
         21   -1    0    0  503  502  0.00000000000E+00  0.00000000000E+00  0.31808838656E+02  0.31808838656E+02  0.00000000000E+00 0. -1.
         21   -1    0    0  501  503 -0.00000000000E+00 -0.00000000000E+00 -0.14167828825E+04  0.14167828825E+04  0.00000000000E+00 0. -1.
          6    2    1    2  501    0 -0.42343940374E+02 -0.70806011202E+02 -0.10061336815E+04  0.10242750786E+04  0.17328574961E+03 0.  0.
         24    2    3    3    0    0 -0.27588204430E+02 -0.11545005098E+03 -0.79053465561E+03  0.80355840046E+03  0.81677646457E+02 0.  0.
         -6    2    1    2    0  502  0.42343940374E+02  0.70806011202E+02 -0.37884036230E+03  0.42431664254E+03  0.17238936314E+03 0.  0.
        -24    2    5    5    0    0  0.36894272374E+02  0.11478113234E+03 -0.27312146480E+03  0.30959051017E+03  0.81945431712E+02 0.  0.
          5    1    3    3  501    0 -0.14755735945E+02  0.44644039779E+02 -0.21559902591E+03  0.22071667813E+03  0.47000000000E+01 0. -1.
        -11    1    4    4    0    0 -0.11745530696E+02  0.31935178203E+01 -0.17530409715E+02  0.21341773876E+02  0.00000000000E+00 0.  1.
         12    1    4    4    0    0 -0.15842673733E+02 -0.11864356880E+03 -0.77300424590E+03  0.78221662659E+03  0.00000000000E+00 0. -1.
         -5    1    5    5    0  502  0.54496680008E+01 -0.43975121140E+02 -0.10571889750E+03  0.11472613237E+03  0.47000000000E+01 0.  1.
         11    1    6    6    0    0  0.10217516384E+02  0.17249388583E+02 -0.19052516402E+01  0.20138744533E+02  0.00000000000E+00 0. -1.
        -12    1    6    6    0    0  0.26676755989E+02  0.97531743759E+02 -0.27121621316E+03  0.28945176564E+03  0.00000000000E+00 0.  1.
</event>
<event>
12    1  0.1629553E-001  0.1959905E+03  0.7818608E-02  0.1153733E+00
         21   -1    0    0  503  502  0.00000000000E+00  0.00000000000E+00  0.19589695494E+02  0.19589695494E+02  0.00000000000E+00 0.  1.
         21   -1    0    0  501  503 -0.00000000000E+00 -0.00000000000E+00 -0.36134286629E+04  0.36134286629E+04  0.00000000000E+00 0.  1.
          6    2    1    2  501    0  0.66712246773E+02  0.65770778515E+02 -0.30285312478E+04  0.30346997884E+04  0.16918914870E+03 0.  0.
         24    2    3    3    0    0  0.66370497735E+02 -0.76940863150E+01 -0.10479246294E+04  0.10527255530E+04  0.74972122324E+02 0.  0.
         -6    2    1    2    0  502 -0.66712246773E+02 -0.65770778515E+02 -0.56530771967E+03  0.59831856999E+03  0.17215102121E+03 0.  0.
        -24    2    5    5    0    0  0.17705959660E+01 -0.39456796740E+02 -0.46932895814E+03  0.47742052182E+03  0.78107041222E+02 0.  0.
          5    1    3    3  501    0  0.34174903764E+00  0.73464864830E+02 -0.19806066184E+04  0.19819742354E+04  0.47000000000E+01 0. -1.
        -11    1    4    4    0    0  0.59012844713E+02  0.26693255833E+02 -0.62806133509E+03  0.63139218112E+03  0.00000000000E+00 0.  1.
         12    1    4    4    0    0  0.73576530224E+01 -0.34387342148E+02 -0.41986329431E+03  0.42133337189E+03  0.00000000000E+00 0. -1.
         -5    1    5    5    0  502 -0.68482842739E+02 -0.26313981775E+02 -0.95978761530E+02  0.12089804817E+03  0.47000000000E+01 0.  1.
         11    1    6    6    0    0 -0.23918296226E+01  0.10835469010E+02 -0.31197996635E+03  0.31217723755E+03  0.00000000000E+00 0. -1.
        -12    1    6    6    0    0  0.41624255885E+01 -0.50292265750E+02 -0.15734899179E+03  0.16524328427E+03  0.00000000000E+00 0.  1.
</event>
<event>
12    1  0.1629553E-001  0.2108460E+03  0.7818608E-02  0.1141084E+00
         21   -1    0    0  503  502  0.00000000000E+00  0.00000000000E+00  0.39039917502E+03  0.39039917502E+03  0.00000000000E+00 0. -1.
         21   -1    0    0  501  503 -0.00000000000E+00 -0.00000000000E+00 -0.18276365468E+03  0.18276365468E+03  0.00000000000E+00 0.  1.
          6    2    1    2  501    0  0.11898656611E+03  0.26136105346E+02 -0.72921553055E+02  0.22220939091E+03  0.17093437803E+03 0.  0.
         24    2    3    3    0    0  0.39125298626E+02 -0.23886706951E+02  0.14304844306E+02  0.93715662697E+02  0.80477531663E+02 0.  0.
         -6    2    1    2    0  502 -0.11898656611E+03 -0.26136105346E+02  0.28055707340E+03  0.35095343878E+03  0.17209051643E+03 0.  0.
        -24    2    5    5    0    0 -0.40687889092E+01 -0.44501049705E+02  0.15189725812E+03  0.17740573709E+03  0.80019497986E+02 0.  0.
          5    1    3    3  501    0  0.79861267485E+02  0.50022812297E+02 -0.87226397361E+02  0.12849372822E+03  0.47000000000E+01 0. -1.
        -13    1    4    4    0    0  0.28665870478E+02 -0.26236831579E+02 -0.29391612866E+02  0.48723406782E+02  0.00000000000E+00 0.  1.
         14    1    4    4    0    0  0.10459428148E+02  0.23501246280E+01  0.43696457172E+02  0.44992255915E+02  0.00000000000E+00 0. -1.
         -5    1    5    5    0  502 -0.11491777720E+03  0.18364944358E+02  0.12865981527E+03  0.17354770170E+03  0.47000000000E+01 0.  1.
         13    1    6    6    0    0  0.29242797470E+02  0.21595044595E+00  0.87314938400E+02  0.92081954292E+02  0.00000000000E+00 0. -1.
        -14    1    6    6    0    0 -0.33311586379E+02 -0.44717000151E+02  0.64582319722E+02  0.85323782794E+02  0.00000000000E+00 0.  1.
</event>
<event>
12    1  0.1629553E-001  0.1968713E+03  0.7818608E-02  0.1153681E+00
         21   -1    0    0  501  502  0.00000000000E+00  0.00000000000E+00  0.18362827408E+03  0.18362827408E+03  0.00000000000E+00 0. -1.
         21   -1    0    0  502  503 -0.00000000000E+00 -0.00000000000E+00 -0.21515843036E+03  0.21515843036E+03  0.00000000000E+00 0. -1.
         -6    2    1    2    0  503 -0.76328939593E+02  0.16033141492E+02  0.28064047983E+02  0.19309332756E+03  0.17439688562E+03 0.  0.
        -24    2    3    3    0    0 -0.28112695860E+02  0.75973473024E+02  0.51629190992E+01  0.11269307129E+03  0.78171480173E+02 0.  0.
          6    2    1    2  501    0  0.76328939593E+02 -0.16033141492E+02 -0.59594204261E+02  0.20569337687E+03  0.18076262739E+03 0.  0.
         24    2    5    5    0    0  0.93388334056E+02 -0.69538670619E+02 -0.41503674442E+02  0.14650535565E+03  0.78640044465E+02 0.  0.
          5    1    5    5  501    0 -0.17059394463E+02  0.53505529127E+02 -0.18090529818E+02  0.59188021218E+02  0.47000000000E+01 0. -1.
        -13    1    6    6    0    0  0.76638369866E+02 -0.34198216927E+02  0.69825513578E+01  0.84212313827E+02  0.00000000000E+00 0.  1.
         14    1    6    6    0    0  0.16749964190E+02 -0.35340453691E+02 -0.48486225800E+02  0.62293041825E+02  0.00000000000E+00 0. -1.
         -5    1    3    3    0  503 -0.48216243733E+02 -0.59940331532E+02  0.22901128884E+02  0.80400256269E+02  0.47000000000E+01 0.  1.
         13    1    4    4    0    0  0.25052212353E+02  0.25002905644E+02 -0.11433247663E+02  0.37195131221E+02  0.00000000000E+00 0. -1.
        -14    1    4    4    0    0 -0.53164908212E+02  0.50970567380E+02  0.16596166762E+02  0.75497940074E+02  0.00000000000E+00 0.  1.
</event>
<event>
12    1  0.1629553E-001  0.2384329E+03  0.7818608E-02  0.1121610E+00
         21   -1    0    0  501  502  0.00000000000E+00  0.00000000000E+00  0.22020563441E+03  0.22020563441E+03  0.00000000000E+00 0.  1.
         21   -1    0    0  502  503 -0.00000000000E+00 -0.00000000000E+00 -0.25461450918E+03  0.25461450918E+03  0.00000000000E+00 0.  1.
         -6    2    1    2    0  503  0.13199607301E+03 -0.99477179624E+02 -0.22288486683E+00  0.23843301973E+03  0.17184755647E+03 0.  0.
        -24    2    3    3    0    0  0.18569655462E+02 -0.89207339656E+01 -0.34757995316E+02  0.89165521922E+02  0.79485599091E+02 0.  0.
          6    2    1    2  501    0 -0.13199607301E+03  0.99477179624E+02 -0.34185989901E+02  0.23638712385E+03  0.16550383035E+03 0.  0.
         24    2    5    5    0    0 -0.13056629497E+03  0.12787903569E+03 -0.11732253941E+02  0.19984988323E+03  0.80010779862E+02 0.  0.
          5    1    5    5  501    0 -0.14297780443E+01 -0.28401856070E+02 -0.22453735960E+02  0.36537240619E+02  0.47000000000E+01 0. -1.
        -13    1    6    6    0    0 -0.10530191140E+03  0.11323322658E+03  0.20926617656E+02  0.15603903188E+03  0.00000000000E+00 0.  1.
         14    1    6    6    0    0 -0.25264383575E+02  0.14645809115E+02 -0.32658871597E+02  0.43810851350E+02  0.00000000000E+00 0. -1.
         -5    1    3    3    0  503  0.11342641755E+03 -0.90556445658E+02  0.34535110449E+02  0.14926749781E+03  0.47000000000E+01 0.  1.
         11    1    4    4    0    0  0.57742185173E+01  0.24388112348E+02  0.14029546448E+02  0.28721939296E+02  0.00000000000E+00 0. -1.
        -12    1    4    4    0    0  0.12795436944E+02 -0.33308846313E+02 -0.48787541764E+02  0.60443582626E+02  0.00000000000E+00 0.  1.
</event>
<event>
12    1  0.1629553E-001  0.1802006E+03  0.7818608E-02  0.1167887E+00
         21   -1    0    0  501  502  0.00000000000E+00  0.00000000000E+00  0.79353694639E+03  0.79353694639E+03  0.00000000000E+00 0. -1.
         21   -1    0    0  502  503 -0.00000000000E+00 -0.00000000000E+00 -0.47542976729E+02  0.47542976729E+02  0.00000000000E+00 0.  1.
         -6    2    1    2    0  503 -0.15181688045E+02  0.47961318209E+02  0.21401434192E+03  0.27977564467E+03  0.17303612659E+03 0.  0.
        -24    2    3    3    0    0  0.47804679182E+02  0.40907005320E+02  0.18329343963E+03  0.20918591720E+03  0.78762887878E+02 0.  0.
          6    2    1    2  501    0  0.15181688045E+02 -0.47961318209E+02  0.53197962775E+03  0.56130427845E+03  0.17184119698E+03 0.  0.
         24    2    5    5    0    0  0.16722658124E+02  0.40376858004E+02  0.24577522112E+03  0.26173615542E+03  0.78679208062E+02 0.  0.
          5    1    5    5  501    0 -0.15409700795E+01 -0.88338176213E+02  0.28620440663E+03  0.29956812303E+03  0.47000000000E+01 0. -1.
        -13    1    6    6    0    0  0.45977804972E+02  0.18955815292E+02  0.10226740240E+03  0.11371852566E+03  0.00000000000E+00 0.  1.
         14    1    6    6    0    0 -0.29255146848E+02  0.21421042713E+02  0.14350781872E+03  0.14801762977E+03  0.00000000000E+00 0. -1.
         -5    1    3    3    0  503 -0.62986367227E+02  0.70543128891E+01  0.30720902289E+02  0.70589727470E+02  0.47000000000E+01 0.  1.
         11    1    4    4    0    0  0.14925168624E+02  0.74211561479E+01  0.15169972688E+03  0.15261271688E+03  0.00000000000E+00 0. -1.
        -12    1    4    4    0    0  0.32879510558E+02  0.33485849172E+02  0.31593712749E+02  0.56573200321E+02  0.00000000000E+00 0.  1.
</event>
<event>
12    1  0.1629553E-001  0.2286475E+03  0.7818608E-02  0.1127687E+00
         21   -1    0    0  501  502  0.00000000000E+00  0.00000000000E+00  0.23584323147E+03  0.23584323147E+03  0.00000000000E+00 0. -1.
         21   -1    0    0  502  503 -0.00000000000E+00 -0.00000000000E+00 -0.68812755630E+03  0.68812755630E+03  0.00000000000E+00 0.  1.
         -6    2    1    2    0  503 -0.12398545380E+03  0.81360399676E+02 -0.60679247533E+03  0.64844181521E+03  0.17403382492E+03 0.  0.
        -24    2    3    3    0    0 -0.96236503857E+02  0.47273698263E+02 -0.58340827441E+03  0.59843363300E+03  0.79128574047E+02 0.  0.
          6    2    1    2  501    0  0.12398545380E+03 -0.81360399676E+02  0.15450815050E+03  0.27552897256E+03  0.17335379649E+03 0.  0.
         24    2    5    5    0    0 -0.45907182066E+01 -0.11784233301E+02  0.46181592896E+02  0.93514115971E+02  0.80325634236E+02 0.  0.
          5    1    5    5  501    0  0.12857617201E+03 -0.69576166375E+02  0.10832655761E+03  0.18201485659E+03  0.47000000000E+01 0. -1.
        -13    1    6    6    0    0  0.11288182884E+02  0.32354923995E+02  0.16806650478E+02  0.38167102062E+02  0.00000000000E+00 0.  1.
         14    1    6    6    0    0 -0.15878901091E+02 -0.44139157295E+02  0.29374942418E+02  0.55347013909E+02  0.00000000000E+00 0. -1.
         -5    1    3    3    0  503 -0.27748949943E+02  0.34086701413E+02 -0.23384200916E+02  0.50008182217E+02  0.47000000000E+01 0.  1.
         11    1    4    4    0    0  0.90272382412E+00 -0.10347313361E+02 -0.15629070531E+03  0.15663545694E+03  0.00000000000E+00 0. -1.
        -12    1    4    4    0    0 -0.97139227682E+02  0.57621011624E+02 -0.42711756910E+03  0.44179817606E+03  0.00000000000E+00 0.  1.
</event>
<event>
12    1  0.1629553E-001  0.2611005E+03  0.7818608E-02  0.1106766E+00
         21   -1    0    0  503  502  0.00000000000E+00  0.00000000000E+00  0.17693768137E+03  0.17693768137E+03  0.00000000000E+00 0. -1.
         21   -1    0    0  501  503 -0.00000000000E+00 -0.00000000000E+00 -0.41875610072E+03  0.41875610072E+03  0.00000000000E+00 0.  1.
          6    2    1    2  501    0  0.17879962685E+03  0.78535501986E+02 -0.33695773005E+02  0.26326576783E+03  0.17330991824E+03 0.  0.
         24    2    3    3    0    0  0.17138250935E+03  0.10959567389E+03 -0.53578859634E+02  0.22535567624E+03  0.80816522849E+02 0.  0.
         -6    2    1    2    0  502 -0.17879962685E+03 -0.78535501986E+02 -0.20812264635E+03  0.33242801425E+03  0.17045884284E+03 0.  0.
        -24    2    5    5    0    0 -0.37866031032E+02 -0.39336239469E+02 -0.13719293166E+03  0.16978738268E+03  0.83813356804E+02 0.  0.
          5    1    3    3  501    0  0.74171174948E+01 -0.31060171907E+02  0.19883086630E+02  0.37910091595E+02  0.47000000000E+01 0. -1.
        -11    1    4    4    0    0  0.17171609626E+03  0.10430565308E+03 -0.32381800001E+02  0.20350594083E+03  0.00000000000E+00 0.  1.
         12    1    4    4    0    0 -0.33358691187E+00  0.52900208097E+01 -0.21197059633E+02  0.21849735410E+02  0.00000000000E+00 0. -1.
         -5    1    5    5    0  502 -0.14093359581E+03 -0.39199262517E+02 -0.70929714684E+02  0.16264063157E+03  0.47000000000E+01 0.  1.
         11    1    6    6    0    0  0.41446793920E+01 -0.51463878367E+02 -0.48200685946E+02  0.70632961636E+02  0.00000000000E+00 0. -1.
        -12    1    6    6    0    0 -0.42010710424E+02  0.12127638898E+02 -0.88992245717E+02  0.99154421048E+02  0.00000000000E+00 0.  1.
</event>
<event>
12    1  0.1629553E-001  0.1920159E+03  0.7818608E-02  0.1157073E+00
         21   -1    0    0  503  502  0.00000000000E+00  0.00000000000E+00  0.61400088956E+03  0.61400088956E+03  0.00000000000E+00 0.  1.
         21   -1    0    0  501  503 -0.00000000000E+00 -0.00000000000E+00 -0.59610989372E+02  0.59610989372E+02  0.00000000000E+00 0. -1.
          6    2    1    2  501    0 -0.11320277518E+02 -0.84417329410E+02  0.26193423933E+03  0.32477629958E+03  0.17209202435E+03 0.  0.
         24    2    3    3    0    0 -0.66814789721E+02 -0.24807143578E+02  0.12777831838E+03  0.16776382788E+03  0.82084059362E+02 0.  0.
         -6    2    1    2    0  502  0.11320277518E+02  0.84417329410E+02  0.29245566086E+03  0.34883557936E+03  0.17000445191E+03 0.  0.
        -24    2    5    5    0    0  0.21665577965E+02 -0.11849956164E+02  0.19203457004E+03  0.20926158108E+03  0.79393415960E+02 0.  0.
          5    1    3    3  501    0  0.55494512203E+02 -0.59610185831E+02  0.13415592096E+03  0.15701247170E+03  0.47000000000E+01 0. -1.
        -13    1    4    4    0    0  0.28392398880E+01 -0.33211252117E+01  0.81075448838E+02  0.81193100446E+02  0.00000000000E+00 0.  1.
         14    1    4    4    0    0 -0.69654029609E+02 -0.21486018366E+02  0.46702869538E+02  0.86570727438E+02  0.00000000000E+00 0. -1.
         -5    1    5    5    0  502 -0.10345300448E+02  0.96267285574E+02  0.10042109082E+03  0.13957399827E+03  0.47000000000E+01 0.  1.
         11    1    6    6    0    0  0.29111315368E+02 -0.36679098224E+02  0.68107916607E+02  0.82652968691E+02  0.00000000000E+00 0. -1.
        -12    1    6    6    0    0 -0.74457374021E+01  0.24829142060E+02  0.12392665343E+03  0.12660861239E+03  0.00000000000E+00 0.  1.
</event>
<event>
12    1  0.1629553E-001  0.2319392E+03  0.7818608E-02  0.1125554E+00
         21   -1    0    0  501  502  0.00000000000E+00  0.00000000000E+00  0.38807300303E+02  0.38807300303E+02  0.00000000000E+00 0.  1.
         21   -1    0    0  502  503 -0.00000000000E+00 -0.00000000000E+00 -0.16128891627E+04  0.16128891627E+04  0.00000000000E+00 0. -1.
         -6    2    1    2    0  503 -0.11560920118E+03  0.97120022479E+02 -0.11006431922E+04  0.11244963589E+04  0.17400815669E+03 0.  0.
        -24    2    3    3    0    0 -0.14664089986E+03  0.58720531546E+02 -0.92174297034E+03  0.93884920275E+03  0.82922058467E+02 0.  0.
          6    2    1    2  501    0  0.11560920118E+03 -0.97120022479E+02 -0.47343867025E+03  0.52720010411E+03  0.17606245800E+03 0.  0.
         24    2    5    5    0    0  0.95878932255E+02 -0.12150355468E+03 -0.27679979328E+03  0.32801983879E+03  0.83803374823E+02 0.  0.
          5    1    5    5  501    0  0.19730268923E+02  0.24383532198E+02 -0.19663887697E+03  0.19918026531E+03  0.47000000000E+01 0. -1.
        -13    1    6    6    0    0  0.60779237451E+02 -0.13296318155E+02 -0.10096076717E+03  0.11859167041E+03  0.00000000000E+00 0.  1.
         14    1    6    6    0    0  0.35099694803E+02 -0.10820723652E+03 -0.17583902611E+03  0.20942816839E+03  0.00000000000E+00 0. -1.
         -5    1    3    3    0  503  0.31031698682E+02  0.38399490932E+02 -0.17890022183E+03  0.18564715618E+03  0.47000000000E+01 0.  1.
         11    1    4    4    0    0 -0.11494072251E+03  0.25252465564E+02 -0.46014861660E+03  0.47495874143E+03  0.00000000000E+00 0. -1.
        -12    1    4    4    0    0 -0.31700177348E+02  0.33468065982E+02 -0.46159435375E+03  0.46389046131E+03  0.00000000000E+00 0.  1.
</event>
<event>
12    1  0.1629553E-001  0.2205725E+03  0.7818608E-02  0.1133700E+00
         21   -1    0    0  503  502  0.00000000000E+00  0.00000000000E+00  0.21379208203E+03  0.21379208203E+03  0.00000000000E+00 0. -1.
         21   -1    0    0  501  503 -0.00000000000E+00 -0.00000000000E+00 -0.22995391450E+03  0.22995391450E+03  0.00000000000E+00 0. -1.
          6    2    1    2  501    0 -0.11088053943E+03 -0.80187213705E+02 -0.36320034075E+02  0.22225423714E+03  0.17132809981E+03 0.  0.
         24    2    3    3    0    0 -0.97060430718E+02  0.10746209131E+02 -0.16915723366E+02  0.12813463202E+03  0.81216587006E+02 0.  0.
         -6    2    1    2    0  502  0.11088053943E+03  0.80187213705E+02  0.20158201602E+02  0.22149175939E+03  0.17299642517E+03 0.  0.
        -24    2    5    5    0    0  0.14129210240E+03  0.64475702566E+02  0.43538284788E+02  0.17977326188E+03  0.79386831541E+02 0.  0.
          5    1    3    3  501    0 -0.13820108715E+02 -0.90933422836E+02 -0.19404310709E+02  0.94119605119E+02  0.47000000000E+01 0. -1.
        -11    1    4    4    0    0  0.10840035567E+02 -0.41270934293E+01  0.10685837349E+02  0.15771061826E+02  0.00000000000E+00 0.  1.
         12    1    4    4    0    0 -0.10790046629E+03  0.14873302560E+02 -0.27601560715E+02  0.11236357020E+03  0.00000000000E+00 0. -1.
         -5    1    5    5    0  502 -0.30411562972E+02  0.15711511139E+02 -0.23380083187E+02  0.41718497510E+02  0.47000000000E+01 0.  1.
         11    1    6    6    0    0  0.12750025873E+03  0.76629301143E+02  0.20287106342E+02  0.15013304917E+03  0.00000000000E+00 0. -1.
        -12    1    6    6    0    0  0.13791843672E+02 -0.12153598577E+02  0.23251178447E+02  0.29640212708E+02  0.00000000000E+00 0.  1.
</event>
<event>
12    1  0.1629553E-001  0.2287758E+03  0.7818608E-02  0.1127655E+00
         21   -1    0    0  503  502  0.00000000000E+00  0.00000000000E+00  0.19154152822E+04  0.19154152822E+04  0.00000000000E+00 0.  1.
         21   -1    0    0  501  503 -0.00000000000E+00 -0.00000000000E+00 -0.57406920453E+02  0.57406920453E+02  0.00000000000E+00 0.  1.
          6    2    1    2  501    0 -0.56983589447E+02 -0.13892439504E+03  0.21294005771E+03  0.31192241419E+03  0.17147888294E+03 0.  0.
         24    2    3    3    0    0  0.27760872071E+01 -0.12534596128E+03  0.19999721832E+03  0.24911158783E+03  0.79613938364E+02 0.  0.
         -6    2    1    2    0  502  0.56983589447E+02  0.13892439504E+03  0.16450683041E+04  0.16608997885E+04  0.17260146400E+03 0.  0.
        -24    2    5    5    0    0 -0.88957070038E+01  0.51369089320E+02  0.40449139545E+03  0.41548452865E+03  0.79348519925E+02 0.  0.
          5    1    3    3  501    0 -0.59759676654E+02 -0.13578433753E+02  0.12942839389E+02  0.62810826364E+02  0.47000000000E+01 0. -1.
        -13    1    4    4    0    0 -0.17290928855E+02 -0.12684680766E+03  0.16638104240E+03  0.20993270375E+03  0.00000000000E+00 0.  1.
         14    1    4    4    0    0  0.20067016062E+02  0.15008463792E+01  0.33616175929E+02  0.39178884077E+02  0.00000000000E+00 0. -1.
         -5    1    5    5    0  502  0.65879296451E+02  0.87555305718E+02  0.12405769086E+04  0.12454152598E+04  0.47000000000E+01 0.  1.
         13    1    6    6    0    0  0.12886522429E+02  0.27663022280E+01  0.79706654529E+01  0.15402804812E+02  0.00000000000E+00 0. -1.
        -14    1    6    6    0    0 -0.21782229432E+02  0.48602787092E+02  0.39652073000E+03  0.40008172384E+03  0.00000000000E+00 0.  1.
</event>
<event>
12    1  0.1629553E-001  0.2081169E+03  0.7818608E-02  0.1143154E+00
         21   -1    0    0  501  502  0.00000000000E+00  0.00000000000E+00  0.14234927896E+03  0.14234927896E+03  0.00000000000E+00 0. -1.
         21   -1    0    0  502  503 -0.00000000000E+00 -0.00000000000E+00 -0.39281360995E+03  0.39281360995E+03  0.00000000000E+00 0. -1.
         -6    2    1    2    0  503 -0.12132488748E+03  0.10615668030E+02  0.21662929751E+01  0.20812816336E+03  0.16876083322E+03 0.  0.
        -24    2    3    3    0    0 -0.14751626553E+03  0.93570117920E+01  0.31334191066E+02  0.16862590041E+03  0.74861608948E+02 0.  0.
          6    2    1    2  501    0  0.12132488748E+03 -0.10615668030E+02 -0.25263062396E+03  0.32703472555E+03  0.16821729645E+03 0.  0.
         24    2    5    5    0    0  0.19583442814E+02 -0.58977573179E+02 -0.93569474342E+02  0.13206617745E+03  0.69457636916E+02 0.  0.
          5    1    5    5  501    0  0.10174144467E+03  0.48361905149E+02 -0.15906114962E+03  0.19496854811E+03  0.47000000000E+01 0. -1.
        -13    1    6    6    0    0  0.36734025287E+02 -0.58098969157E+02 -0.49319821552E+02  0.84600967068E+02  0.00000000000E+00 0.  1.
         14    1    6    6    0    0 -0.17150582473E+02 -0.87860402212E+00 -0.44249652789E+02  0.47465210378E+02  0.00000000000E+00 0. -1.
         -5    1    3    3    0  503  0.26191378045E+02  0.12586562378E+01 -0.29167898091E+02  0.39502262954E+02  0.47000000000E+01 0.  1.
         11    1    4    4    0    0 -0.67377671711E+02 -0.31261987740E+02  0.25727025773E+02  0.78606248974E+02  0.00000000000E+00 0. -1.
        -12    1    4    4    0    0 -0.80138593815E+02  0.40618999532E+02  0.56071652925E+01  0.90019651433E+02  0.00000000000E+00 0.  1.
</event>
<event>
12    1  0.1629553E-001  0.2286081E+03  0.7818608E-02  0.1127679E+00
         21   -1    0    0  503  502  0.00000000000E+00  0.00000000000E+00  0.69106439412E+03  0.69106439412E+03  0.00000000000E+00 0. -1.
         21   -1    0    0  501  503 -0.00000000000E+00 -0.00000000000E+00 -0.99715912145E+02  0.99715912145E+02  0.00000000000E+00 0.  1.
          6    2    1    2  501    0  0.14972756038E+03 -0.18094980953E+02  0.10075325672E+03  0.24953604073E+03  0.17138041373E+03 0.  0.
         24    2    3    3    0    0  0.15294835112E+03 -0.42468689204E+02  0.38278342354E+02  0.18223332108E+03  0.80913312534E+02 0.  0.
         -6    2    1    2    0  502 -0.14972756038E+03  0.18094980953E+02  0.49059522526E+03  0.54124426553E+03  0.17180194777E+03 0.  0.
        -24    2    5    5    0    0 -0.26638908304E+02  0.22651234678E+02  0.31699222675E+03  0.32833192017E+03  0.78070917223E+02 0.  0.
          5    1    3    3  501    0 -0.32207907441E+01  0.24373708251E+02  0.62474914362E+02  0.67302719644E+02  0.47000000000E+01 0. -1.
        -11    1    4    4    0    0  0.42223383135E+02  0.22614118657E+02 -0.10546674053E+01  0.47909547789E+02  0.00000000000E+00 0.  1.
         12    1    4    4    0    0  0.11072496799E+03 -0.65082807861E+02  0.39333009759E+02  0.13432377329E+03  0.00000000000E+00 0. -1.
         -5    1    5    5    0  502 -0.12308865207E+03 -0.45562537259E+01  0.17360299850E+03  0.21291234536E+03  0.47000000000E+01 0.  1.
         11    1    6    6    0    0  0.76324477591E+01 -0.22819663516E+02  0.52086811625E+02  0.57376190594E+02  0.00000000000E+00 0. -1.
        -12    1    6    6    0    0 -0.34271356064E+02  0.45470898194E+02  0.26490541513E+03  0.27095572958E+03  0.00000000000E+00 0.  1.
</event>
<event>
12    1  0.1629553E-001  0.1748022E+03  0.7818608E-02  0.1173425E+00
         21   -1    0    0  501  502  0.00000000000E+00  0.00000000000E+00  0.13100558678E+03  0.13100558678E+03  0.00000000000E+00 0. -1.
         21   -1    0    0  502  503 -0.00000000000E+00 -0.00000000000E+00 -0.60293609023E+03  0.60293609023E+03  0.00000000000E+00 0. -1.
         -6    2    1    2    0  503 -0.12321942861E+02 -0.92440521465E+01 -0.52381982025E+03  0.55160051617E+03  0.17215877141E+03 0.  0.
        -24    2    3    3    0    0  0.14834851341E+02 -0.39671286880E+02 -0.14962926532E+03  0.17516463918E+03  0.80621646978E+02 0.  0.
          6    2    1    2  501    0  0.12321942861E+02  0.92440521465E+01  0.51889316796E+02  0.18234116084E+03  0.17412212658E+03 0.  0.
         24    2    5    5    0    0  0.48471593652E+02 -0.41503898306E+01  0.88504149852E+02  0.12896565778E+03  0.80202463911E+02 0.  0.
          5    1    5    5  501    0 -0.36149650791E+02  0.13394441977E+02 -0.36614833056E+02  0.53375503070E+02  0.47000000000E+01 0. -1.
        -13    1    6    6    0    0  0.47783618735E+02  0.15986840703E+02  0.14739486606E+02  0.52498626272E+02  0.00000000000E+00 0.  1.
         14    1    6    6    0    0  0.68797491725E+00 -0.20137230534E+02  0.73764663246E+02  0.76467031503E+02  0.00000000000E+00 0. -1.
         -5    1    3    3    0  503 -0.27156794202E+02  0.30427234733E+02 -0.37419055493E+03  0.37643587698E+03  0.47000000000E+01 0.  1.
         13    1    4    4    0    0 -0.13154162488E+02 -0.96370422191E+01 -0.12747613186E+03  0.12851485816E+03  0.00000000000E+00 0. -1.
        -14    1    4    4    0    0  0.27989013829E+02 -0.30034244660E+02 -0.22153133468E+02  0.46649781027E+02  0.00000000000E+00 0.  1.
</event>
<event>
12    1  0.1629553E-001  0.2011659E+03  0.7818608E-02  0.1149505E+00
         21   -1    0    0  503  502  0.00000000000E+00  0.00000000000E+00  0.33393683425E+03  0.33393683425E+03  0.00000000000E+00 0.  1.
         21   -1    0    0  501  503 -0.00000000000E+00 -0.00000000000E+00 -0.29708546865E+03  0.29708546865E+03  0.00000000000E+00 0. -1.
          6    2    1    2  501    0 -0.10118995184E+03 -0.28427107150E+02 -0.22587094454E+03  0.30012844045E+03  0.16736753091E+03 0.  0.
         24    2    3    3    0    0 -0.13563086905E+03 -0.36484266663E+02 -0.19019220056E+03  0.24966897781E+03  0.80216525581E+02 0.  0.
         -6    2    1    2    0  502  0.10118995184E+03  0.28427107150E+02  0.26272231014E+03  0.33089386245E+03  0.17152326136E+03 0.  0.
        -24    2    5    5    0    0  0.10379341997E+03  0.57301986900E+01  0.27528961287E+03  0.30439943288E+03  0.77902083292E+02 0.  0.
          5    1    3    3  501    0  0.34440917206E+02  0.80571595123E+01 -0.35678743982E+02  0.50459462636E+02  0.47000000000E+01 0. -1.
        -11    1    4    4    0    0 -0.55827597233E+02 -0.32266813548E+02 -0.31004905599E+02  0.71548389504E+02  0.00000000000E+00 0.  1.
         12    1    4    4    0    0 -0.79803271813E+02 -0.42174531142E+01 -0.15918729496E+03  0.17812058831E+03  0.00000000000E+00 0. -1.
         -5    1    5    5    0  502 -0.26034681273E+01  0.22696908460E+02 -0.12567302730E+02  0.26494429563E+02  0.47000000000E+01 0.  1.
         11    1    6    6    0    0  0.10847341635E+02 -0.28767696123E+02  0.63156312073E+02  0.70242187575E+02  0.00000000000E+00 0. -1.
        -12    1    6    6    0    0  0.92946078333E+02  0.34497894813E+02  0.21213330080E+03  0.23415724531E+03  0.00000000000E+00 0.  1.
</event>
<event>
12    1  0.1629553E-001  0.2116291E+03  0.7818608E-02  0.1142017E+00
         21   -1    0    0  503  502  0.00000000000E+00  0.00000000000E+00  0.39402044054E+03  0.39402044054E+03  0.00000000000E+00 0.  1.
         21   -1    0    0  501  503 -0.00000000000E+00 -0.00000000000E+00 -0.23438741480E+03  0.23438741480E+03  0.00000000000E+00 0.  1.
          6    2    1    2  501    0 -0.80768339451E+02 -0.91328885806E+02 -0.15068714497E+03  0.25279436591E+03  0.16227718798E+03 0.  0.
         24    2    3    3    0    0 -0.36115082493E+02 -0.13275138737E+02 -0.15797580213E+02  0.90610564413E+02  0.80499579816E+02 0.  0.
         -6    2    1    2    0  502  0.80768339451E+02  0.91328885806E+02  0.31032017070E+03  0.37561348943E+03  0.17298090952E+03 0.  0.
        -24    2    5    5    0    0 -0.15293934461E+02  0.66417060717E+02  0.20984046844E+03  0.23430949067E+03  0.78884629919E+02 0.  0.
          5    1    3    3  501    0 -0.44653256959E+02 -0.78053747068E+02 -0.13488956476E+03  0.16218380150E+03  0.47000000000E+01 0. -1.
        -11    1    4    4    0    0 -0.29610213787E+00 -0.12524932436E+02 -0.43534668636E+02  0.45301533995E+02  0.00000000000E+00 0.  1.
         12    1    4    4    0    0 -0.35818980355E+02 -0.75020630113E+00  0.27737088424E+02  0.45309030418E+02  0.00000000000E+00 0. -1.
         -5    1    5    5    0  502  0.96062273913E+02  0.24911825089E+02  0.10047970226E+03  0.14130399876E+03  0.47000000000E+01 0.  1.
         11    1    6    6    0    0  0.21100079330E+01 -0.15701531056E+02  0.13637539884E+02  0.20903892104E+02  0.00000000000E+00 0. -1.
        -12    1    6    6    0    0 -0.17403942395E+02  0.82118591773E+02  0.19620292856E+03  0.21340559857E+03  0.00000000000E+00 0.  1.
</event>
<event>
12    1  0.1629553E-001  0.2121882E+03  0.7818608E-02  0.1140588E+00
         21   -1    0    0  501  502  0.00000000000E+00  0.00000000000E+00  0.28979041277E+02  0.28979041277E+02  0.00000000000E+00 0. -1.
         21   -1    0    0  502  503 -0.00000000000E+00 -0.00000000000E+00 -0.29406794786E+04  0.29406794786E+04  0.00000000000E+00 0. -1.
         -6    2    1    2    0  503  0.14715241061E+02  0.12117738112E+03 -0.24924005670E+04  0.25014164842E+04  0.17356078187E+03 0.  0.
        -24    2    3    3    0    0  0.73438465647E+02  0.61966497219E+02 -0.17136373576E+04  0.17181869060E+04  0.79876125953E+02 0.  0.
          6    2    1    2  501    0 -0.14715241061E+02 -0.12117738112E+03 -0.41929987031E+03  0.46824203567E+03  0.16893113008E+03 0.  0.
         24    2    5    5    0    0  0.27956619006E+02 -0.57118991348E+02 -0.35031491743E+03  0.36477523585E+03  0.79349099513E+02 0.  0.
          5    1    5    5  501    0 -0.42671860066E+02 -0.64058389770E+02 -0.68984952875E+02  0.10346679982E+03  0.47000000000E+01 0. -1.
        -13    1    6    6    0    0  0.40306790247E+02 -0.49436762017E+02 -0.13873369246E+03  0.15269468950E+03  0.00000000000E+00 0.  1.
         14    1    6    6    0    0 -0.12350171241E+02 -0.76822293315E+01 -0.21158122498E+03  0.21208054635E+03  0.00000000000E+00 0. -1.
         -5    1    3    3    0  503 -0.58723224587E+02  0.59210883900E+02 -0.77876320933E+03  0.78322957815E+03  0.47000000000E+01 0.  1.
         11    1    4    4    0    0 -0.13849022417E+02  0.15203289436E+02 -0.53568273866E+03  0.53607735629E+03  0.00000000000E+00 0. -1.
        -12    1    4    4    0    0  0.87287488064E+02  0.46763207783E+02 -0.11779546190E+04  0.11821095497E+04  0.00000000000E+00 0.  1.
</event>
<event>
12    1  0.1629553E-001  0.1756548E+03  0.7818608E-02  0.1172137E+00
         21   -1    0    0  501  502  0.00000000000E+00  0.00000000000E+00  0.71086125674E+03  0.71086125674E+03  0.00000000000E+00 0. -1.
         21   -1    0    0  502  503 -0.00000000000E+00 -0.00000000000E+00 -0.93258521810E+02  0.93258521810E+02  0.00000000000E+00 0. -1.
         -6    2    1    2    0  503 -0.65358696137E+01 -0.35337000220E+02  0.14557486235E+02  0.17601296062E+03  0.17168931453E+03 0.  0.
        -24    2    3    3    0    0 -0.42720499116E+01  0.30783824113E+02 -0.36390489784E+02  0.92377593992E+02  0.79015554719E+02 0.  0.
          6    2    1    2  501    0  0.65358696137E+01  0.35337000220E+02  0.60304524869E+03  0.62810681793E+03  0.17193947070E+03 0.  0.
         24    2    5    5    0    0 -0.26024858116E+02  0.46439336555E+02  0.18546783125E+03  0.20908837869E+03  0.80534020493E+02 0.  0.
          5    1    5    5  501    0  0.32560727730E+02 -0.11102336335E+02  0.41757741744E+03  0.41901843924E+03  0.47000000000E+01 0. -1.
        -13    1    6    6    0    0  0.15974777284E+02  0.33564151138E+01  0.25403951516E+01  0.16520067773E+02  0.00000000000E+00 0.  1.
         14    1    6    6    0    0 -0.41999635400E+02  0.43082921441E+02  0.18292743610E+03  0.19256831092E+03  0.00000000000E+00 0. -1.
         -5    1    3    3    0  503 -0.22638197022E+01 -0.66120824333E+02  0.50947976019E+02  0.83635366625E+02  0.47000000000E+01 0.  1.
         11    1    4    4    0    0 -0.40331061235E+02  0.22454712372E+02 -0.29361720695E+02  0.54707579459E+02  0.00000000000E+00 0. -1.
        -12    1    4    4    0    0  0.36059011323E+02  0.83291117415E+01 -0.70287690884E+01  0.37670014533E+02  0.00000000000E+00 0.  1.
</event>
<event>
12    1  0.1629553E-001  0.3816230E+03  0.7818608E-02  0.1050337E+00
         21   -1    0    0  501  502  0.00000000000E+00  0.00000000000E+00  0.39788537807E+03  0.39788537807E+03  0.00000000000E+00 0. -1.
         21   -1    0    0  502  503 -0.00000000000E+00 -0.00000000000E+00 -0.41266009489E+03  0.41266009489E+03  0.00000000000E+00 0.  1.
         -6    2    1    2    0  503  0.33916972098E+03 -0.29011379648E+02 -0.14365061524E+03  0.40774888203E+03  0.17246997350E+03 0.  0.
        -24    2    3    3    0    0  0.31892319366E+03 -0.61543171549E+01 -0.82213237153E+02  0.33898109451E+03  0.79995543605E+02 0.  0.
          6    2    1    2  501    0 -0.33916972098E+03  0.29011379648E+02  0.12887589842E+03  0.40279659093E+03  0.17250604830E+03 0.  0.
         24    2    5    5    0    0 -0.31148902790E+03 -0.16759219784E+02  0.11493761936E+03  0.34732106332E+03  0.10057325056E+03 0.  0.
          5    1    5    5  501    0 -0.27680693076E+02  0.45770599431E+02  0.13938279058E+02  0.55475527619E+02  0.47000000000E+01 0. -1.
        -11    1    6    6    0    0 -0.87187765759E+02 -0.49897074788E+02  0.44726987084E+02  0.10996330271E+03  0.00000000000E+00 0.  1.
         12    1    6    6    0    0 -0.22430126214E+03  0.33137855004E+02  0.70210632278E+02  0.23735776060E+03  0.00000000000E+00 0. -1.
         -5    1    3    3    0  503  0.20246527315E+02 -0.22857062493E+02 -0.61437378088E+02  0.68767787520E+02  0.47000000000E+01 0.  1.
         13    1    4    4    0    0  0.65965274535E+01  0.14149641403E+02 -0.68576284094E+01  0.17051498282E+02  0.00000000000E+00 0. -1.
        -14    1    4    4    0    0  0.31232666621E+03 -0.20303958558E+02 -0.75355608744E+02  0.32192959623E+03  0.00000000000E+00 0.  1.
</event>
<event>
12    1  0.1629553E-001  0.2488306E+03  0.7818608E-02  0.1114682E+00
         21   -1    0    0  501  502  0.00000000000E+00  0.00000000000E+00  0.39465228624E+02  0.39465228624E+02  0.00000000000E+00 0.  1.
         21   -1    0    0  502  503 -0.00000000000E+00 -0.00000000000E+00 -0.16058812436E+04  0.16058812436E+04  0.00000000000E+00 0. -1.
         -6    2    1    2    0  503 -0.55354852556E+02  0.16709840561E+03 -0.62776394378E+03  0.67528086275E+03  0.17587108243E+03 0.  0.
        -24    2    3    3    0    0 -0.32271324436E+02  0.86623025724E+02 -0.54147751496E+03  0.55496222814E+03  0.78994863623E+02 0.  0.
          6    2    1    2  501    0  0.55354852556E+02 -0.16709840561E+03 -0.93865207118E+03  0.97006560945E+03  0.17021615390E+03 0.  0.
         24    2    5    5    0    0  0.36096233331E+01 -0.15493246736E+02 -0.25493134133E+03  0.26781364657E+03  0.80505219837E+02 0.  0.
          5    1    5    5  501    0  0.51745229223E+02 -0.15160515888E+03 -0.68372072985E+03  0.70225196289E+03  0.47000000000E+01 0. -1.
        -11    1    6    6    0    0  0.32013955942E+02  0.18745720855E+02 -0.10170822428E+03  0.10826291291E+03  0.00000000000E+00 0.  1.
         12    1    6    6    0    0 -0.28404332609E+02 -0.34238967591E+02 -0.15322311705E+03  0.15955073365E+03  0.00000000000E+00 0. -1.
         -5    1    3    3    0  503 -0.23083528120E+02  0.80475379891E+02 -0.86286428812E+02  0.12031863462E+03  0.47000000000E+01 0.  1.
         11    1    4    4    0    0 -0.41686682173E+02  0.92428776270E+02 -0.52740263889E+03  0.53706089195E+03  0.00000000000E+00 0. -1.
        -12    1    4    4    0    0  0.94153577371E+01 -0.58057505462E+01 -0.14074876072E+02  0.17901336184E+02  0.00000000000E+00 0.  1.
</event>
<event>
12    1  0.1629553E-001  0.2187862E+03  0.7818608E-02  0.1135363E+00
         21   -1    0    0  503  502  0.00000000000E+00  0.00000000000E+00  0.35093081376E+03  0.35093081376E+03  0.00000000000E+00 0.  1.
         21   -1    0    0  501  503 -0.00000000000E+00 -0.00000000000E+00 -0.18667466512E+03  0.18667466512E+03  0.00000000000E+00 0.  1.
          6    2    1    2  501    0 -0.65164956324E+02 -0.11795600434E+03  0.22379291115E+03  0.31086324541E+03  0.16850103791E+03 0.  0.
         24    2    3    3    0    0  0.13486193139E+02 -0.52571448369E+02  0.17111168743E+03  0.19571749080E+03  0.77977509863E+02 0.  0.
         -6    2    1    2    0  502  0.65164956324E+02  0.11795600434E+03 -0.59536762515E+02  0.22674223346E+03  0.17235812674E+03 0.  0.
        -24    2    5    5    0    0  0.39297494194E+02  0.44000577801E+02  0.33472855291E+02  0.10504009825E+03  0.80203779850E+02 0.  0.
          5    1    3    3  501    0 -0.78651149463E+02 -0.65384555969E+02  0.52681223724E+02  0.11514575461E+03  0.47000000000E+01 0. -1.
        -11    1    4    4    0    0  0.40878383989E+02 -0.12129179504E+02  0.53838993936E+02  0.68678938118E+02  0.00000000000E+00 0.  1.
         12    1    4    4    0    0 -0.27392190850E+02 -0.40442268865E+02  0.11727269349E+03  0.12703855269E+03  0.00000000000E+00 0. -1.
         -5    1    5    5    0  502  0.25867462130E+02  0.73955426537E+02 -0.93009617806E+02  0.12170213521E+03  0.47000000000E+01 0.  1.
         11    1    6    6    0    0  0.11994544506E+02  0.54763147239E+02  0.46590652739E+02  0.72894172031E+02  0.00000000000E+00 0. -1.
        -12    1    6    6    0    0  0.27302949688E+02 -0.10762569438E+02 -0.13117797448E+02  0.32145926219E+02  0.00000000000E+00 0.  1.
</event>
<event>
12    1  0.1629553E-001  0.1842903E+03  0.7818608E-02  0.1164199E+00
         21   -1    0    0  501  502  0.00000000000E+00  0.00000000000E+00  0.52605484265E+03  0.52605484265E+03  0.00000000000E+00 0.  1.
         21   -1    0    0  502  503 -0.00000000000E+00 -0.00000000000E+00 -0.92898349539E+02  0.92898349539E+02  0.00000000000E+00 0.  1.
         -6    2    1    2    0  503 -0.35099761241E+02  0.53224190950E+02  0.44342640171E+02  0.18954995378E+03  0.17291069227E+03 0.  0.
        -24    2    3    3    0    0  0.30043265673E+02  0.13766446343E+02 -0.21343760806E+02  0.88865690669E+02  0.79683385945E+02 0.  0.
          6    2    1    2  501    0  0.35099761241E+02 -0.53224190950E+02  0.38881385294E+03  0.42940323841E+03  0.17072235113E+03 0.  0.
         24    2    5    5    0    0  0.21857025117E+02 -0.94763100434E+02  0.20692299609E+03  0.24230106080E+03  0.80217847150E+02 0.  0.
          5    1    5    5  501    0  0.13242736124E+02  0.41538909484E+02  0.18189085685E+03  0.18710217761E+03  0.47000000000E+01 0. -1.
        -11    1    6    6    0    0 -0.60975175875E+01 -0.81562560469E+02  0.91125315770E+02  0.12244776096E+03  0.00000000000E+00 0.  1.
         12    1    6    6    0    0  0.27954542705E+02 -0.13200539965E+02  0.11579768032E+03  0.11985329983E+03  0.00000000000E+00 0. -1.
         -5    1    3    3    0  503 -0.65143026914E+02  0.39457744608E+02  0.65686400978E+02  0.10068426311E+03  0.47000000000E+01 0.  1.
         13    1    4    4    0    0  0.13482994774E+02 -0.19454004344E+02 -0.40640048060E+02  0.47030446940E+02  0.00000000000E+00 0. -1.
        -14    1    4    4    0    0  0.16560270899E+02  0.33220450687E+02  0.19296287253E+02  0.41835243729E+02  0.00000000000E+00 0.  1.
</event>
<event>
12    1  0.1629553E-001  0.1780922E+03  0.7818608E-02  0.1169835E+00
         21   -1    0    0  503  502  0.00000000000E+00  0.00000000000E+00  0.16640883895E+04  0.16640883895E+04  0.00000000000E+00 0.  1.
         21   -1    0    0  501  503 -0.00000000000E+00 -0.00000000000E+00 -0.75926266234E+02  0.75926266234E+02  0.00000000000E+00 0.  1.
          6    2    1    2  501    0  0.15347672231E+02 -0.39005724660E+02  0.40262169098E+02  0.18190326362E+03  0.17236808711E+03 0.  0.
         24    2    3    3    0    0  0.70577392770E+02 -0.53776981989E+02  0.18569528947E+02  0.12057486310E+03  0.79500553728E+02 0.  0.
         -6    2    1    2    0  502 -0.15347672231E+02  0.39005724660E+02  0.15478999542E+04  0.15581113921E+04  0.17308912309E+03 0.  0.
        -24    2    5    5    0    0 -0.76217274789E+02  0.32522701098E+02  0.93237398780E+03  0.93953120865E+03  0.80813611665E+02 0.  0.
          5    1    3    3  501    0 -0.55229720539E+02  0.14771257329E+02  0.21692640151E+02  0.61328400523E+02  0.47000000000E+01 0. -1.
        -13    1    4    4    0    0  0.66321278353E+02 -0.58711329219E+02  0.40719356293E+02  0.97486399656E+02  0.00000000000E+00 0.  1.
         14    1    4    4    0    0  0.42561144175E+01  0.49343472295E+01 -0.22149827346E+02  0.23088463439E+02  0.00000000000E+00 0. -1.
         -5    1    5    5    0  502  0.60869602558E+02  0.64830235624E+01  0.61552596636E+03  0.61858018347E+03  0.47000000000E+01 0.  1.
         11    1    6    6    0    0 -0.38694251366E+02  0.57037163695E+02  0.64669524992E+03  0.65035777031E+03  0.00000000000E+00 0. -1.
        -12    1    6    6    0    0 -0.37523023423E+02 -0.24514462598E+02  0.28567873788E+03  0.28917343834E+03  0.00000000000E+00 0.  1.
</event>
<event>
12    1  0.1629553E-001  0.2380719E+03  0.7818608E-02  0.1121113E+00
         21   -1    0    0  501  502  0.00000000000E+00  0.00000000000E+00  0.23499999399E+03  0.23499999399E+03  0.00000000000E+00 0.  1.
         21   -1    0    0  502  503 -0.00000000000E+00 -0.00000000000E+00 -0.34543159311E+03  0.34543159311E+03  0.00000000000E+00 0.  1.
         -6    2    1    2    0  503 -0.13758359119E+03 -0.90263692661E+02 -0.21479282928E+03  0.32064653947E+03  0.17205076280E+03 0.  0.
        -24    2    3    3    0    0 -0.61788165554E+02 -0.58354507842E+02 -0.20669022271E+03  0.23787646724E+03  0.81494413994E+02 0.  0.
          6    2    1    2  501    0  0.13758359119E+03  0.90263692661E+02  0.10436123016E+03  0.25978504763E+03  0.17181450996E+03 0.  0.
         24    2    5    5    0    0  0.18013311296E+02  0.77608621712E+02  0.22159015878E+02  0.11405757360E+03  0.78552724731E+02 0.  0.
          5    1    5    5  501    0  0.11957027990E+03  0.12655070949E+02  0.82202214280E+02  0.14572747403E+03  0.47000000000E+01 0. -1.
        -13    1    6    6    0    0  0.32576118359E+02  0.85582890992E+02  0.29065623473E+02  0.96075205885E+02  0.00000000000E+00 0.  1.
         14    1    6    6    0    0 -0.14562807063E+02 -0.79742692807E+01 -0.69066075952E+01  0.17982367714E+02  0.00000000000E+00 0. -1.
         -5    1    3    3    0  503 -0.75795425640E+02 -0.31909184819E+02 -0.81026065733E+01  0.82770072231E+02  0.47000000000E+01 0.  1.
         13    1    4    4    0    0 -0.19591794257E+02 -0.26021218694E+02 -0.99161594649E+01  0.34048090153E+02  0.00000000000E+00 0. -1.
        -14    1    4    4    0    0 -0.42196371297E+02 -0.32333289148E+02 -0.19677406325E+03  0.20382837708E+03  0.00000000000E+00 0.  1.
</event>
<event>
12    1  0.1629553E-001  0.1801789E+03  0.7818608E-02  0.1167681E+00
         21   -1    0    0  503  502  0.00000000000E+00  0.00000000000E+00  0.29243201608E+03  0.29243201608E+03  0.00000000000E+00 0.  1.
         21   -1    0    0  501  503 -0.00000000000E+00 -0.00000000000E+00 -0.11099914262E+03  0.11099914262E+03  0.00000000000E+00 0.  1.
          6    2    1    2  501    0  0.42490535291E+02  0.27474239971E+02  0.84235185722E+02  0.19870739545E+03  0.17271011274E+03 0.  0.
         24    2    3    3    0    0 -0.20424168431E+01  0.91564733323E+01  0.11471995920E+03  0.14152229412E+03  0.82340015926E+02 0.  0.
         -6    2    1    2    0  502 -0.42490535291E+02 -0.27474239971E+02  0.97197687738E+02  0.20472376324E+03  0.17292816220E+03 0.  0.
        -24    2    5    5    0    0 -0.20801816087E+02  0.20089570401E+02  0.12071101321E+03  0.14721130309E+03  0.79143620433E+02 0.  0.
          5    1    3    3  501    0  0.44532952134E+02  0.18317766639E+02 -0.30484773481E+02  0.57185101334E+02  0.47000000000E+01 0. -1.
        -13    1    4    4    0    0  0.19865721051E+02 -0.30356338610E+02  0.64244372735E+02  0.73780035204E+02  0.00000000000E+00 0.  1.
         14    1    4    4    0    0 -0.21908137894E+02  0.39512811942E+02  0.50475586468E+02  0.67742258915E+02  0.00000000000E+00 0. -1.
         -5    1    5    5    0  502 -0.21688719203E+02 -0.47563810372E+02 -0.23513325475E+02  0.57512460151E+02  0.47000000000E+01 0.  1.
         13    1    6    6    0    0 -0.25569868300E+02 -0.14853334450E+02  0.10313917745E+02  0.31317991769E+02  0.00000000000E+00 0. -1.
        -14    1    6    6    0    0  0.47680522128E+01  0.34942904851E+02  0.11039709547E+03  0.11589331132E+03  0.00000000000E+00 0.  1.
</event>
<event>
12    1  0.1629553E-001  0.1817585E+03  0.7818608E-02  0.1166728E+00
         21   -1    0    0  501  502  0.00000000000E+00  0.00000000000E+00  0.75376279749E+02  0.75376279749E+02  0.00000000000E+00 0.  1.
         21   -1    0    0  502  503 -0.00000000000E+00 -0.00000000000E+00 -0.49577325689E+03  0.49577325689E+03  0.00000000000E+00 0.  1.
         -6    2    1    2    0  503 -0.10122708483E+00 -0.55899753695E+02 -0.31380657435E+03  0.36264405157E+03  0.17294897895E+03 0.  0.
        -24    2    3    3    0    0 -0.17860862070E+02 -0.96474814824E+02 -0.16872347363E+03  0.21087799365E+03  0.79846836892E+02 0.  0.
          6    2    1    2  501    0  0.10122708483E+00  0.55899753695E+02 -0.10659040278E+03  0.20850548507E+03  0.17025930409E+03 0.  0.
         24    2    5    5    0    0  0.30030346149E+02  0.85418807925E+02 -0.11143083121E+03  0.16593029889E+03  0.83173550545E+02 0.  0.
          5    1    5    5  501    0 -0.29929119064E+02 -0.29519054230E+02  0.48404284238E+01  0.42575186176E+02  0.47000000000E+01 0. -1.
        -11    1    6    6    0    0  0.14030851162E+02  0.33738659765E+02  0.56315619368E+01  0.36971292065E+02  0.00000000000E+00 0.  1.
         12    1    6    6    0    0  0.15999494987E+02  0.51680148160E+02 -0.11706239314E+03  0.12895900683E+03  0.00000000000E+00 0. -1.
         -5    1    3    3    0  503  0.17759634985E+02  0.40575061129E+02 -0.14508310073E+03  0.15176605792E+03  0.47000000000E+01 0.  1.
         11    1    4    4    0    0 -0.20324416807E+02 -0.45687054146E+02 -0.20266770061E+02  0.53954896013E+02  0.00000000000E+00 0. -1.
        -12    1    4    4    0    0  0.24635547367E+01 -0.50787760678E+02 -0.14845670357E+03  0.15692309763E+03  0.00000000000E+00 0.  1.
</event>
<event>
12    1  0.1629553E-001  0.2130020E+03  0.7818608E-02  0.1140007E+00
         21   -1    0    0  503  502  0.00000000000E+00  0.00000000000E+00  0.98655701253E+02  0.98655701253E+02  0.00000000000E+00 0.  1.
         21   -1    0    0  501  503 -0.00000000000E+00 -0.00000000000E+00 -0.46698265416E+03  0.46698265416E+03  0.00000000000E+00 0. -1.
          6    2    1    2  501    0 -0.32530088213E+02  0.12042132637E+03 -0.23792159759E+03  0.31933764104E+03  0.17265671115E+03 0.  0.
         24    2    3    3    0    0 -0.81822121432E+02  0.65248297243E+02 -0.10734487169E+03  0.16918392304E+03  0.78409683656E+02 0.  0.
         -6    2    1    2    0  502  0.32530088213E+02 -0.12042132637E+03 -0.13040535532E+03  0.24630071436E+03  0.16762751181E+03 0.  0.
        -24    2    5    5    0    0  0.42963028546E+02 -0.83582076416E+02 -0.14984551292E+03  0.20310365070E+03  0.99828001416E+02 0.  0.
          5    1    3    3  501    0  0.49292033219E+02  0.55173029131E+02 -0.13057672590E+03  0.15015371800E+03  0.47000000000E+01 0. -1.
        -13    1    4    4    0    0 -0.62318690193E+02  0.13845132653E+01 -0.38450683407E+02  0.73239272790E+02  0.00000000000E+00 0.  1.
         14    1    4    4    0    0 -0.19503431239E+02  0.63863783978E+02 -0.68894188279E+02  0.95944650255E+02  0.00000000000E+00 0. -1.
         -5    1    5    5    0  502 -0.10432940333E+02 -0.36839249958E+02  0.19440157602E+02  0.43197063662E+02  0.47000000000E+01 0.  1.
         11    1    6    6    0    0  0.13256995736E+01 -0.84351102263E+02 -0.13440881374E+03  0.15869024905E+03  0.00000000000E+00 0. -1.
        -12    1    6    6    0    0  0.41637328973E+02  0.76902584604E+00 -0.15436699176E+02  0.44413401651E+02  0.00000000000E+00 0.  1.
</event>
<event>
12    1  0.1629553E-001  0.2827605E+03  0.7818608E-02  0.1094421E+00
         21   -1    0    0  503  502  0.00000000000E+00  0.00000000000E+00  0.79788957444E+03  0.79788957444E+03  0.00000000000E+00 0. -1.
         21   -1    0    0  501  503 -0.00000000000E+00 -0.00000000000E+00 -0.17580437985E+03  0.17580437985E+03  0.00000000000E+00 0.  1.
          6    2    1    2  501    0  0.13061061246E+03 -0.18184157582E+03 -0.10008443335E+02  0.28123754929E+03  0.16990850305E+03 0.  0.
         24    2    3    3    0    0  0.11477988123E+02 -0.10663897290E+02 -0.96645686229E+01  0.72631250111E+02  0.70259744443E+02 0.  0.
         -6    2    1    2    0  502 -0.13061061246E+03  0.18184157582E+03  0.63209363793E+03  0.69245640500E+03  0.17270788905E+03 0.  0.
        -24    2    5    5    0    0 -0.67682440903E+02  0.14247601217E+03  0.56608993846E+03  0.59301707315E+03  0.79568233418E+02 0.  0.
          5    1    3    3  501    0  0.11913262433E+03 -0.17117767853E+03 -0.34387471219E+00  0.20860629918E+03  0.47000000000E+01 0. -1.
        -11    1    4    4    0    0  0.39958079046E+02 -0.30961799860E+01 -0.14791318867E+02  0.42720223845E+02  0.00000000000E+00 0.  1.
         12    1    4    4    0    0 -0.28480090923E+02 -0.75677173035E+01  0.51267502438E+01  0.29911026265E+02  0.00000000000E+00 0. -1.
         -5    1    5    5    0  502 -0.62928171552E+02  0.39365563656E+02  0.66003699464E+02  0.99439331856E+02  0.47000000000E+01 0.  1.
         11    1    6    6    0    0 -0.55927391257E+02  0.60345128806E+02  0.38689789010E+03  0.39554947228E+03  0.00000000000E+00 0. -1.
        -12    1    6    6    0    0 -0.11755049646E+02  0.82130883362E+02  0.17919204836E+03  0.19746760086E+03  0.00000000000E+00 0.  1.
</event>
<event>
12    1  0.1629553E-001  0.2573031E+03  0.7818608E-02  0.1108843E+00
         21   -1    0    0  501  502  0.00000000000E+00  0.00000000000E+00  0.25390407190E+04  0.25390407190E+04  0.00000000000E+00 0.  1.
         21   -1    0    0  502  503 -0.00000000000E+00 -0.00000000000E+00 -0.37838433296E+02  0.37838433296E+02  0.00000000000E+00 0.  1.
         -6    2    1    2    0  503 -0.68944279042E+02 -0.17913384002E+03  0.53155868951E+03  0.59055865083E+03  0.17135528419E+03 0.  0.
        -24    2    3    3    0    0 -0.10864438812E+02 -0.17277903777E+03  0.35361844446E+03  0.40321278842E+03  0.86970779927E+02 0.  0.
          6    2    1    2  501    0  0.68944279042E+02  0.17913384002E+03  0.19696435962E+04  0.19863205015E+04  0.17067803688E+03 0.  0.
         24    2    5    5    0    0  0.10007950160E+03  0.12627315726E+03  0.17154832919E+04  0.17248186771E+04  0.78458442685E+02 0.  0.
          5    1    5    5  501    0 -0.31135222556E+02  0.52860682763E+02  0.25416030434E+03  0.26150182441E+03  0.47000000000E+01 0. -1.
        -11    1    6    6    0    0  0.15495585211E+02  0.79018815252E+02  0.90156337294E+03  0.90515225335E+03  0.00000000000E+00 0.  1.
         12    1    6    6    0    0  0.84583916387E+02  0.47254342006E+02  0.81391991894E+03  0.81966642373E+03  0.00000000000E+00 0. -1.
         -5    1    3    3    0  503 -0.58079840230E+02 -0.63548022548E+01  0.17794024506E+03  0.18734586241E+03  0.47000000000E+01 0.  1.
         13    1    4    4    0    0 -0.31182883514E+02 -0.17360288601E+02  0.85336847093E+02  0.92499347654E+02  0.00000000000E+00 0. -1.
        -14    1    4    4    0    0  0.20318444702E+02 -0.15541874916E+03  0.26828159737E+03  0.31071344076E+03  0.00000000000E+00 0.  1.
</event>
<event>
12    1  0.1629553E-001  0.2107896E+03  0.7818608E-02  0.1141089E+00
         21   -1    0    0  501  502  0.00000000000E+00  0.00000000000E+00  0.18712106712E+03  0.18712106712E+03  0.00000000000E+00 0. -1.
         21   -1    0    0  502  503 -0.00000000000E+00 -0.00000000000E+00 -0.26705870891E+03  0.26705870891E+03  0.00000000000E+00 0. -1.
         -6    2    1    2    0  503 -0.75016381852E+02  0.94288488084E+02 -0.11670659550E+03  0.24094126494E+03  0.17295805037E+03 0.  0.
        -24    2    3    3    0    0 -0.82821021827E+02  0.99570689763E+02 -0.32947188979E+02  0.15652241491E+03  0.81486840604E+02 0.  0.
          6    2    1    2  501    0  0.75016381852E+02 -0.94288488084E+02  0.36768953703E+02  0.21323851109E+03  0.17204920844E+03 0.  0.
         24    2    5    5    0    0  0.11428345939E+02 -0.18377258948E+02 -0.36418578847E+02  0.90013278527E+02  0.79421323891E+02 0.  0.
          5    1    5    5  501    0  0.63588035913E+02 -0.75911229136E+02  0.73187532549E+02  0.12322523257E+03  0.47000000000E+01 0. -1.
        -11    1    6    6    0    0  0.33649374504E+02 -0.24927434255E+02 -0.48342609952E+02  0.63958309234E+02  0.00000000000E+00 0.  1.
         12    1    6    6    0    0 -0.22221028565E+02  0.65501753069E+01  0.11924031106E+02  0.26054969293E+02  0.00000000000E+00 0. -1.
         -5    1    3    3    0  503  0.78046399752E+01 -0.52822016795E+01 -0.83759406517E+02  0.84418850026E+02  0.47000000000E+01 0.  1.
         11    1    4    4    0    0 -0.67992746710E+02  0.98573541268E+02 -0.53502323268E+02  0.13115736822E+03  0.00000000000E+00 0. -1.
        -12    1    4    4    0    0 -0.14828275117E+02  0.99714849553E+00  0.20555134288E+02  0.25365046692E+02  0.00000000000E+00 0.  1.
</event>
<event>
12    1  0.1629553E-001  0.1939278E+03  0.7818608E-02  0.1154991E+00
         21   -1    0    0  501  502  0.00000000000E+00  0.00000000000E+00  0.19953101122E+03  0.19953101122E+03  0.00000000000E+00 0.  1.
         21   -1    0    0  502  503 -0.00000000000E+00 -0.00000000000E+00 -0.33365274454E+03  0.33365274454E+03  0.00000000000E+00 0.  1.
         -6    2    1    2    0  503 -0.27628523242E+02 -0.86171920689E+02 -0.24296710473E+03  0.31079825072E+03  0.17138729084E+03 0.  0.
        -24    2    3    3    0    0 -0.32938827112E+02  0.15081497146E+02 -0.78245863937E+02  0.11731535454E+03  0.79549099925E+02 0.  0.
          6    2    1    2  501    0  0.27628523242E+02  0.86171920689E+02  0.10884537141E+03  0.22238550504E+03  0.17151986113E+03 0.  0.
         24    2    5    5    0    0  0.15520341732E+02  0.12477973119E+03  0.69359593509E+02  0.16565466909E+03  0.82582406457E+02 0.  0.
          5    1    5    5  501    0  0.12108181511E+02 -0.38607810500E+02  0.39485777902E+02  0.56730835950E+02  0.47000000000E+01 0. -1.
        -11    1    6    6    0    0  0.45855533022E+02  0.48563563977E+02  0.19173658640E+02  0.69489415313E+02  0.00000000000E+00 0.  1.
         12    1    6    6    0    0 -0.30335191291E+02  0.76216167212E+02  0.50185934869E+02  0.96165253776E+02  0.00000000000E+00 0. -1.
         -5    1    3    3    0  503  0.53103038695E+01 -0.10125341784E+03 -0.16472124079E+03  0.19348289619E+03  0.47000000000E+01 0.  1.
         11    1    4    4    0    0 -0.52243421776E+02 -0.12118668380E+02 -0.42535264884E+02  0.68450609938E+02  0.00000000000E+00 0. -1.
        -12    1    4    4    0    0  0.19304594664E+02  0.27200165526E+02 -0.35710599053E+02  0.48864744597E+02  0.00000000000E+00 0.  1.
</event>
<event>
12    1  0.1629553E-001  0.1944188E+03  0.7818608E-02  0.1154715E+00
         21   -1    0    0  503  502  0.00000000000E+00  0.00000000000E+00  0.21559041985E+04  0.21559041985E+04  0.00000000000E+00 0. -1.
         21   -1    0    0  501  503 -0.00000000000E+00 -0.00000000000E+00 -0.87990212225E+02  0.87990212225E+02  0.00000000000E+00 0. -1.
          6    2    1    2  501    0 -0.70277948527E+02 -0.53575223190E+02  0.29898431448E+02  0.19670432735E+03  0.17317442538E+03 0.  0.
         24    2    3    3    0    0 -0.64541023765E+02 -0.62226887504E+02  0.79403749929E+02  0.14590442421E+03  0.83339163808E+02 0.  0.
         -6    2    1    2    0  502  0.70277948527E+02  0.53575223190E+02  0.20380155549E+04  0.20471900834E+04  0.17225138944E+03 0.  0.
        -24    2    5    5    0    0  0.84403958347E+02 -0.17607033271E+02  0.10467637900E+04  0.10532742876E+04  0.78982637911E+02 0.  0.
          5    1    3    3  501    0 -0.57369247625E+01  0.86516643139E+01 -0.49505318481E+02  0.50799903140E+02  0.47000000000E+01 0. -1.
        -11    1    4    4    0    0 -0.15166662527E+02 -0.24711419830E+02  0.78720801093E+02  0.83890681526E+02  0.00000000000E+00 0.  1.
         12    1    4    4    0    0 -0.49374361238E+02 -0.37515467674E+02  0.68294883576E+00  0.62013742684E+02  0.00000000000E+00 0. -1.
         -5    1    5    5    0  502 -0.14126009819E+02  0.71182256462E+02  0.99125176489E+03  0.99391579583E+03  0.47000000000E+01 0.  1.
         13    1    6    6    0    0  0.63314681996E+02  0.25852990899E+02  0.64579143340E+03  0.64940257279E+03  0.00000000000E+00 0. -1.
        -14    1    6    6    0    0  0.21089276350E+02 -0.43460024170E+02  0.40097235657E+03  0.40387171479E+03  0.00000000000E+00 0.  1.
</event>
<event>
12    1  0.1629553E-001  0.1988243E+03  0.7818608E-02  0.1154717E+00
         21   -1    0    0  501  502  0.00000000000E+00  0.00000000000E+00  0.74262527892E+02  0.74262527892E+02  0.00000000000E+00 0. -1.
         21   -1    0    0  502  503 -0.00000000000E+00 -0.00000000000E+00 -0.48874055526E+03  0.48874055526E+03  0.00000000000E+00 0. -1.
         -6    2    1    2    0  503 -0.59342627503E+02  0.42020330050E+01 -0.23917892760E+03  0.31102681526E+03  0.18971535490E+03 0.  0.
        -24    2    3    3    0    0 -0.95086213232E+02 -0.29434955598E+02 -0.22656157462E+03  0.26013144691E+03  0.80189887280E+02 0.  0.
          6    2    1    2  501    0  0.59342627503E+02 -0.42020330050E+01 -0.17529909977E+03  0.25197626789E+03  0.17094753780E+03 0.  0.
         24    2    5    5    0    0 -0.94060225811E+01  0.12196360866E+02 -0.22714348958E+02  0.83751773867E+02  0.79127703733E+02 0.  0.
          5    1    5    5  501    0  0.68748650084E+02 -0.16398393871E+02 -0.15258475081E+03  0.16822449402E+03  0.47000000000E+01 0. -1.
        -13    1    6    6    0    0 -0.31823580411E+02 -0.15353431187E+02 -0.31308141713E+02  0.47208768856E+02  0.00000000000E+00 0.  1.
         14    1    6    6    0    0  0.22417557830E+02  0.27549792054E+02  0.85937927545E+01  0.36543005010E+02  0.00000000000E+00 0. -1.
         -5    1    3    3    0  503  0.35743585729E+02  0.33636988603E+02 -0.12617352983E+02  0.50895368348E+02  0.47000000000E+01 0.  1.
         11    1    4    4    0    0 -0.80416174057E+02 -0.53365566351E+02 -0.14782733827E+03  0.17654338464E+03  0.00000000000E+00 0. -1.
        -12    1    4    4    0    0 -0.14670039175E+02  0.23930610753E+02 -0.78734236350E+02  0.83588062270E+02  0.00000000000E+00 0.  1.
</event>
<event>
12    1  0.1629553E-001  0.2768260E+03  0.7818608E-02  0.1097462E+00
         21   -1    0    0  503  502  0.00000000000E+00  0.00000000000E+00  0.33984928942E+02  0.33984928942E+02  0.00000000000E+00 0.  1.
         21   -1    0    0  501  503 -0.00000000000E+00 -0.00000000000E+00 -0.22648552561E+04  0.22648552561E+04  0.00000000000E+00 0. -1.
          6    2    1    2  501    0  0.19628136849E+03  0.92555673194E+02 -0.10338454348E+04  0.10702658686E+04  0.17187122580E+03 0.  0.
         24    2    3    3    0    0  0.17303133345E+03  0.58023692401E+02 -0.62429453012E+03  0.65857781276E+03  0.10331739394E+03 0.  0.
         -6    2    1    2    0  502 -0.19628136849E+03 -0.92555673194E+02 -0.11970248924E+04  0.12285743165E+04  0.17156144598E+03 0.  0.
        -24    2    5    5    0    0 -0.17204011409E+03 -0.55228811921E+02 -0.11350195488E+04  0.11521041548E+04  0.80165983027E+02 0.  0.
          5    1    3    3  501    0  0.23250035045E+02  0.34531980794E+02 -0.40955090466E+03  0.41168805586E+03  0.47000000000E+01 0. -1.
        -13    1    4    4    0    0  0.68530504336E+02  0.77068196404E+02 -0.28816450473E+03  0.30606325933E+03  0.00000000000E+00 0.  1.
         14    1    4    4    0    0  0.10450082911E+03 -0.19044504003E+02 -0.33613002539E+03  0.35251455344E+03  0.00000000000E+00 0. -1.
         -5    1    5    5    0  502 -0.24241254398E+02 -0.37326861274E+02 -0.62005343633E+02  0.76470161673E+02  0.47000000000E+01 0.  1.
         11    1    6    6    0    0 -0.97188560410E+01  0.17321090225E+02 -0.11836046388E+03  0.12001531460E+03  0.00000000000E+00 0. -1.
        -12    1    6    6    0    0 -0.16232125805E+03 -0.72549902146E+02 -0.10166590849E+04  0.10320888402E+04  0.00000000000E+00 0.  1.
</event>
<event>
12    1  0.1629553E-001  0.2256350E+03  0.7818608E-02  0.1129796E+00
         21   -1    0    0  501  502  0.00000000000E+00  0.00000000000E+00  0.26157181947E+03  0.26157181947E+03  0.00000000000E+00 0.  1.
         21   -1    0    0  502  503 -0.00000000000E+00 -0.00000000000E+00 -0.24116397088E+03  0.24116397088E+03  0.00000000000E+00 0. -1.
         -6    2    1    2    0  503 -0.14539098426E+03  0.18004079900E+02 -0.10046039470E+03  0.24698875310E+03  0.17160555952E+03 0.  0.
        -24    2    3    3    0    0 -0.11206134533E+03 -0.35746882876E+02 -0.18611352053E+02  0.14344462428E+03  0.79964948941E+02 0.  0.
          6    2    1    2  501    0  0.14539098426E+03 -0.18004079900E+02  0.12086824328E+03  0.25574703725E+03  0.17127384397E+03 0.  0.
         24    2    5    5    0    0  0.44870878841E+02 -0.18811355187E+02 -0.56666744334E+01  0.94074161698E+02  0.80315464564E+02 0.  0.
          5    1    5    5  501    0  0.10052010542E+03  0.80727528650E+00  0.12653491772E+03  0.16167287555E+03  0.47000000000E+01 0. -1.
        -11    1    6    6    0    0  0.48391183380E+02 -0.10791062620E+02  0.29594988055E+02  0.57740947164E+02  0.00000000000E+00 0.  1.
         12    1    6    6    0    0 -0.35203045394E+01 -0.80202925672E+01 -0.35261662489E+02  0.36333214534E+02  0.00000000000E+00 0. -1.
         -5    1    3    3    0  503 -0.33329638935E+02  0.53750962776E+02 -0.81849042647E+02  0.10354412882E+03  0.47000000000E+01 0.  1.
         13    1    4    4    0    0 -0.14202062779E+02 -0.37517719437E+02 -0.21525213047E+02  0.45525955846E+02  0.00000000000E+00 0. -1.
        -14    1    4    4    0    0 -0.97859282547E+02  0.17708365615E+01  0.29138609945E+01  0.97918668438E+02  0.00000000000E+00 0.  1.
</event>
<event>
12    1  0.1629553E-001  0.2795738E+03  0.7818608E-02  0.1096727E+00
         21   -1    0    0  503  502  0.00000000000E+00  0.00000000000E+00  0.86009768687E+03  0.86009768687E+03  0.00000000000E+00 0. -1.
         21   -1    0    0  501  503 -0.00000000000E+00 -0.00000000000E+00 -0.27351913062E+03  0.27351913062E+03  0.00000000000E+00 0.  1.
          6    2    1    2  501    0 -0.12726960027E+03  0.17877705681E+03 -0.17326070896E+03  0.32397664047E+03  0.16365452363E+03 0.  0.
         24    2    3    3    0    0 -0.15373494527E+03  0.16872924550E+03 -0.13658706766E+03  0.27741035477E+03  0.78717762898E+02 0.  0.
         -6    2    1    2    0  502  0.12726960027E+03 -0.17877705681E+03  0.75983926522E+03  0.80964017702E+03  0.17321293277E+03 0.  0.
        -24    2    5    5    0    0  0.75500219259E+02 -0.12467170083E+03  0.29442616155E+03  0.33821796136E+03  0.80382265959E+02 0.  0.
          5    1    3    3  501    0  0.26465344995E+02  0.10047811307E+02 -0.36673641306E+02  0.46566285705E+02  0.47000000000E+01 0. -1.
        -13    1    4    4    0    0 -0.62452717767E+02  0.41878907319E+02 -0.83481907683E+02  0.11235396631E+03  0.00000000000E+00 0.  1.
         14    1    4    4    0    0 -0.91282227501E+02  0.12685033818E+03 -0.53105159973E+02  0.16505638846E+03  0.00000000000E+00 0. -1.
         -5    1    5    5    0  502  0.51769381014E+02 -0.54105355979E+02  0.46541310367E+03  0.47142221566E+03  0.47000000000E+01 0.  1.
         11    1    6    6    0    0  0.52896577422E+02 -0.25731589779E+02  0.15483655631E+03  0.16563369761E+03  0.00000000000E+00 0. -1.
        -12    1    6    6    0    0  0.22603641837E+02 -0.98940111053E+02  0.13958960525E+03  0.17258426374E+03  0.00000000000E+00 0.  1.
</event>
<event>
12    1  0.1629553E-001  0.2642742E+03  0.7818608E-02  0.1104752E+00
         21   -1    0    0  501  502  0.00000000000E+00  0.00000000000E+00  0.74112985322E+02  0.74112985322E+02  0.00000000000E+00 0. -1.
         21   -1    0    0  502  503 -0.00000000000E+00 -0.00000000000E+00 -0.96739512410E+03  0.96739512410E+03  0.00000000000E+00 0.  1.
         -6    2    1    2    0  503 -0.18907441039E+03  0.67196485453E+02 -0.35785474797E+03  0.44486048914E+03  0.17197771319E+03 0.  0.
        -24    2    3    3    0    0 -0.46132756467E+02  0.17089604430E+02 -0.59243008189E+02  0.10999622248E+03  0.78543931284E+02 0.  0.
          6    2    1    2  501    0  0.18907441039E+03 -0.67196485453E+02 -0.53542739081E+03  0.59664762029E+03  0.17041535036E+03 0.  0.
         24    2    5    5    0    0  0.73224837591E+02 -0.46164051479E+02 -0.13261933171E+03  0.17695736632E+03  0.78949514640E+02 0.  0.
          5    1    5    5  501    0  0.11584957280E+03 -0.21032433974E+02 -0.40280805911E+03  0.41969025397E+03  0.47000000000E+01 0. -1.
        -11    1    6    6    0    0  0.51770267872E+02 -0.68587355554E+02 -0.10180076362E+03  0.13322079962E+03  0.00000000000E+00 0.  1.
         12    1    6    6    0    0  0.21454569719E+02  0.22423304076E+02 -0.30818568090E+02  0.43736566699E+02  0.00000000000E+00 0. -1.
         -5    1    3    3    0  503 -0.14294165392E+03  0.50106881022E+02 -0.29861173978E+03  0.33486426666E+03  0.47000000000E+01 0.  1.
         11    1    4    4    0    0 -0.64263316156E+02  0.10900015961E+02 -0.23216200665E+02  0.69192312612E+02  0.00000000000E+00 0. -1.
        -12    1    4    4    0    0  0.18130559689E+02  0.61895884691E+01 -0.36026807525E+02  0.40803909867E+02  0.00000000000E+00 0.  1.
</event>
<event>
12    1  0.1629553E-001  0.2090374E+03  0.7818608E-02  0.1142480E+00
         21   -1    0    0  501  502  0.00000000000E+00  0.00000000000E+00  0.78556325406E+02  0.78556325406E+02  0.00000000000E+00 0. -1.
         21   -1    0    0  502  503 -0.00000000000E+00 -0.00000000000E+00 -0.62330274951E+03  0.62330274951E+03  0.00000000000E+00 0. -1.
         -6    2    1    2    0  503 -0.87883434941E+02  0.79625667573E+02 -0.15600987085E+03  0.26083656985E+03  0.17214206718E+03 0.  0.
        -24    2    3    3    0    0 -0.87967684762E+02  0.82190803333E+02 -0.18285529252E+03  0.23346224458E+03  0.81085879949E+02 0.  0.
          6    2    1    2  501    0  0.87883434941E+02 -0.79625667573E+02 -0.38873655325E+03  0.44102250506E+03  0.17123374979E+03 0.  0.
         24    2    5    5    0    0  0.67201698689E+02  0.19115306054E+02 -0.21352342268E+03  0.23878688701E+03  0.80904030438E+02 0.  0.
          5    1    5    5  501    0  0.20681736252E+02 -0.98740973627E+02 -0.17521313056E+03  0.20223561805E+03  0.47000000000E+01 0. -1.
        -13    1    6    6    0    0 -0.13191563539E+02 -0.11830134831E+02 -0.62063369336E+02  0.64543251018E+02  0.00000000000E+00 0.  1.
         14    1    6    6    0    0  0.80393262228E+02  0.30945440885E+02 -0.15146005335E+03  0.17424363599E+03  0.00000000000E+00 0. -1.
         -5    1    3    3    0  503  0.84249821005E-01 -0.25651357593E+01  0.26845421667E+02  0.27374325269E+02  0.47000000000E+01 0.  1.
         13    1    4    4    0    0 -0.95664093494E+02  0.68883643680E+02 -0.11794364838E+03  0.16675514788E+03  0.00000000000E+00 0. -1.
        -14    1    4    4    0    0  0.76964087319E+01  0.13307159652E+02 -0.64911644144E+02  0.66707096705E+02  0.00000000000E+00 0.  1.
</event>
<event>
12    1  0.1629553E-001  0.2213476E+03  0.7818608E-02  0.1133807E+00
         21   -1    0    0  503  502  0.00000000000E+00  0.00000000000E+00  0.31916379599E+03  0.31916379599E+03  0.00000000000E+00 0.  1.
         21   -1    0    0  501  503 -0.00000000000E+00 -0.00000000000E+00 -0.15019258340E+03  0.15019258340E+03  0.00000000000E+00 0. -1.
          6    2    1    2  501    0 -0.29575222577E+02 -0.13487519116E+03  0.91223289581E+02  0.23940858437E+03  0.17299933737E+03 0.  0.
         24    2    3    3    0    0 -0.35358898419E+02 -0.69312514245E+02  0.11500341711E+03  0.16926943713E+03  0.96808471082E+02 0.  0.
         -6    2    1    2    0  502  0.29575222577E+02  0.13487519116E+03  0.77747923009E+02  0.22994779502E+03  0.16662904285E+03 0.  0.
        -24    2    5    5    0    0  0.44722948809E+02  0.26374054958E+02  0.76807361209E+02  0.12028957680E+03  0.76645147435E+02 0.  0.
          5    1    3    3  501    0  0.57836758415E+01 -0.65562676911E+02 -0.23780127526E+02  0.70139147237E+02  0.47000000000E+01 0. -1.
        -13    1    4    4    0    0  0.25528881305E+02 -0.42498314280E+02  0.20389471694E+02  0.53605606547E+02  0.00000000000E+00 0.  1.
         14    1    4    4    0    0 -0.60887779724E+02 -0.26814199965E+02  0.94613945413E+02  0.11566383059E+03  0.00000000000E+00 0. -1.
         -5    1    5    5    0  502 -0.15147726232E+02  0.10850113620E+03  0.94056180001E+00  0.10965821822E+03  0.47000000000E+01 0.  1.
         13    1    6    6    0    0  0.20607223137E+02  0.18455177455E+02  0.88222773367E+02  0.92458147077E+02  0.00000000000E+00 0. -1.
        -14    1    6    6    0    0  0.24115725672E+02  0.79188775025E+01 -0.11415412158E+02  0.27831429722E+02  0.00000000000E+00 0.  1.
</event>
<event>
12    1  0.1629553E-001  0.2127148E+03  0.7818608E-02  0.1139514E+00
         21   -1    0    0  501  502  0.00000000000E+00  0.00000000000E+00  0.14623317637E+03  0.14623317637E+03  0.00000000000E+00 0. -1.
         21   -1    0    0  502  503 -0.00000000000E+00 -0.00000000000E+00 -0.70463623286E+03  0.70463623286E+03  0.00000000000E+00 0. -1.
         -6    2    1    2    0  503 -0.12459590887E+03 -0.39496915360E+01 -0.59793887292E+03  0.63451164830E+03  0.17185574042E+03 0.  0.
        -24    2    3    3    0    0 -0.73813643432E+02 -0.52552349645E+02 -0.49688563168E+03  0.51132518629E+03  0.79673783354E+02 0.  0.
          6    2    1    2  501    0  0.12459590887E+03  0.39496915360E+01  0.39535816430E+02  0.21635776093E+03  0.17235968021E+03 0.  0.
         24    2    5    5    0    0  0.93288175055E+02  0.49295179904E+02  0.73238905300E+02  0.15159376081E+03  0.80523491599E+02 0.  0.
          5    1    5    5  501    0  0.31307733818E+02 -0.45345488368E+02 -0.33703088870E+02  0.64764000120E+02  0.47000000000E+01 0. -1.
        -11    1    6    6    0    0  0.56850641942E+02  0.21251449815E+02  0.84706357633E+02  0.10420550193E+03  0.00000000000E+00 0.  1.
         12    1    6    6    0    0  0.36437533113E+02  0.28043730089E+02 -0.11467452333E+02  0.47388258880E+02  0.00000000000E+00 0. -1.
         -5    1    3    3    0  503 -0.50782265442E+02  0.48602658109E+02 -0.10105324124E+03  0.12318646201E+03  0.47000000000E+01 0.  1.
         11    1    4    4    0    0 -0.48200598996E+02  0.13018366914E+02 -0.18768923715E+03  0.19421643948E+03  0.00000000000E+00 0. -1.
        -12    1    4    4    0    0 -0.25613044436E+02 -0.65570716559E+02 -0.30919639453E+03  0.31710874681E+03  0.00000000000E+00 0.  1.
</event>
<event>
12    1  0.1629553E-001  0.3069423E+03  0.7818608E-02  0.1081967E+00
         21   -1    0    0  503  502  0.00000000000E+00  0.00000000000E+00  0.11456712901E+03  0.11456712901E+03  0.00000000000E+00 0. -1.
         21   -1    0    0  501  503 -0.00000000000E+00 -0.00000000000E+00 -0.10796392850E+04  0.10796392850E+04  0.00000000000E+00 0.  1.
          6    2    1    2  501    0 -0.11359138917E+03  0.22756205028E+03 -0.18851538990E+03  0.35918904251E+03  0.16967977373E+03 0.  0.
         24    2    3    3    0    0 -0.84692764602E+02  0.22262364303E+03 -0.20375448179E+03  0.32581482657E+03  0.88911537777E+02 0.  0.
         -6    2    1    2    0  502  0.11359138917E+03 -0.22756205028E+03 -0.77655676605E+03  0.83501737144E+03  0.17183163068E+03 0.  0.
        -24    2    5    5    0    0  0.59651898475E+01 -0.57844922766E+02 -0.23316876599E+03  0.25563847059E+03  0.87187932834E+02 0.  0.
          5    1    3    3  501    0 -0.28898624570E+02  0.49384072494E+01  0.15239091893E+02  0.33374215945E+02  0.47000000000E+01 0. -1.
        -13    1    4    4    0    0 -0.61301555845E+01  0.11470482939E+02 -0.53389310035E+02  0.54950607025E+02  0.00000000000E+00 0.  1.
         14    1    4    4    0    0 -0.78562609018E+02  0.21115316009E+03 -0.15036517176E+03  0.27086421954E+03  0.00000000000E+00 0. -1.
         -5    1    5    5    0  502  0.10762619933E+03 -0.16971712751E+03 -0.54338800006E+03  0.57937890086E+03  0.47000000000E+01 0.  1.
         11    1    6    6    0    0  0.36837320001E+02 -0.26906898244E+02 -0.18523822259E+03  0.19077255680E+03  0.00000000000E+00 0. -1.
        -12    1    6    6    0    0 -0.30872130154E+02 -0.30938024522E+02 -0.47930543399E+02  0.64865913793E+02  0.00000000000E+00 0.  1.
</event>
<event>
12    1  0.1629553E-001  0.2905428E+03  0.7818608E-02  0.1090069E+00
         21   -1    0    0  503  502  0.00000000000E+00  0.00000000000E+00  0.24550702402E+03  0.24550702402E+03  0.00000000000E+00 0. -1.
         21   -1    0    0  501  503 -0.00000000000E+00 -0.00000000000E+00 -0.38856736758E+03  0.38856736758E+03  0.00000000000E+00 0. -1.
          6    2    1    2  501    0  0.22326856058E+03 -0.71298950868E+02 -0.17912091389E+03  0.34130228967E+03  0.17166991759E+03 0.  0.
         24    2    3    3    0    0  0.11493524116E+03 -0.10445049366E+03 -0.88903548681E+02  0.19640095817E+03  0.80928858353E+02 0.  0.
         -6    2    1    2    0  502 -0.22326856058E+03  0.71298950868E+02  0.36060570333E+02  0.29277210193E+03  0.17170541168E+03 0.  0.
        -24    2    5    5    0    0 -0.20075561590E+03  0.10707571026E+03  0.77087031322E+01  0.24165725512E+03  0.81060346706E+02 0.  0.
          5    1    3    3  501    0  0.10833331942E+03  0.33151542797E+02 -0.90217365213E+02  0.14490133150E+03  0.47000000000E+01 0. -1.
        -11    1    4    4    0    0  0.10021459405E+03 -0.84869841235E+02 -0.10409521805E+03  0.16757586113E+03  0.00000000000E+00 0.  1.
         12    1    4    4    0    0  0.14720647114E+02 -0.19580652429E+02  0.15191669374E+02  0.28825097040E+02  0.00000000000E+00 0. -1.
         -5    1    5    5    0  502 -0.22512944680E+02 -0.35776759390E+02  0.28351867201E+02  0.51114846810E+02  0.47000000000E+01 0.  1.
         11    1    6    6    0    0 -0.81276317320E+02  0.71223657449E+02  0.35701910972E+02  0.11381245795E+03  0.00000000000E+00 0. -1.
        -12    1    6    6    0    0 -0.11947929858E+03  0.35852052809E+02 -0.27993207840E+02  0.12784479718E+03  0.00000000000E+00 0.  1.
</event>
<event>
12    1  0.1629553E-001  0.3224145E+03  0.7818608E-02  0.1074675E+00
         21   -1    0    0  503  502  0.00000000000E+00  0.00000000000E+00  0.56748119892E+03  0.56748119892E+03  0.00000000000E+00 0. -1.
         21   -1    0    0  501  503 -0.00000000000E+00 -0.00000000000E+00 -0.20116949675E+03  0.20116949675E+03  0.00000000000E+00 0.  1.
          6    2    1    2  501    0 -0.24773955931E+03  0.11039940373E+03  0.66454410499E+02  0.32919184720E+03  0.17432201811E+03 0.  0.
         24    2    3    3    0    0 -0.19605550722E+03  0.15038273550E+02  0.59781204234E+02  0.22041865164E+03  0.79666040633E+02 0.  0.
         -6    2    1    2    0  502  0.24773955931E+03 -0.11039940373E+03  0.29985729167E+03  0.43945884846E+03  0.17218236418E+03 0.  0.
        -24    2    5    5    0    0  0.19472595037E+03 -0.15034498422E+02  0.21831745961E+03  0.30316599425E+03  0.78120899946E+02 0.  0.
          5    1    3    3  501    0 -0.51684052089E+02  0.95361130181E+02  0.66732062646E+01  0.10877319556E+03  0.47000000000E+01 0. -1.
        -11    1    4    4    0    0 -0.10322626935E+02 -0.15710010782E+02 -0.78598958841E+01  0.20374960832E+02  0.00000000000E+00 0.  1.
         12    1    4    4    0    0 -0.18573288028E+03  0.30748284331E+02  0.67641100118E+02  0.20004369081E+03  0.00000000000E+00 0. -1.
         -5    1    5    5    0  502  0.53013608941E+02 -0.95364905309E+02  0.81539832059E+02  0.13629285421E+03  0.47000000000E+01 0.  1.
         13    1    6    6    0    0  0.16589015335E+03 -0.32707552431E+02  0.20747985395E+03  0.26765129695E+03  0.00000000000E+00 0. -1.
        -14    1    6    6    0    0  0.28835797016E+02  0.17673054009E+02  0.10837605661E+02  0.35514697296E+02  0.00000000000E+00 0.  1.
</event>
<event>
12    1  0.1629553E-001  0.2299679E+03  0.7818608E-02  0.1126869E+00
         21   -1    0    0  501  502  0.00000000000E+00  0.00000000000E+00  0.17571990572E+03  0.17571990572E+03  0.00000000000E+00 0.  1.
         21   -1    0    0  502  503 -0.00000000000E+00 -0.00000000000E+00 -0.52650837072E+03  0.52650837072E+03  0.00000000000E+00 0. -1.
         -6    2    1    2    0  503  0.14403264571E+03  0.43240072145E+02 -0.40572438808E+03  0.46578969257E+03  0.17243158573E+03 0.  0.
        -24    2    3    3    0    0  0.49729312354E+02  0.83008431644E+02 -0.20714444236E+03  0.24233785002E+03  0.80345561925E+02 0.  0.
          6    2    1    2  501    0 -0.14403264571E+03 -0.43240072145E+02  0.54935923076E+02  0.23643858387E+03  0.17398316421E+03 0.  0.
         24    2    5    5    0    0 -0.15302451960E+03 -0.81401090566E+02  0.47948458841E+02  0.19633831230E+03  0.78784751254E+02 0.  0.
          5    1    5    5  501    0  0.89918738890E+01  0.38161018422E+02  0.69874642351E+01  0.40100271563E+02  0.47000000000E+01 0. -1.
        -13    1    6    6    0    0 -0.48533654653E+02 -0.37203046042E+02  0.55569021346E+02  0.82628677843E+02  0.00000000000E+00 0.  1.
         14    1    6    6    0    0 -0.10449086494E+03 -0.44198044525E+02 -0.76205625048E+01  0.11370963446E+03  0.00000000000E+00 0. -1.
         -5    1    3    3    0  503  0.94303333352E+02 -0.39768359499E+02 -0.19857994572E+03  0.22345184255E+03  0.47000000000E+01 0.  1.
         13    1    4    4    0    0 -0.13299905536E+02  0.25928044298E+02 -0.10731697470E+03  0.11120289577E+03  0.00000000000E+00 0. -1.
        -14    1    4    4    0    0  0.63029217890E+02  0.57080387345E+02 -0.99827467655E+02  0.13113495425E+03  0.00000000000E+00 0.  1.
</event>
<event>
12    1  0.1629553E-001  0.1737355E+03  0.7818608E-02  0.1174306E+00
         21   -1    0    0  501  502  0.00000000000E+00  0.00000000000E+00  0.28373491906E+03  0.28373491906E+03  0.00000000000E+00 0. -1.
         21   -1    0    0  502  503 -0.00000000000E+00 -0.00000000000E+00 -0.22571785114E+03  0.22571785114E+03  0.00000000000E+00 0. -1.
         -6    2    1    2    0  503  0.10474604713E+02 -0.70876468939E+01 -0.15680929089E+03  0.23316595683E+03  0.17209665201E+03 0.  0.
        -24    2    3    3    0    0  0.16242574459E+02  0.22320313560E+02 -0.10033519455E+02  0.83288291071E+02  0.77937476829E+02 0.  0.
          6    2    1    2  501    0 -0.10474604713E+02  0.70876468939E+01  0.21482635881E+03  0.27628681337E+03  0.17327459917E+03 0.  0.
         24    2    5    5    0    0 -0.39815310388E+02 -0.51363972904E+02  0.74573102334E+02  0.12146260719E+03  0.70487592519E+02 0.  0.
          5    1    5    5  501    0  0.29340705675E+02  0.58451619798E+02  0.14025325648E+03  0.15482420618E+03  0.47000000000E+01 0. -1.
        -11    1    6    6    0    0 -0.75536393121E+01 -0.53412782779E+02  0.19040032405E+02  0.57205818454E+02  0.00000000000E+00 0.  1.
         12    1    6    6    0    0 -0.32261671076E+02  0.20488098745E+01  0.55533069929E+02  0.64256788733E+02  0.00000000000E+00 0. -1.
         -5    1    3    3    0  503 -0.57679697464E+01 -0.29407960454E+02 -0.14677577144E+03  0.14987766576E+03  0.47000000000E+01 0.  1.
         13    1    4    4    0    0  0.37928439399E+02 -0.38985438587E+01 -0.25544705599E+02  0.45894412989E+02  0.00000000000E+00 0. -1.
        -14    1    4    4    0    0 -0.21685864939E+02  0.26218857419E+02  0.15511186144E+02  0.37393878083E+02  0.00000000000E+00 0.  1.
</event>
<event>
12    1  0.1629553E-001  0.1948538E+03  0.7818608E-02  0.1156496E+00
         21   -1    0    0  501  502  0.00000000000E+00  0.00000000000E+00  0.16791925212E+03  0.16791925212E+03  0.00000000000E+00 0.  1.
         21   -1    0    0  502  503 -0.00000000000E+00 -0.00000000000E+00 -0.21543975675E+03  0.21543975675E+03  0.00000000000E+00 0.  1.
         -6    2    1    2    0  503  0.69812154943E+02  0.71988296142E+01 -0.37757105079E+02  0.18826076122E+03  0.17056070798E+03 0.  0.
        -24    2    3    3    0    0  0.14904794204E+02  0.60493662973E+01  0.41987872542E+02  0.91320104191E+02  0.79483534559E+02 0.  0.
          6    2    1    2  501    0 -0.69812154943E+02 -0.71988296142E+01 -0.97633995460E+01  0.19509824765E+03  0.18177580185E+03 0.  0.
         24    2    5    5    0    0 -0.81415062969E+02 -0.41667869247E+02 -0.57616384734E+02  0.13480943974E+03  0.80556275027E+02 0.  0.
          5    1    5    5  501    0  0.11602908026E+02  0.34469039633E+02  0.47852985188E+02  0.60288807910E+02  0.47000000000E+01 0. -1.
        -13    1    6    6    0    0 -0.29794962459E+02 -0.32459213645E+02 -0.68317641189E+02  0.81293544860E+02  0.00000000000E+00 0.  1.
         14    1    6    6    0    0 -0.51620100510E+02 -0.92086556022E+01  0.10701256455E+02  0.53515894876E+02  0.00000000000E+00 0. -1.
         -5    1    3    3    0  503  0.54907360740E+02  0.11494633169E+01 -0.79744977621E+02  0.96940657028E+02  0.47000000000E+01 0.  1.
         11    1    4    4    0    0  0.68073622565E+01  0.10540681572E+02 -0.22719146094E+02  0.25953915853E+02  0.00000000000E+00 0. -1.
        -12    1    4    4    0    0  0.80974319471E+01 -0.44913152748E+01  0.64707018636E+02  0.65366188337E+02  0.00000000000E+00 0.  1.
</event>
<event>
12    1  0.1629553E-001  0.1967308E+03  0.7818608E-02  0.1152843E+00
         21   -1    0    0  503  502  0.00000000000E+00  0.00000000000E+00  0.69218528629E+03  0.69218528629E+03  0.00000000000E+00 0. -1.
         21   -1    0    0  501  503 -0.00000000000E+00 -0.00000000000E+00 -0.70084774293E+02  0.70084774293E+02  0.00000000000E+00 0.  1.
          6    2    1    2  501    0  0.94924276676E+02 -0.12795825824E+02  0.13626807792E+03  0.23811724516E+03  0.17016604221E+03 0.  0.
         24    2    3    3    0    0  0.10131524280E+03 -0.20560287962E+02  0.37893061818E+02  0.13911792641E+03  0.85031814338E+02 0.  0.
         -6    2    1    2    0  502 -0.94924276676E+02  0.12795825824E+02  0.48583243408E+03  0.52415281543E+03  0.17183907721E+03 0.  0.
        -24    2    5    5    0    0  0.49819562833E+01 -0.30666736397E+02  0.19277325458E+03  0.21146123833E+03  0.81173019068E+02 0.  0.
          5    1    3    3  501    0 -0.63909661222E+01  0.77644621380E+01  0.98375016098E+02  0.98999318748E+02  0.47000000000E+01 0. -1.
        -13    1    4    4    0    0  0.17486077650E+02  0.28116255619E+02  0.24655006354E+02  0.41281425362E+02  0.00000000000E+00 0.  1.
         14    1    4    4    0    0  0.83829165148E+02 -0.48676543581E+02  0.13238055464E+02  0.97836501046E+02  0.00000000000E+00 0. -1.
         -5    1    5    5    0  502 -0.99906232959E+02  0.43462562221E+02  0.29305917950E+03  0.31269157710E+03  0.47000000000E+01 0.  1.
         13    1    6    6    0    0  0.64246566742E+01  0.24528662570E+02  0.28448858752E+02  0.38108648167E+02  0.00000000000E+00 0. -1.
        -14    1    6    6    0    0 -0.14427003909E+01 -0.55195398967E+02  0.16432439583E+03  0.17335259016E+03  0.00000000000E+00 0.  1.
</event>
<event>
12    1  0.1629553E-001  0.2936731E+03  0.7818608E-02  0.1088818E+00
         21   -1    0    0  501  502  0.00000000000E+00  0.00000000000E+00  0.12652073874E+03  0.12652073874E+03  0.00000000000E+00 0. -1.
         21   -1    0    0  502  503 -0.00000000000E+00 -0.00000000000E+00 -0.80065965464E+03  0.80065965464E+03  0.00000000000E+00 0. -1.
         -6    2    1    2    0  503  0.21913039411E+02 -0.23483666747E+03 -0.51932936780E+03  0.59520166564E+03  0.17009876201E+03 0.  0.
        -24    2    3    3    0    0 -0.31239900789E+02 -0.10523896735E+03 -0.34911453149E+03  0.37471134969E+03  0.80476504883E+02 0.  0.
          6    2    1    2  501    0 -0.21913039411E+02  0.23483666747E+03 -0.15480954810E+03  0.33197872774E+03  0.17497267731E+03 0.  0.
         24    2    5    5    0    0  0.37663535040E+01  0.58112729490E+02 -0.57694286369E+01  0.99329144277E+02  0.80260313035E+02 0.  0.
          5    1    5    5  501    0 -0.25679392915E+02  0.17672393798E+03 -0.14904011946E+03  0.23264958346E+03  0.47000000000E+01 0. -1.
        -11    1    6    6    0    0  0.30379649650E+02  0.64636635958E+02 -0.47776566534E+00  0.71421607941E+02  0.00000000000E+00 0.  1.
         12    1    6    6    0    0 -0.26613296146E+02 -0.65239064679E+01 -0.52916629716E+01  0.27907536336E+02  0.00000000000E+00 0. -1.
         -5    1    3    3    0  503  0.53152940200E+02 -0.12959770012E+03 -0.17021483632E+03  0.22049031595E+03  0.47000000000E+01 0.  1.
         11    1    4    4    0    0 -0.53940670437E+01 -0.65333954066E+02 -0.29708045412E+03  0.30422757556E+03  0.00000000000E+00 0. -1.
        -12    1    4    4    0    0 -0.25845833746E+02 -0.39905013286E+02 -0.52034077372E+02  0.70483774128E+02  0.00000000000E+00 0.  1.
</event>
<event>
12    1  0.1629553E-001  0.1990209E+03  0.7818608E-02  0.1151411E+00
         21   -1    0    0  501  502  0.00000000000E+00  0.00000000000E+00  0.15785337959E+04  0.15785337959E+04  0.00000000000E+00 0.  1.
         21   -1    0    0  502  503 -0.00000000000E+00 -0.00000000000E+00 -0.37217071025E+02  0.37217071025E+02  0.00000000000E+00 0. -1.
         -6    2    1    2    0  503 -0.11217083363E+02 -0.92483254098E+02  0.30535974019E+03  0.36449126091E+03  0.17587021663E+03 0.  0.
        -24    2    3    3    0    0  0.17985280587E+02 -0.85328569206E+02  0.95925796587E+02  0.15285800664E+03  0.80989979028E+02 0.  0.
          6    2    1    2  501    0  0.11217083363E+02  0.92483254098E+02  0.12359569847E+04  0.12512596061E+04  0.17141166363E+03 0.  0.
         24    2    5    5    0    0  0.22960095252E+02  0.76386104011E+02  0.41484363114E+03  0.42989108584E+03  0.79681268390E+02 0.  0.
          5    1    5    5  501    0 -0.11743011889E+02  0.16097150087E+02  0.82111335359E+03  0.82136852022E+03  0.47000000000E+01 0. -1.
        -13    1    6    6    0    0  0.17898669653E+02 -0.10379705455E+02  0.39216735292E+02  0.44340196071E+02  0.00000000000E+00 0.  1.
         14    1    6    6    0    0  0.50614255989E+01  0.86765809466E+02  0.37562689585E+03  0.38555088977E+03  0.00000000000E+00 0. -1.
         -5    1    3    3    0  503 -0.29202363949E+02 -0.71546848924E+01  0.20943394361E+03  0.21163325427E+03  0.47000000000E+01 0.  1.
         13    1    4    4    0    0 -0.27408296903E+02 -0.15987591379E+02  0.95140094497E+01  0.33126034973E+02  0.00000000000E+00 0. -1.
        -14    1    4    4    0    0  0.45393577489E+02 -0.69340977826E+02  0.86411787137E+02  0.11973197167E+03  0.00000000000E+00 0.  1.
</event>
<event>
12    1  0.1629553E-001  0.1798031E+03  0.7818608E-02  0.1168090E+00
         21   -1    0    0  503  502  0.00000000000E+00  0.00000000000E+00  0.17649432580E+03  0.17649432580E+03  0.00000000000E+00 0.  1.
         21   -1    0    0  501  503 -0.00000000000E+00 -0.00000000000E+00 -0.26219603640E+03  0.26219603640E+03  0.00000000000E+00 0.  1.
          6    2    1    2  501    0  0.89426184692E+01 -0.50990435444E+02 -0.16354163662E+03  0.24276128244E+03  0.17177653627E+03 0.  0.
         24    2    3    3    0    0  0.51284082201E+02 -0.68276036818E+02 -0.64464290710E+02  0.13353673374E+03  0.79904569274E+02 0.  0.
         -6    2    1    2    0  502 -0.89426184692E+01  0.50990435444E+02  0.77839926022E+02  0.19592907976E+03  0.17218930072E+03 0.  0.
        -24    2    5    5    0    0  0.47686502408E+01 -0.22103431052E+02 -0.66446786186E+01  0.83277179512E+02  0.79872618488E+02 0.  0.
          5    1    3    3  501    0 -0.42341463732E+02  0.17285601374E+02 -0.99077345911E+02  0.10922454870E+03  0.47000000000E+01 0. -1.
        -13    1    4    4    0    0  0.25329202229E+02 -0.52695567406E+02 -0.80333484929E+02  0.99357234818E+02  0.00000000000E+00 0.  1.
         14    1    4    4    0    0  0.25954879972E+02 -0.15580469412E+02  0.15869194219E+02  0.34179498924E+02  0.00000000000E+00 0. -1.
         -5    1    5    5    0  502 -0.13711268710E+02  0.73093866496E+02  0.84484604641E+02  0.11265190025E+03  0.47000000000E+01 0.  1.
         13    1    6    6    0    0 -0.17124361674E+02 -0.39517658992E+01 -0.37439617886E+02  0.41359221510E+02  0.00000000000E+00 0. -1.
        -14    1    6    6    0    0  0.21893011915E+02 -0.18151665153E+02  0.30794939268E+02  0.41917958002E+02  0.00000000000E+00 0.  1.
</event>
<event>
12    1  0.1629553E-001  0.2767828E+03  0.7818608E-02  0.1097850E+00
         21   -1    0    0  503  502  0.00000000000E+00  0.00000000000E+00  0.66552079461E+02  0.66552079461E+02  0.00000000000E+00 0.  1.
         21   -1    0    0  501  503 -0.00000000000E+00 -0.00000000000E+00 -0.11436409104E+04  0.11436409104E+04  0.00000000000E+00 0. -1.
          6    2    1    2  501    0 -0.21019315228E+03 -0.48679968389E+02 -0.50474570937E+03  0.57565349023E+03  0.17337188092E+03 0.  0.
         24    2    3    3    0    0 -0.21488057922E+03 -0.45626343790E+02 -0.35027004161E+03  0.42100511964E+03  0.79377466196E+02 0.  0.
         -6    2    1    2    0  502  0.21019315228E+03  0.48679968389E+02 -0.57234312158E+03  0.63453949965E+03  0.16885741679E+03 0.  0.
        -24    2    5    5    0    0  0.15261498043E+03 -0.19746350382E+02 -0.45551858033E+03  0.48734075504E+03  0.79514677242E+02 0.  0.
          5    1    3    3  501    0  0.46874269448E+01 -0.30536245994E+01 -0.15447566776E+03  0.15464837059E+03  0.47000000000E+01 0. -1.
        -11    1    4    4    0    0 -0.10723443936E+03 -0.34751131187E+02 -0.11001544837E+03  0.15751274547E+03  0.00000000000E+00 0.  1.
         12    1    4    4    0    0 -0.10764613986E+03 -0.10875212603E+02 -0.24025459323E+03  0.26349237417E+03  0.00000000000E+00 0. -1.
         -5    1    5    5    0  502  0.57578171846E+02  0.68426318771E+02 -0.11682454126E+03  0.14719874460E+03  0.47000000000E+01 0.  1.
         11    1    6    6    0    0  0.62504243176E+02  0.24224514125E+02 -0.12359296816E+03  0.14060166883E+03  0.00000000000E+00 0. -1.
        -12    1    6    6    0    0  0.90110737256E+02 -0.43970864506E+02 -0.33192561217E+03  0.34673908621E+03  0.00000000000E+00 0.  1.
</event>
<event>
12    1  0.1629553E-001  0.2501379E+03  0.7818608E-02  0.1113307E+00
         21   -1    0    0  501  502  0.00000000000E+00  0.00000000000E+00  0.74707048507E+03  0.74707048507E+03  0.00000000000E+00 0. -1.
         21   -1    0    0  502  503 -0.00000000000E+00 -0.00000000000E+00 -0.84632414098E+02  0.84632414098E+02  0.00000000000E+00 0.  1.
         -6    2    1    2    0  503  0.17173199105E+03  0.63008176276E+02  0.28409179329E+03  0.37814486847E+03  0.16977481412E+03 0.  0.
        -24    2    3    3    0    0  0.18588908967E+03  0.62791041079E+02  0.19131641925E+03  0.28417769007E+03  0.75216479302E+02 0.  0.
          6    2    1    2  501    0 -0.17173199105E+03 -0.63008176276E+02  0.37834627769E+03  0.45355803070E+03  0.17060795512E+03 0.  0.
         24    2    5    5    0    0 -0.74141637797E+02 -0.58417434586E+02  0.31502665479E+03  0.33704014967E+03  0.73788143636E+02 0.  0.
          5    1    5    5  501    0 -0.97590353251E+02 -0.45907416894E+01  0.63319622892E+02  0.11651788103E+03  0.47000000000E+01 0. -1.
        -11    1    6    6    0    0  0.89121401676E+01  0.82226312402E+01  0.49360372740E+02  0.50827987408E+02  0.00000000000E+00 0.  1.
         12    1    6    6    0    0 -0.83053777965E+02 -0.66640065826E+02  0.26566628205E+03  0.28621216226E+03  0.00000000000E+00 0. -1.
         -5    1    3    3    0  503 -0.14157098620E+02  0.21713519643E+00  0.92775374039E+02  0.93967178403E+02  0.47000000000E+01 0.  1.
         13    1    4    4    0    0  0.42814310646E+02 -0.13077090478E+02  0.21994658338E+02  0.49878256654E+02  0.00000000000E+00 0. -1.
        -14    1    4    4    0    0  0.14307477902E+03  0.75868131557E+02  0.16932176091E+03  0.23429943341E+03  0.00000000000E+00 0.  1.
</event>
<event>
12    1  0.1629553E-001  0.1934264E+03  0.7818608E-02  0.1155430E+00
         21   -1    0    0  501  502  0.00000000000E+00  0.00000000000E+00  0.15135543928E+03  0.15135543928E+03  0.00000000000E+00 0. -1.
         21   -1    0    0  502  503 -0.00000000000E+00 -0.00000000000E+00 -0.27478702598E+03  0.27478702598E+03  0.00000000000E+00 0. -1.
         -6    2    1    2    0  503  0.68564632919E+02  0.55636654173E+02  0.59888685978E+01  0.19341210717E+03  0.17197624975E+03 0.  0.
        -24    2    3    3    0    0  0.73415217500E+02  0.99526086142E+02 -0.43116148063E+01  0.14782701786E+03  0.80864090939E+02 0.  0.
          6    2    1    2  501    0 -0.68564632919E+02 -0.55636654173E+02 -0.12942045530E+03  0.23273035809E+03  0.17209654020E+03 0.  0.
         24    2    5    5    0    0 -0.60473110772E+02 -0.29812731868E+02 -0.26279114317E+01  0.10299683553E+03  0.77818031993E+02 0.  0.
          5    1    5    5  501    0 -0.80915221470E+01 -0.25823922305E+02 -0.12679254387E+03  0.12973352256E+03  0.47000000000E+01 0. -1.
        -11    1    6    6    0    0  0.18349437324E+02 -0.77534111231E+01  0.57090400034E+01  0.20722219280E+02  0.00000000000E+00 0.  1.
         12    1    6    6    0    0 -0.78822548096E+02 -0.22059320745E+02 -0.83369514351E+01  0.82274616252E+02  0.00000000000E+00 0. -1.
         -5    1    3    3    0  503 -0.48505845802E+01 -0.43889431969E+02  0.10300483404E+02  0.45585089313E+02  0.47000000000E+01 0.  1.
         11    1    4    4    0    0  0.38847103691E+02  0.34439512572E+01  0.18552101049E+02  0.43187251808E+02  0.00000000000E+00 0. -1.
        -12    1    4    4    0    0  0.34568113809E+02  0.96082134885E+02 -0.22863715855E+02  0.10463976605E+03  0.00000000000E+00 0.  1.
</event>
<event>
12    1  0.1629553E-001  0.1880931E+03  0.7818608E-02  0.1162537E+00
         21   -1    0    0  503  502  0.00000000000E+00  0.00000000000E+00  0.13595057135E+03  0.13595057135E+03  0.00000000000E+00 0. -1.
         21   -1    0    0  501  503 -0.00000000000E+00 -0.00000000000E+00 -0.26662009512E+03  0.26662009512E+03  0.00000000000E+00 0. -1.
          6    2    1    2  501    0 -0.26569603860E+02 -0.69431228511E+02 -0.12208038659E+03  0.22423790364E+03  0.17277840518E+03 0.  0.
         24    2    3    3    0    0 -0.70413661813E+02 -0.16173449552E+02 -0.11212351053E+03  0.15438146644E+03  0.77732176903E+02 0.  0.
         -6    2    1    2    0  502  0.26569603860E+02  0.69431228511E+02 -0.85891371783E+01  0.17833276283E+03  0.16187081788E+03 0.  0.
        -24    2    5    5    0    0  0.43657209987E+01  0.12455750322E+02  0.49578788087E+02  0.93805754968E+02  0.78531892891E+02 0.  0.
          5    1    3    3  501    0  0.43844057953E+02 -0.53257778959E+02 -0.99568760582E+01  0.69856437200E+02  0.47000000000E+01 0. -1.
        -13    1    4    4    0    0 -0.42095378124E+02  0.13897109483E+02 -0.11779441405E+02  0.45868352392E+02  0.00000000000E+00 0.  1.
         14    1    4    4    0    0 -0.28318283689E+02 -0.30070559036E+02 -0.10034406912E+03  0.10851311405E+03  0.00000000000E+00 0. -1.
         -5    1    5    5    0  502  0.22203882861E+02  0.56975478189E+02 -0.58167925266E+02  0.84527007865E+02  0.47000000000E+01 0.  1.
         11    1    6    6    0    0  0.28928376968E+01  0.43281677346E+02  0.45179399391E+02  0.62632661073E+02  0.00000000000E+00 0. -1.
        -12    1    6    6    0    0  0.14728833019E+01 -0.30825927023E+02  0.43993886960E+01  0.31173093895E+02  0.00000000000E+00 0.  1.
</event>
<event>
12    1  0.1629553E-001  0.2117472E+03  0.7818608E-02  0.1140283E+00
         21   -1    0    0  501  502  0.00000000000E+00  0.00000000000E+00  0.83393693967E+02  0.83393693967E+02  0.00000000000E+00 0.  1.
         21   -1    0    0  502  503 -0.00000000000E+00 -0.00000000000E+00 -0.65842632984E+03  0.65842632984E+03  0.00000000000E+00 0.  1.
         -6    2    1    2    0  503 -0.11820849525E+03 -0.29457673291E+02 -0.44689879460E+03  0.49432219021E+03  0.17261197017E+03 0.  0.
        -24    2    3    3    0    0 -0.36138845851E+02  0.26829467609E+02 -0.32112745611E+03  0.33387223175E+03  0.79510927246E+02 0.  0.
          6    2    1    2  501    0  0.11820849525E+03  0.29457673291E+02 -0.12813384127E+03  0.24749783360E+03  0.17319322589E+03 0.  0.
         24    2    5    5    0    0  0.12633507113E+03 -0.28564424951E+02 -0.91716160646E+02  0.17835347315E+03  0.81373402860E+02 0.  0.
          5    1    5    5  501    0 -0.81265758741E+01  0.58022098241E+02 -0.36417680626E+02  0.69144360449E+02  0.47000000000E+01 0. -1.
        -13    1    6    6    0    0  0.95401310347E+02 -0.53698843958E+02 -0.49035962595E+02  0.11995624822E+03  0.00000000000E+00 0.  1.
         14    1    6    6    0    0  0.30933760779E+02  0.25134419007E+02 -0.42680198052E+02  0.58397224938E+02  0.00000000000E+00 0. -1.
         -5    1    3    3    0  503 -0.82069649401E+02 -0.56287140900E+02 -0.12577133849E+03  0.16044995846E+03  0.47000000000E+01 0.  1.
         11    1    4    4    0    0  0.14061484958E+02 -0.14337767640E+02 -0.14058040370E+03  0.14200755911E+03  0.00000000000E+00 0. -1.
        -12    1    4    4    0    0 -0.50200330809E+02  0.41167235250E+02 -0.18054705242E+03  0.19186467264E+03  0.00000000000E+00 0.  1.
</event>
<event>
12    1  0.1629553E-001  0.4141074E+03  0.7818608E-02  0.1039006E+00
         21   -1    0    0  503  502  0.00000000000E+00  0.00000000000E+00  0.80568706763E+03  0.80568706763E+03  0.00000000000E+00 0.  1.
         21   -1    0    0  501  503 -0.00000000000E+00 -0.00000000000E+00 -0.22649648503E+03  0.22649648503E+03  0.00000000000E+00 0.  1.
          6    2    1    2  501    0  0.34453769581E+03  0.15274682731E+03  0.16276807115E+03  0.44494760106E+03  0.17160158978E+03 0.  0.
         24    2    3    3    0    0  0.13286579876E+03  0.10942028866E+03  0.12001235108E+03  0.22464707325E+03  0.80232306819E+02 0.  0.
         -6    2    1    2    0  502 -0.34453769581E+03 -0.15274682731E+03  0.41642251144E+03  0.58723595160E+03  0.17146585004E+03 0.  0.
        -24    2    5    5    0    0 -0.19824188041E+03 -0.36263543232E+02  0.15854116151E+03  0.26865205101E+03  0.80148218338E+02 0.  0.
          5    1    3    3  501    0  0.21167189705E+03  0.43326538646E+02  0.42755720065E+02  0.22030052780E+03  0.47000000000E+01 0. -1.
        -13    1    4    4    0    0  0.77415312126E+02  0.13530709149E+02  0.58260004926E+02  0.97828619614E+02  0.00000000000E+00 0.  1.
         14    1    4    4    0    0  0.55450486632E+02  0.95889579515E+02  0.61752346156E+02  0.12681845364E+03  0.00000000000E+00 0. -1.
         -5    1    5    5    0  502 -0.14629581540E+03 -0.11648328408E+03  0.25788134994E+03  0.31858390060E+03  0.47000000000E+01 0.  1.
         11    1    6    6    0    0 -0.88603398815E+01 -0.86235977890E+01  0.43783806737E+02  0.45496085480E+02  0.00000000000E+00 0. -1.
        -12    1    6    6    0    0 -0.18938154053E+03 -0.27639945443E+02  0.11475735477E+03  0.22315596553E+03  0.00000000000E+00 0.  1.
</event>
<event>
12    1  0.1629553E-001  0.1755379E+03  0.7818608E-02  0.1172715E+00
         21   -1    0    0  503  502  0.00000000000E+00  0.00000000000E+00  0.14081754614E+03  0.14081754614E+03  0.00000000000E+00 0. -1.
         21   -1    0    0  501  503 -0.00000000000E+00 -0.00000000000E+00 -0.40643010930E+03  0.40643010930E+03  0.00000000000E+00 0. -1.
          6    2    1    2  501    0 -0.24049577059E+02  0.15528463058E+02 -0.32040407146E+03  0.36533866360E+03  0.17318791757E+03 0.  0.
         24    2    3    3    0    0 -0.44735985820E+02  0.50874806463E+02 -0.30279036414E+03  0.32050983153E+03  0.80342971878E+02 0.  0.
         -6    2    1    2    0  502  0.24049577059E+02 -0.15528463058E+02  0.54791508304E+02  0.18190899183E+03  0.17108260170E+03 0.  0.
        -24    2    5    5    0    0 -0.35077732219E+02 -0.30095517914E+00  0.79522752367E+02  0.11586627738E+03  0.76619763887E+02 0.  0.
          5    1    3    3  501    0  0.20686408761E+02 -0.35346343405E+02 -0.17613707322E+02  0.44828832075E+02  0.47000000000E+01 0. -1.
        -13    1    4    4    0    0  0.11100122434E+02  0.62897294764E+01 -0.16317018533E+03  0.16366820948E+03  0.00000000000E+00 0.  1.
         14    1    4    4    0    0 -0.55836108254E+02  0.44585076987E+02 -0.13962017882E+03  0.15684162205E+03  0.00000000000E+00 0. -1.
         -5    1    5    5    0  502  0.59127309278E+02 -0.15227507879E+02 -0.24731244063E+02  0.66042714448E+02  0.47000000000E+01 0.  1.
         13    1    6    6    0    0  0.22738975026E+02 -0.77003249564E+01  0.12581267841E+02  0.27104322352E+02  0.00000000000E+00 0. -1.
        -14    1    6    6    0    0 -0.57816707245E+02  0.73993697772E+01  0.66941484526E+02  0.88761955027E+02  0.00000000000E+00 0.  1.
</event>
<event>
12    1  0.1629553E-001  0.2085941E+03  0.7818608E-02  0.1142780E+00
         21   -1    0    0  501  502  0.00000000000E+00  0.00000000000E+00  0.61031584457E+02  0.61031584457E+02  0.00000000000E+00 0. -1.
         21   -1    0    0  502  503 -0.00000000000E+00 -0.00000000000E+00 -0.16220391298E+04  0.16220391298E+04  0.00000000000E+00 0.  1.
         -6    2    1    2    0  503 -0.95269363695E+02 -0.69298320934E+02 -0.14106886118E+04  0.14259573733E+04  0.17156212348E+03 0.  0.
        -24    2    3    3    0    0  0.71853285052E+00  0.14751493634E+02 -0.48844179665E+03  0.49491530896E+03  0.78406960633E+02 0.  0.
          6    2    1    2  501    0  0.95269363695E+02  0.69298320934E+02 -0.15031893361E+03  0.25711334097E+03  0.17214232298E+03 0.  0.
         24    2    5    5    0    0  0.10989799303E+03  0.31012325775E+02 -0.48549229242E+02  0.14729996770E+03  0.79378332069E+02 0.  0.
          5    1    5    5  501    0 -0.14628629340E+02  0.38285995159E+02 -0.10176970437E+03  0.10981337327E+03  0.47000000000E+01 0. -1.
        -13    1    6    6    0    0  0.15332744512E+02  0.33107160169E+02 -0.37077450061E+02  0.52018404549E+02  0.00000000000E+00 0.  1.
         14    1    6    6    0    0  0.94565248523E+02 -0.20948343939E+01 -0.11471779180E+02  0.95281563153E+02  0.00000000000E+00 0. -1.
         -5    1    3    3    0  503 -0.95987896545E+02 -0.84049814568E+02 -0.92224681512E+03  0.93104206436E+03  0.47000000000E+01 0.  1.
         11    1    4    4    0    0 -0.11625247335E+02  0.34480089945E+02 -0.11216442453E+03  0.11791895992E+03  0.00000000000E+00 0. -1.
        -12    1    4    4    0    0  0.12343780186E+02 -0.19728596310E+02 -0.37627737212E+03  0.37699634905E+03  0.00000000000E+00 0.  1.
</event>
<event>
12    1  0.1629553E-001  0.2012666E+03  0.7818608E-02  0.1149042E+00
         21   -1    0    0  503  502  0.00000000000E+00  0.00000000000E+00  0.13777390779E+03  0.13777390779E+03  0.00000000000E+00 0. -1.
         21   -1    0    0  501  503 -0.00000000000E+00 -0.00000000000E+00 -0.44971467933E+03  0.44971467933E+03  0.00000000000E+00 0. -1.
          6    2    1    2  501    0  0.10290361825E+03  0.12447806057E+02 -0.33065609260E+03  0.38709390525E+03  0.17252286046E+03 0.  0.
         24    2    3    3    0    0  0.62487520603E+02 -0.46510824396E+02 -0.11902751622E+03  0.16366981211E+03  0.80946344956E+02 0.  0.
         -6    2    1    2    0  502 -0.10290361825E+03 -0.12447806057E+02  0.18715321067E+02  0.20039468187E+03  0.17048068147E+03 0.  0.
        -24    2    5    5    0    0 -0.88786070582E+02 -0.50241422560E+02  0.59167325649E+02  0.14307001636E+03  0.81000557324E+02 0.  0.
          5    1    3    3  501    0  0.40416097647E+02  0.58958630453E+02 -0.21162857638E+03  0.22342409314E+03  0.47000000000E+01 0. -1.
        -13    1    4    4    0    0  0.56411072968E+02  0.83303902539E+01 -0.56403079771E+02  0.80205435993E+02  0.00000000000E+00 0.  1.
         14    1    4    4    0    0  0.60764476350E+01 -0.54841214650E+02 -0.62624436447E+02  0.83464376116E+02  0.00000000000E+00 0. -1.
         -5    1    5    5    0  502 -0.14117547668E+02  0.37793616503E+02 -0.40452004582E+02  0.57324665505E+02  0.47000000000E+01 0.  1.
         11    1    6    6    0    0  0.96047765500E+01 -0.89656388619E+01  0.29547441984E+02  0.32337064501E+02  0.00000000000E+00 0. -1.
        -12    1    6    6    0    0 -0.98390847132E+02 -0.41275783698E+02  0.29619883665E+02  0.11073295186E+03  0.00000000000E+00 0.  1.
</event>
<event>
12    1  0.1629553E-001  0.2178466E+03  0.7818608E-02  0.1135804E+00
         21   -1    0    0  503  502  0.00000000000E+00  0.00000000000E+00  0.73817798074E+02  0.73817798074E+02  0.00000000000E+00 0. -1.
         21   -1    0    0  501  503 -0.00000000000E+00 -0.00000000000E+00 -0.63897491512E+03  0.63897491512E+03  0.00000000000E+00 0.  1.
          6    2    1    2  501    0  0.90256151755E+02 -0.97030826685E+02 -0.27086921270E+03  0.34760219229E+03  0.17290459635E+03 0.  0.
         24    2    3    3    0    0  0.33755570777E+02 -0.27085899913E+02 -0.23358429008E+03  0.25015033809E+03  0.78361256631E+02 0.  0.
         -6    2    1    2    0  502 -0.90256151755E+02  0.97030826685E+02 -0.29428790435E+03  0.36519052091E+03  0.17087302789E+03 0.  0.
        -24    2    5    5    0    0 -0.10176564184E+02  0.28780552951E+01 -0.64345608668E+02  0.10409085785E+03  0.81133862677E+02 0.  0.
          5    1    3    3  501    0  0.56500580977E+02 -0.69944926772E+02 -0.37284922618E+02  0.97451854197E+02  0.47000000000E+01 0. -1.
        -11    1    4    4    0    0  0.25027909198E+02 -0.34837626883E+02 -0.23454727333E+03  0.23843758075E+03  0.00000000000E+00 0.  1.
         12    1    4    4    0    0  0.87276615793E+01  0.77517269705E+01  0.96298325535E+00  0.11712757336E+02  0.00000000000E+00 0. -1.
         -5    1    5    5    0  502 -0.80079587570E+02  0.94152771389E+02 -0.22994229568E+03  0.26109966306E+03  0.47000000000E+01 0.  1.
         13    1    6    6    0    0 -0.26214128931E+02 -0.21203671463E+02 -0.67031391560E+02  0.75033217268E+02  0.00000000000E+00 0. -1.
        -14    1    6    6    0    0  0.16037564746E+02  0.24081726758E+02  0.26857828919E+01  0.29057640585E+02  0.00000000000E+00 0.  1.
</event>
<event>
12    1  0.1629553E-001  0.1767985E+03  0.7818608E-02  0.1171105E+00
         21   -1    0    0  501  502  0.00000000000E+00  0.00000000000E+00  0.38780586907E+03  0.38780586907E+03  0.00000000000E+00 0.  1.
         21   -1    0    0  502  503 -0.00000000000E+00 -0.00000000000E+00 -0.90170444449E+02  0.90170444449E+02  0.00000000000E+00 0.  1.
         -6    2    1    2    0  503 -0.22591027487E+02 -0.36756106622E+02  0.22816234094E+03  0.28864470796E+03  0.17145363138E+03 0.  0.
        -24    2    3    3    0    0 -0.13708927327E+01  0.37620907559E+02  0.70140591341E+02  0.11264698722E+03  0.79702127602E+02 0.  0.
          6    2    1    2  501    0  0.22591027487E+02  0.36756106622E+02  0.69473083680E+02  0.18933160556E+03  0.17075884051E+03 0.  0.
         24    2    5    5    0    0 -0.39665444630E+02 -0.85451191412E+01  0.74915266780E+01  0.90377713346E+02  0.80409213022E+02 0.  0.
          5    1    5    5  501    0  0.62256472117E+02  0.45301225763E+02  0.61981557002E+02  0.98953892215E+02  0.47000000000E+01 0. -1.
        -11    1    6    6    0    0 -0.21758813288E+01  0.27968254910E+02 -0.16782463185E+02  0.32689582634E+02  0.00000000000E+00 0.  1.
         12    1    6    6    0    0 -0.37489563301E+02 -0.36513374051E+02  0.24273989863E+02  0.57688130712E+02  0.00000000000E+00 0. -1.
         -5    1    3    3    0  503 -0.21220134754E+02 -0.74377014181E+02  0.15802174960E+03  0.17599772074E+03  0.47000000000E+01 0.  1.
         13    1    4    4    0    0  0.34153157975E+02  0.33520865821E+02  0.57291968693E+02  0.74648886943E+02  0.00000000000E+00 0. -1.
        -14    1    4    4    0    0 -0.35524050708E+02  0.41000417377E+01  0.12848622648E+02  0.37998100280E+02  0.00000000000E+00 0.  1.
</event>
<event>
12    1  0.1629553E-001  0.2123401E+03  0.7818608E-02  0.1140045E+00
         21   -1    0    0  503  502  0.00000000000E+00  0.00000000000E+00  0.12963552504E+03  0.12963552504E+03  0.00000000000E+00 0. -1.
         21   -1    0    0  501  503 -0.00000000000E+00 -0.00000000000E+00 -0.66367153020E+03  0.66367153020E+03  0.00000000000E+00 0. -1.
          6    2    1    2  501    0 -0.11987529656E+03 -0.87393860023E+01 -0.54127545191E+03  0.58084358720E+03  0.17307135625E+03 0.  0.
         24    2    3    3    0    0 -0.99224780853E+02  0.58418345095E+02 -0.36616029589E+03  0.39210034225E+03  0.80069069732E+02 0.  0.
         -6    2    1    2    0  502  0.11987529656E+03  0.87393860023E+01  0.72394467518E+01  0.21246346804E+03  0.17504814215E+03 0.  0.
        -24    2    5    5    0    0  0.12015079336E+03  0.55349680548E+02  0.34035968008E+02  0.15849367087E+03  0.80386543050E+02 0.  0.
          5    1    3    3  501    0 -0.20650515707E+02 -0.67157731097E+02 -0.17511515602E+03  0.18874324495E+03  0.47000000000E+01 0. -1.
        -11    1    4    4    0    0 -0.10643493981E+02  0.47414775493E+02 -0.16539212992E+03  0.17238329832E+03  0.00000000000E+00 0.  1.
         12    1    4    4    0    0 -0.88581286872E+02  0.11003569601E+02 -0.20076816597E+03  0.21971704393E+03  0.00000000000E+00 0. -1.
         -5    1    5    5    0  502 -0.27549680297E+00 -0.46610294546E+02 -0.26796521256E+02  0.53969797179E+02  0.47000000000E+01 0. -1.
         11    1    6    6    0    0  0.18105315106E+02  0.43393609442E+02 -0.76091569276E+01  0.47630946291E+02  0.00000000000E+00 0. -1.
        -12    1    6    6    0    0  0.10204547826E+03  0.11956071106E+02  0.41645124935E+02  0.11086272457E+03  0.00000000000E+00 0.  1.
</event>
<event>
12    1  0.1629553E-001  0.1734471E+03  0.7818608E-02  0.1174319E+00
         21   -1    0    0  503  502  0.00000000000E+00  0.00000000000E+00  0.12292750252E+04  0.12292750252E+04  0.00000000000E+00 0.  1.
         21   -1    0    0  501  503 -0.00000000000E+00 -0.00000000000E+00 -0.47450645230E+02  0.47450645230E+02  0.00000000000E+00 0.  1.
          6    2    1    2  501    0  0.16744121423E+02 -0.33591412310E+01  0.14652462952E+03  0.22699738373E+03  0.17253027483E+03 0.  0.
         24    2    3    3    0    0  0.70169689956E+02  0.12469781302E+02  0.59304293482E+02  0.12339080489E+03  0.81418736612E+02 0.  0.
         -6    2    1    2    0  502 -0.16744121423E+02  0.33591412310E+01  0.10352997505E+04  0.10497282867E+04  0.17260432547E+03 0.  0.
        -24    2    5    5    0    0 -0.48320389706E+02  0.21028926475E+02  0.97144432081E+03  0.97618314462E+03  0.80326755129E+02 0.  0.
          5    1    3    3  501    0 -0.53425568533E+02 -0.15828922533E+02  0.87220336036E+02  0.10360657884E+03  0.47000000000E+01 0. -1.
        -13    1    4    4    0    0  0.56230296248E+02  0.23880403911E+02  0.76897590894E+02  0.98210790610E+02  0.00000000000E+00 0.  1.
         14    1    4    4    0    0  0.13939393709E+02 -0.11410622609E+02 -0.17593297412E+02  0.25180014279E+02  0.00000000000E+00 0. -1.
         -5    1    5    5    0  502  0.31576268282E+02 -0.17669785244E+02  0.63855429674E+02  0.73545142111E+02  0.47000000000E+01 0.  1.
         13    1    6    6    0    0  0.19271711907E+02 -0.76977627405E+01  0.30475036884E+03  0.30545612081E+03  0.00000000000E+00 0. -1.
        -14    1    6    6    0    0 -0.67592101612E+02  0.28726689216E+02  0.66669395197E+03  0.67072702381E+03  0.00000000000E+00 0.  1.
</event>
<event>
12    1  0.1629553E-001  0.2142936E+03  0.7818608E-02  0.1138367E+00
         21   -1    0    0  501  502  0.00000000000E+00  0.00000000000E+00  0.65460605528E+03  0.65460605528E+03  0.00000000000E+00 0.  1.
         21   -1    0    0  502  503 -0.00000000000E+00 -0.00000000000E+00 -0.10210930673E+03  0.10210930673E+03  0.00000000000E+00 0. -1.
         -6    2    1    2    0  503  0.12437123164E+03 -0.31632827222E+02  0.64060877153E+02  0.22366386585E+03  0.17161844274E+03 0.  0.
        -24    2    3    3    0    0  0.10029965354E+03 -0.32167821487E+02  0.10485543041E+03  0.17606121186E+03  0.94382730398E+02 0.  0.
          6    2    1    2  501    0 -0.12437123164E+03  0.31632827222E+02  0.48843587140E+03  0.53305149617E+03  0.17060321824E+03 0.  0.
         24    2    5    5    0    0 -0.12023806453E+03  0.21633296550E+02  0.22176056923E+03  0.26611539806E+03  0.81941828975E+02 0.  0.
          5    1    5    5  501    0 -0.41331671023E+01  0.99995306712E+01  0.26667530217E+03  0.26693609811E+03  0.47000000000E+01 0. -1.
        -11    1    6    6    0    0 -0.26443936708E+02  0.23249521260E+02  0.13077121429E+03  0.13542869900E+03  0.00000000000E+00 0.  1.
         12    1    6    6    0    0 -0.93794127827E+02 -0.16162247095E+01  0.90989354941E+02  0.13068669905E+03  0.00000000000E+00 0. -1.
         -5    1    3    3    0  503  0.24071578100E+02  0.53499426522E+00 -0.40794553256E+02  0.47602653985E+02  0.47000000000E+01 0.  1.
         13    1    4    4    0    0  0.89772772485E+02 -0.15810171914E+02  0.25925209829E+02  0.94769344834E+02  0.00000000000E+00 0. -1.
        -14    1    4    4    0    0  0.10526881052E+02 -0.16357649573E+02  0.78930220579E+02  0.81291867028E+02  0.00000000000E+00 0.  1.
</event>
<event>
12    1  0.1629553E-001  0.2445822E+03  0.7818608E-02  0.1116948E+00
         21   -1    0    0  501  502  0.00000000000E+00  0.00000000000E+00  0.17885027783E+03  0.17885027783E+03  0.00000000000E+00 0. -1.
         21   -1    0    0  502  503 -0.00000000000E+00 -0.00000000000E+00 -0.46536671133E+03  0.46536671133E+03  0.00000000000E+00 0.  1.
         -6    2    1    2    0  503 -0.16861931941E+03  0.38890361738E+02 -0.31480087053E+03  0.39800474040E+03  0.17135708384E+03 0.  0.
        -24    2    3    3    0    0 -0.13679603693E+03  0.33349210045E+02 -0.12107842698E+03  0.20155143601E+03  0.78343285283E+02 0.  0.
          6    2    1    2  501    0  0.16861931941E+03 -0.38890361738E+02  0.28284437027E+02  0.24621224877E+03  0.17284538453E+03 0.  0.
         24    2    5    5    0    0  0.34521665813E+02  0.30518481542E+02  0.26405081352E+02  0.95131508095E+02  0.78928146975E+02 0.  0.
          5    1    5    5  501    0  0.13409765359E+03 -0.69408843280E+02  0.18793556750E+01  0.15108074067E+03  0.47000000000E+01 0. -1.
        -13    1    6    6    0    0  0.17581480217E+02 -0.23608263369E+02 -0.56660930060E+01  0.29976043032E+02  0.00000000000E+00 0.  1.
         14    1    6    6    0    0  0.16940185596E+02  0.54126744912E+02  0.32071174358E+02  0.65155465062E+02  0.00000000000E+00 0. -1.
         -5    1    3    3    0  503 -0.31823282476E+02  0.55411516930E+01 -0.19372244355E+03  0.19645330438E+03  0.47000000000E+01 0.  1.
         13    1    4    4    0    0 -0.48778548325E+01  0.27274045485E+02 -0.11689223418E+02  0.30071663888E+02  0.00000000000E+00 0. -1.
        -14    1    4    4    0    0 -0.13191818210E+03  0.60751645600E+01 -0.10938920356E+03  0.17147977213E+03  0.00000000000E+00 0.  1.
</event>
<event>
12    1  0.1629553E-001  0.1905484E+03  0.7818608E-02  0.1158478E+00
         21   -1    0    0  503  502  0.00000000000E+00  0.00000000000E+00  0.33278576975E+03  0.33278576975E+03  0.00000000000E+00 0. -1.
         21   -1    0    0  501  503 -0.00000000000E+00 -0.00000000000E+00 -0.15917997862E+03  0.15917997862E+03  0.00000000000E+00 0. -1.
          6    2    1    2  501    0  0.57398358444E+01  0.80809493672E+02 -0.52575163091E+02  0.19766850028E+03  0.17246903561E+03 0.  0.
         24    2    3    3    0    0 -0.17136589745E+02  0.27835011657E+02  0.35620306403E+02  0.92168938990E+02  0.78472010961E+02 0.  0.
         -6    2    1    2    0  502 -0.57398358444E+01 -0.80809493672E+02  0.22618095422E+03  0.29429724809E+03  0.16997036859E+03 0.  0.
        -24    2    5    5    0    0  0.10083173159E+02 -0.23420719782E+01  0.18986799187E+03  0.20627324502E+03  0.79947742886E+02 0.  0.
          5    1    3    3  501    0  0.22876425589E+02  0.52974482016E+02 -0.88195469494E+02  0.10549956129E+03  0.47000000000E+01 0. -1.
        -13    1    4    4    0    0 -0.14920256564E+02  0.43233710934E+02  0.52221135774E+02  0.69417683904E+02  0.00000000000E+00 0.  1.
         14    1    4    4    0    0 -0.22163331814E+01 -0.15398699277E+02 -0.16600829371E+02  0.22751255086E+02  0.00000000000E+00 0. -1.
         -5    1    5    5    0  502 -0.15823009003E+02 -0.78467421694E+02  0.36312962346E+02  0.88024003065E+02  0.47000000000E+01 0.  1.
         13    1    6    6    0    0  0.11837401506E+02 -0.22914352872E+02  0.18255738488E+03  0.18437025361E+03  0.00000000000E+00 0. -1.
        -14    1    6    6    0    0 -0.17542283469E+01  0.20572280894E+02  0.73106069940E+01  0.21902991414E+02  0.00000000000E+00 0.  1.
</event>
<event>
12    1  0.1629553E-001  0.1824531E+03  0.7818608E-02  0.1165665E+00
         21   -1    0    0  501  502  0.00000000000E+00  0.00000000000E+00  0.16775636077E+03  0.16775636077E+03  0.00000000000E+00 0.  1.
         21   -1    0    0  502  503 -0.00000000000E+00 -0.00000000000E+00 -0.24253302592E+03  0.24253302592E+03  0.00000000000E+00 0.  1.
         -6    2    1    2    0  503 -0.51177499197E+02  0.11199759617E+02 -0.12575432184E+03  0.22084847056E+03  0.17382556327E+03 0.  0.
        -24    2    3    3    0    0  0.36132359794E+02  0.92875443984E+01 -0.88868177123E+02  0.12593089728E+03  0.81050799378E+02 0.  0.
          6    2    1    2  501    0  0.51177499197E+02 -0.11199759617E+02  0.50977656689E+02  0.18944091614E+03  0.17477004373E+03 0.  0.
         24    2    5    5    0    0  0.60131000239E+02  0.26747084675E+02  0.88196732061E+02  0.13533474510E+03  0.78776176326E+02 0.  0.
          5    1    5    5  501    0 -0.89535010425E+01 -0.37946844293E+02 -0.37219075372E+02  0.54106171037E+02  0.47000000000E+01 0. -1.
        -11    1    6    6    0    0 -0.78154594576E+01  0.27513357535E+02  0.49415539935E+02  0.57096075491E+02  0.00000000000E+00 0.  1.
         12    1    6    6    0    0  0.67946459697E+02 -0.76627285984E+00  0.38781192125E+02  0.78238669609E+02  0.00000000000E+00 0. -1.
         -5    1    3    3    0  503 -0.87309858991E+02  0.19122152189E+01 -0.36886144717E+02  0.94917573274E+02  0.47000000000E+01 0.  1.
         11    1    4    4    0    0  0.35240291481E+02 -0.86354992622E+00  0.12163521991E+01  0.35271849609E+02  0.00000000000E+00 0. -1.
        -12    1    4    4    0    0  0.89206831318E+00  0.10151094325E+02 -0.90084529322E+02  0.90659047673E+02  0.00000000000E+00 0.  1.
</event>
<event>
12    1  0.1629553E-001  0.1905054E+03  0.7818608E-02  0.1158326E+00
         21   -1    0    0  503  502  0.00000000000E+00  0.00000000000E+00  0.49049193486E+03  0.49049193486E+03  0.00000000000E+00 0. -1.
         21   -1    0    0  501  503 -0.00000000000E+00 -0.00000000000E+00 -0.12703512644E+03  0.12703512644E+03  0.00000000000E+00 0. -1.
          6    2    1    2  501    0 -0.46928016869E+02 -0.63372443273E+02 -0.19211110907E+02  0.19006122294E+03  0.17186010692E+03 0.  0.
         24    2    3    3    0    0  0.21999165444E+02  0.17463595616E+01  0.23396645235E+02  0.85999098092E+02  0.79758565762E+02 0.  0.
         -6    2    1    2    0  502  0.46928016869E+02  0.63372443273E+02  0.38266791932E+03  0.42746583836E+03  0.17341857212E+03 0.  0.
        -24    2    5    5    0    0 -0.39884366844E+01  0.72612439802E+02  0.14964140827E+03  0.18871637212E+03  0.89066514450E+02 0.  0.
          5    1    3    3  501    0 -0.68927182313E+02 -0.65118802834E+02 -0.42607756143E+02  0.10406212485E+03  0.47000000000E+01 0. -1.
        -13    1    4    4    0    0 -0.20449985965E+02  0.26532206956E+02  0.74012924753E+01  0.34306545472E+02  0.00000000000E+00 0.  1.
         14    1    4    4    0    0  0.42449151409E+02 -0.24785847395E+02  0.15995352760E+02  0.51692552619E+02  0.00000000000E+00 0. -1.
         -5    1    5    5    0  502  0.50916453553E+02 -0.92399965293E+01  0.23302651105E+03  0.23874946624E+03  0.47000000000E+01 0.  1.
         13    1    6    6    0    0 -0.16649931933E+02  0.88060997214E+02  0.14073103503E+03  0.16684478920E+03  0.00000000000E+00 0. -1.
        -14    1    6    6    0    0  0.12661495249E+02 -0.15448557413E+02  0.89103732413E+01  0.21871582919E+02  0.00000000000E+00 0.  1.
</event>
<event>
12    1  0.1629553E-001  0.2388657E+03  0.7818608E-02  0.1121006E+00
         21   -1    0    0  503  502  0.00000000000E+00  0.00000000000E+00  0.41190147514E+02  0.41190147514E+02  0.00000000000E+00 0.  1.
         21   -1    0    0  501  503 -0.00000000000E+00 -0.00000000000E+00 -0.14498312270E+04  0.14498312270E+04  0.00000000000E+00 0.  1.
          6    2    1    2  501    0  0.69345521011E+02  0.14878535548E+03 -0.52516325788E+03  0.57582200785E+03  0.16979002919E+03 0.  0.
         24    2    3    3    0    0  0.93027003004E+02  0.13252370978E+03 -0.32206933828E+03  0.37065260495E+03  0.86244640150E+02 0.  0.
         -6    2    1    2    0  502 -0.69345521011E+02 -0.14878535548E+03 -0.88347782165E+03  0.91519936671E+03  0.17352503040E+03 0.  0.
        -24    2    5    5    0    0  0.41772806743E+00 -0.13478208223E+03 -0.46925141748E+03  0.49487971871E+03  0.80886704642E+02 0.  0.
          5    1    3    3  501    0 -0.23681481993E+02  0.16261645704E+02 -0.20309391959E+03  0.20516940290E+03  0.47000000000E+01 0. -1.
        -13    1    4    4    0    0  0.34854004227E+02  0.41640342063E+02 -0.20221754175E+03  0.20938159873E+03  0.00000000000E+00 0.  1.
         14    1    4    4    0    0  0.58172998777E+02  0.90883367716E+02 -0.11985179653E+03  0.16127100622E+03  0.00000000000E+00 0. -1.
         -5    1    5    5    0  502 -0.69763249078E+02 -0.14003273249E+02 -0.41422640417E+03  0.42031964800E+03  0.47000000000E+01 0.  1.
         11    1    6    6    0    0  0.14564946285E+02 -0.10575090591E+03 -0.43457524381E+03  0.44749417236E+03  0.00000000000E+00 0. -1.
        -12    1    6    6    0    0 -0.14147218218E+02 -0.29031176326E+02 -0.34676173674E+02  0.47385546349E+02  0.00000000000E+00 0.  1.
</event>
<event>
12    1  0.1629553E-001  0.1962376E+03  0.7818608E-02  0.1153251E+00
         21   -1    0    0  501  502  0.00000000000E+00  0.00000000000E+00  0.15393874701E+04  0.15393874701E+04  0.00000000000E+00 0.  1.
         21   -1    0    0  502  503 -0.00000000000E+00 -0.00000000000E+00 -0.26576967035E+02  0.26576967035E+02  0.00000000000E+00 0. -1.
         -6    2    1    2    0  503  0.22170074733E+02 -0.89645513477E+02  0.95402744070E+03  0.97372488516E+03  0.17159243598E+03 0.  0.
        -24    2    3    3    0    0 -0.41331032933E+02 -0.58532397367E+02  0.75019033470E+03  0.75791924935E+03  0.80757380028E+02 0.  0.
          6    2    1    2  501    0 -0.22170074733E+02  0.89645513477E+02  0.55878306237E+03  0.59223955198E+03  0.17315122243E+03 0.  0.
         24    2    5    5    0    0 -0.31387574355E+02  0.49727513951E+02  0.11310685020E+03  0.14465963164E+03  0.68375755923E+02 0.  0.
          5    1    5    5  501    0  0.92174996216E+01  0.39917999526E+02  0.44567621218E+03  0.44757992033E+03  0.47000000000E+01 0. -1.
        -13    1    6    6    0    0  0.12387642576E+02 -0.64223839361E+01  0.41071252764E+02  0.43376819935E+02  0.00000000000E+00 0.  1.
         14    1    6    6    0    0 -0.43775216931E+02  0.56149897887E+02  0.72035597431E+02  0.10128281171E+03  0.00000000000E+00 0. -1.
         -5    1    3    3    0  503  0.63501107666E+02 -0.31113116110E+02  0.20383710599E+03  0.21580563581E+03  0.47000000000E+01 0.  1.
         11    1    4    4    0    0 -0.20228877927E+02  0.74028540878E+01  0.51721269523E+02  0.56027667022E+02  0.00000000000E+00 0. -1.
        -12    1    4    4    0    0 -0.21102155007E+02 -0.65935251455E+02  0.69846906518E+03  0.70189158233E+03  0.00000000000E+00 0.  1.
</event>
<event>
12    1  0.1629553E-001  0.1860603E+03  0.7818608E-02  0.1162940E+00
         21   -1    0    0  503  502  0.00000000000E+00  0.00000000000E+00  0.79585989718E+02  0.79585989718E+02  0.00000000000E+00 0. -1.
         21   -1    0    0  501  503 -0.00000000000E+00 -0.00000000000E+00 -0.57727960227E+03  0.57727960227E+03  0.00000000000E+00 0. -1.
          6    2    1    2  501    0  0.65673415463E+02  0.30766799539E+02 -0.41868418511E+03  0.45816468787E+03  0.17134421759E+03 0.  0.
         24    2    3    3    0    0 -0.20074878105E+02  0.51306159748E+02 -0.21687315361E+03  0.23788210209E+03  0.80737890587E+02 0.  0.
         -6    2    1    2    0  502 -0.65673415463E+02 -0.30766799539E+02 -0.79009427441E+02  0.19870090411E+03  0.16727213222E+03 0.  0.
        -24    2    5    5    0    0 -0.10579876322E+03 -0.18182442932E+02 -0.48393581260E+02  0.14647227594E+03  0.87110328784E+02 0.  0.
          5    1    3    3  501    0  0.85748293568E+02 -0.20539360209E+02 -0.20181103150E+03  0.22028258579E+03  0.47000000000E+01 0. -1.
        -11    1    4    4    0    0 -0.65148801533E+01  0.66780245751E+02 -0.10848164896E+03  0.12755513728E+03  0.00000000000E+00 0.  1.
         12    1    4    4    0    0 -0.13559997951E+02 -0.15474086003E+02 -0.10839150465E+03  0.11032696481E+03  0.00000000000E+00 0. -1.
         -5    1    5    5    0  502  0.40125347756E+02 -0.12584356607E+02 -0.30615846182E+02  0.52228628176E+02  0.47000000000E+01 0.  1.
         13    1    6    6    0    0 -0.39111210781E+02 -0.89067054537E+01 -0.65678915593E+02  0.76959314993E+02  0.00000000000E+00 0. -1.
        -14    1    6    6    0    0 -0.66687552438E+02 -0.92757374787E+01  0.17285334333E+02  0.69512960942E+02  0.00000000000E+00 0.  1.
</event>
<event>
12    1  0.1629553E-001  0.1886666E+03  0.7818608E-02  0.1159864E+00
         21   -1    0    0  503  502  0.00000000000E+00  0.00000000000E+00  0.96958109068E+03  0.96958109068E+03  0.00000000000E+00 0. -1.
         21   -1    0    0  501  503 -0.00000000000E+00 -0.00000000000E+00 -0.40218929331E+02  0.40218929331E+02  0.00000000000E+00 0. -1.
          6    2    1    2  501    0  0.29638146219E+02  0.71621419989E+02  0.31306360326E+03  0.36551869639E+03  0.17200886666E+03 0.  0.
         24    2    3    3    0    0 -0.34944609937E+02  0.44434293567E+02  0.95062642744E+02  0.13648467922E+03  0.79972679128E+02 0.  0.
         -6    2    1    2    0  502 -0.29638146219E+02 -0.71621419989E+02  0.61629855808E+03  0.64428132362E+03  0.17107443922E+03 0.  0.
        -24    2    5    5    0    0  0.35437830790E+02  0.17390436404E+01  0.23877427605E+03  0.25420016036E+03  0.79659917759E+02 0.  0.
          5    1    3    3  501    0  0.64582756157E+02  0.27187126422E+02  0.21800096052E+03  0.22903401717E+03  0.47000000000E+01 0. -1.
        -13    1    4    4    0    0  0.72505302408E+01  0.21892354729E+01 -0.11829830814E+02  0.14046630835E+02  0.00000000000E+00 0.  1.
         14    1    4    4    0    0 -0.42195140178E+02  0.42245058094E+02  0.10689247356E+03  0.12243804838E+03  0.00000000000E+00 0. -1.
         -5    1    5    5    0  502 -0.65075977010E+02 -0.73360463629E+02  0.37752428203E+03  0.39008116326E+03  0.47000000000E+01 0.  1.
         11    1    6    6    0    0  0.81010407059E+01 -0.85596630425E+01  0.21808540172E+03  0.21840361062E+03  0.00000000000E+00 0. -1.
        -12    1    6    6    0    0  0.27336790084E+02  0.10298706683E+02  0.20688874335E+02  0.35796549732E+02  0.00000000000E+00 0.  1.
</event>
<event>
12    1  0.1629553E-001  0.1892980E+03  0.7818608E-02  0.1159254E+00
         21   -1    0    0  501  502  0.00000000000E+00  0.00000000000E+00  0.33473382390E+03  0.33473382390E+03  0.00000000000E+00 0.  1.
         21   -1    0    0  502  503 -0.00000000000E+00 -0.00000000000E+00 -0.13729887306E+03  0.13729887306E+03  0.00000000000E+00 0.  1.
         -6    2    1    2    0  503  0.37043799796E+02  0.70255165935E+02 -0.12638454413E+02  0.18971941944E+03  0.17183042845E+03 0.  0.
        -24    2    3    3    0    0  0.79113091721E+02  0.65913430238E+01 -0.10616620026E+02  0.11324010535E+03  0.80051744226E+02 0.  0.
          6    2    1    2  501    0 -0.37043799796E+02 -0.70255165935E+02  0.21007340525E+03  0.28231327752E+03  0.17106115756E+03 0.  0.
         24    2    5    5    0    0  0.39818940109E+02 -0.56009601043E+02  0.90095665344E+02  0.13903883815E+03  0.80572614445E+02 0.  0.
          5    1    5    5  501    0 -0.76862739905E+02 -0.14245564892E+02  0.11997773991E+03  0.14327443937E+03  0.47000000000E+01 0. -1.
        -13    1    6    6    0    0 -0.59850871570E+01 -0.37943994516E+02  0.80045862788E+02  0.88785742873E+02  0.00000000000E+00 0.  1.
         14    1    6    6    0    0  0.45804027266E+02 -0.18065606527E+02  0.10049802556E+02  0.50253095272E+02  0.00000000000E+00 0. -1.
         -5    1    3    3    0  503 -0.42069291925E+02  0.63663822911E+02 -0.20218343865E+01  0.76479314098E+02  0.47000000000E+01 0.  1.
         13    1    4    4    0    0 -0.43153474514E+01  0.13359667558E+02 -0.24651581360E+02  0.28369057165E+02  0.00000000000E+00 0. -1.
        -14    1    4    4    0    0  0.83428439172E+02 -0.67683245341E+01  0.14034961334E+02  0.84871048181E+02  0.00000000000E+00 0.  1.
</event>
<event>
12    1  0.1629553E-001  0.2648520E+03  0.7818608E-02  0.1107095E+00
         21   -1    0    0  501  502  0.00000000000E+00  0.00000000000E+00  0.10175258115E+03  0.10175258115E+03  0.00000000000E+00 0. -1.
         21   -1    0    0  502  503 -0.00000000000E+00 -0.00000000000E+00 -0.86690492325E+03  0.86690492325E+03  0.00000000000E+00 0.  1.
         -6    2    1    2    0  503  0.15853918497E+03  0.86183209996E+02 -0.63951401706E+03  0.69218837469E+03  0.19386683361E+03 0.  0.
        -24    2    3    3    0    0  0.12662198070E+03 -0.14341210963E+02 -0.28414976004E+03  0.32147323835E+03  0.79781956091E+02 0.  0.
          6    2    1    2  501    0 -0.15853918497E+03 -0.86183209996E+02 -0.12563832504E+03  0.27646912971E+03  0.16759466611E+03 0.  0.
         24    2    5    5    0    0 -0.33080692744E+02 -0.12747009207E+02 -0.92829892831E+02  0.12736784842E+03  0.79676604677E+02 0.  0.
          5    1    5    5  501    0 -0.12545849223E+03 -0.73436200789E+02 -0.32808432205E+02  0.14910128129E+03  0.47000000000E+01 0. -1.
        -13    1    6    6    0    0  0.46650347378E+01 -0.36373155615E+02 -0.65651221501E+02  0.75198749212E+02  0.00000000000E+00 0.  1.
         14    1    6    6    0    0 -0.37745727482E+02  0.23626146408E+02 -0.27178671330E+02  0.52169099211E+02  0.00000000000E+00 0. -1.
         -5    1    3    3    0  503  0.31917204274E+02  0.10052442096E+03 -0.35536425703E+03  0.37071513634E+03  0.47000000000E+01 0.  1.
         11    1    4    4    0    0  0.13195908326E+03  0.26923916322E+01 -0.25817201892E+03  0.28995385836E+03  0.00000000000E+00 0. -1.
        -12    1    4    4    0    0 -0.53371025602E+01 -0.17033602595E+02 -0.25977741118E+02  0.31519379986E+02  0.00000000000E+00 0.  1.
</event>
<event>
12    1  0.1629553E-001  0.2278465E+03  0.7818608E-02  0.1128264E+00
         21   -1    0    0  503  502  0.00000000000E+00  0.00000000000E+00  0.16496210081E+04  0.16496210081E+04  0.00000000000E+00 0.  1.
         21   -1    0    0  501  503 -0.00000000000E+00 -0.00000000000E+00 -0.32370220886E+02  0.32370220886E+02  0.00000000000E+00 0. -1.
          6    2    1    2  501    0 -0.50452750040E+02 -0.13919248494E+03  0.95564298775E+03  0.98242941546E+03  0.17318778381E+03 0.  0.
         24    2    3    3    0    0 -0.74632053132E+02 -0.28853534042E+02  0.52297189948E+03  0.53523182668E+03  0.81061895240E+02 0.  0.
         -6    2    1    2    0  502  0.50452750040E+02  0.13919248494E+03  0.66160779943E+03  0.69956181350E+03  0.17245817692E+03 0.  0.
        -24    2    5    5    0    0 -0.28323245249E+02  0.10839681129E+03  0.47452839120E+03  0.49419670952E+03  0.80629515216E+02 0.  0.
          5    1    3    3  501    0  0.24179303092E+02 -0.11033895090E+03  0.43267108827E+03  0.44719758878E+03  0.47000000000E+01 0. -1.
        -13    1    4    4    0    0  0.17576882942E+02 -0.51052254505E+01  0.69390505476E+02  0.71763865497E+02  0.00000000000E+00 0.  1.
         14    1    4    4    0    0 -0.92208936074E+02 -0.23748308591E+02  0.45358139400E+03  0.46346796118E+03  0.00000000000E+00 0. -1.
         -5    1    5    5    0  502  0.78775995289E+02  0.30795673654E+02  0.18707940822E+03  0.20536510398E+03  0.47000000000E+01 0.  1.
         11    1    6    6    0    0  0.14427061584E+02  0.25202526211E+02  0.38362959363E+02  0.48114697177E+02  0.00000000000E+00 0. -1.
        -12    1    6    6    0    0 -0.42750306833E+02  0.83194285078E+02  0.43616543184E+03  0.44608201234E+03  0.00000000000E+00 0.  1.
</event>
<event>
12    1  0.1629553E-001  0.1967683E+03  0.7818608E-02  0.1152511E+00
         21   -1    0    0  503  502  0.00000000000E+00  0.00000000000E+00  0.12178183702E+04  0.12178183702E+04  0.00000000000E+00 0. -1.
         21   -1    0    0  501  503 -0.00000000000E+00 -0.00000000000E+00 -0.58793799693E+02  0.58793799693E+02  0.00000000000E+00 0.  1.
          6    2    1    2  501    0 -0.92150847860E+02  0.25040087921E+02  0.14690772446E+03  0.24555984264E+03  0.17204351789E+03 0.  0.
         24    2    3    3    0    0 -0.37789757255E+02  0.81398937773E+01  0.13981289728E+01  0.89240051467E+02  0.80420820669E+02 0.  0.
         -6    2    1    2    0  502  0.92150847860E+02 -0.25040087921E+02  0.10121168461E+04  0.10310523273E+04  0.17195815397E+03 0.  0.
        -24    2    5    5    0    0  0.67216382536E+02 -0.62563389276E+02  0.44429024449E+03  0.46142186358E+03  0.84167066500E+02 0.  0.
          5    1    3    3  501    0 -0.54361090605E+02  0.16900194144E+02  0.14550959549E+03  0.15631979118E+03  0.47000000000E+01 0. -1.
        -11    1    4    4    0    0  0.34364834971E+01  0.35963416603E+02 -0.11399696661E+02  0.37883107536E+02  0.00000000000E+00 0.  1.
         12    1    4    4    0    0 -0.41226240752E+02 -0.27823522826E+02  0.12797825634E+02  0.51356943931E+02  0.00000000000E+00 0. -1.
         -5    1    5    5    0  502  0.24934465324E+02  0.37523301355E+02  0.56782660157E+03  0.56963046368E+03  0.47000000000E+01 0.  1.
         13    1    6    6    0    0  0.83186563734E+02 -0.37146850608E+02  0.28112536238E+03  0.29551880189E+03  0.00000000000E+00 0. -1.
        -14    1    6    6    0    0 -0.15970181198E+02 -0.25416538668E+02  0.16316488212E+03  0.16590306170E+03  0.00000000000E+00 0.  1.
</event>
<event>
12    1  0.1629553E-001  0.1813581E+03  0.7818608E-02  0.1166689E+00
         21   -1    0    0  501  502  0.00000000000E+00  0.00000000000E+00  0.10653273127E+03  0.10653273127E+03  0.00000000000E+00 0. -1.
         21   -1    0    0  502  503 -0.00000000000E+00 -0.00000000000E+00 -0.33642818365E+03  0.33642818365E+03  0.00000000000E+00 0. -1.
         -6    2    1    2    0  503  0.24002869393E+02  0.44292551584E+02 -0.18027674592E+03  0.25571562000E+03  0.17422056517E+03 0.  0.
        -24    2    3    3    0    0  0.76797221704E+02  0.11653417281E-01 -0.94701454887E+02  0.14574625148E+03  0.79848549550E+02 0.  0.
          6    2    1    2  501    0 -0.24002869393E+02 -0.44292551584E+02 -0.49618706461E+02  0.18724529491E+03  0.17338055419E+03 0.  0.
         24    2    5    5    0    0  0.19642586700E+02 -0.87141940640E+02 -0.27335535746E+02  0.12197948704E+03  0.78436054936E+02 0.  0.
          5    1    5    5  501    0 -0.43645456093E+02  0.42849389056E+02 -0.22283170715E+02  0.65265807872E+02  0.47000000000E+01 0. -1.
        -13    1    6    6    0    0  0.47767265752E+02 -0.66344200447E+02 -0.29555780118E+02  0.86929907102E+02  0.00000000000E+00 0.  1.
         14    1    6    6    0    0 -0.28124679052E+02 -0.20797740193E+02  0.22202443719E+01  0.35049579940E+02  0.00000000000E+00 0. -1.
         -5    1    3    3    0  503 -0.52794352311E+02  0.44280898167E+02 -0.85575291033E+02  0.10996936852E+03  0.47000000000E+01 0.  1.
         13    1    4    4    0    0  0.37962912892E+02  0.53983566379E+01 -0.99132942742E+02  0.10629047627E+03  0.00000000000E+00 0. -1.
        -14    1    4    4    0    0  0.38834308812E+02 -0.53867032206E+01  0.44314878550E+01  0.39455775206E+02  0.00000000000E+00 0.  1.
</event>
<event>
12    1  0.1629553E-001  0.2995391E+03  0.7818608E-02  0.1085496E+00
         21   -1    0    0  501  502  0.00000000000E+00  0.00000000000E+00  0.21567210955E+04  0.21567210955E+04  0.00000000000E+00 0.  1.
         21   -1    0    0  502  503 -0.00000000000E+00 -0.00000000000E+00 -0.20499198074E+03  0.20499198074E+03  0.00000000000E+00 0.  1.
         -6    2    1    2    0  503 -0.19742270510E+03 -0.14473699827E+03 -0.78403462447E+02  0.30963009551E+03  0.17262436087E+03 0.  0.
        -24    2    3    3    0    0 -0.92809148940E+02 -0.43416021944E+02  0.22312586404E+02  0.13249808578E+03  0.80990136032E+02 0.  0.
          6    2    1    2  501    0  0.19742270510E+03  0.14473699827E+03  0.20301325772E+04  0.20520829807E+04  0.17228393880E+03 0.  0.
         24    2    5    5    0    0  0.13929312649E+03  0.10697111528E+03  0.18303480590E+04  0.18405616969E+04  0.81534950233E+02 0.  0.
          5    1    5    5  501    0  0.58129578615E+02  0.37765882991E+02  0.19978451812E+03  0.21152128382E+03  0.47000000000E+01 0. -1.
        -13    1    6    6    0    0  0.33752439225E+02  0.75902386155E+02  0.85646433118E+03  0.86048332347E+03  0.00000000000E+00 0.  1.
         14    1    6    6    0    0  0.10554068726E+03  0.31068729123E+02  0.97388372786E+03  0.98007837339E+03  0.00000000000E+00 0. -1.
         -5    1    3    3    0  503 -0.10461355616E+03 -0.10132097633E+03 -0.10071604885E+03  0.17713200974E+03  0.47000000000E+01 0.  1.
         13    1    4    4    0    0  0.80491462142E+01 -0.10854300676E+02  0.22810454737E+02  0.26512665714E+02  0.00000000000E+00 0. -1.
        -14    1    4    4    0    0 -0.10085829515E+03 -0.32561721268E+02 -0.49786833352E+00  0.10598542006E+03  0.00000000000E+00 0.  1.
</event>
<event>
12    1  0.1629553E-001  0.2066669E+03  0.7818608E-02  0.1144236E+00
         21   -1    0    0  503  502  0.00000000000E+00  0.00000000000E+00  0.42905823127E+03  0.42905823127E+03  0.00000000000E+00 0.  1.
         21   -1    0    0  501  503 -0.00000000000E+00 -0.00000000000E+00 -0.10033602976E+03  0.10033602976E+03  0.00000000000E+00 0. -1.
          6    2    1    2  501    0 -0.30921114170E+02 -0.10963076922E+03  0.14075256358E+03  0.25003107982E+03  0.17242168037E+03 0.  0.
         24    2    3    3    0    0  0.17167669593E+02 -0.84907561827E+01  0.19533521405E+02  0.84931172051E+02  0.80404749285E+02 0.  0.
         -6    2    1    2    0  502  0.30921114170E+02  0.10963076922E+03  0.18796963793E+03  0.27936318121E+03  0.17244182025E+03 0.  0.
        -24    2    5    5    0    0  0.33915387047E+02  0.72136517929E+02  0.32192883865E+02  0.11904078210E+03  0.82343155962E+02 0.  0.
          5    1    3    3  501    0 -0.48088783763E+02 -0.10114001303E+03  0.12121904217E+03  0.16509990777E+03  0.47000000000E+01 0. -1.
        -11    1    4    4    0    0 -0.19792296035E+01 -0.24113846701E+02  0.43963775337E+02  0.50181754597E+02  0.00000000000E+00 0.  1.
         12    1    4    4    0    0  0.19146899197E+02  0.15623090519E+02 -0.24430253932E+02  0.34749417454E+02  0.00000000000E+00 0. -1.
         -5    1    5    5    0  502 -0.29942728775E+01  0.37494251286E+02  0.15577675406E+03  0.16032239911E+03  0.47000000000E+01 0.  1.
         13    1    6    6    0    0 -0.17670503145E+00  0.77694288192E+02  0.10879898021E+02  0.78452570533E+02  0.00000000000E+00 0. -1.
        -14    1    6    6    0    0  0.34092092078E+02 -0.55577702622E+01  0.21312985845E+02  0.40588211567E+02  0.00000000000E+00 0.  1.
</event>
<event>
12    1  0.1629553E-001  0.1954968E+03  0.7818608E-02  0.1153884E+00
         21   -1    0    0  501  502  0.00000000000E+00  0.00000000000E+00  0.45757938089E+02  0.45757938089E+02  0.00000000000E+00 0.  1.
         21   -1    0    0  502  503 -0.00000000000E+00 -0.00000000000E+00 -0.85244074900E+03  0.85244074900E+03  0.00000000000E+00 0.  1.
         -6    2    1    2    0  503  0.38156345843E+02  0.81702083679E+02 -0.47552859220E+03  0.51364425578E+03  0.17196465420E+03 0.  0.
        -24    2    3    3    0    0  0.43288450976E+02  0.68577623611E+02 -0.48350295131E+03  0.49678393673E+03  0.80264534018E+02 0.  0.
          6    2    1    2  501    0 -0.38156345843E+02 -0.81702083679E+02 -0.33115421872E+03  0.38455443131E+03  0.17345851625E+03 0.  0.
         24    2    5    5    0    0 -0.43196232259E+02 -0.11911780728E+03 -0.30131216584E+03  0.33620182076E+03  0.78661785544E+02 0.  0.
          5    1    5    5  501    0  0.50398864161E+01  0.37415723599E+02 -0.29842052879E+02  0.48352610556E+02  0.47000000000E+01 0. -1.
        -13    1    6    6    0    0 -0.45946842637E+02 -0.20997041430E+02 -0.90134831787E+02  0.10332606640E+03  0.00000000000E+00 0.  1.
         14    1    6    6    0    0  0.27506103780E+01 -0.98120765848E+02 -0.21117733405E+03  0.23287575435E+03  0.00000000000E+00 0. -1.
         -5    1    3    3    0  503 -0.51321051335E+01  0.13124460068E+02  0.79743591128E+01  0.16860319049E+02  0.47000000000E+01 0.  1.
         11    1    4    4    0    0 -0.17404171251E+02  0.35104365036E+01 -0.16918983712E+03  0.17011886822E+03  0.00000000000E+00 0. -1.
        -12    1    4    4    0    0  0.60692622227E+02  0.65067187108E+02 -0.31431311419E+03  0.32666506851E+03  0.00000000000E+00 0.  1.
</event>
<event>
12    1  0.1629553E-001  0.2247231E+03  0.7818608E-02  0.1130492E+00
         21   -1    0    0  501  502  0.00000000000E+00  0.00000000000E+00  0.88587066541E+03  0.88587066541E+03  0.00000000000E+00 0. -1.
         21   -1    0    0  502  503 -0.00000000000E+00 -0.00000000000E+00 -0.12408947114E+03  0.12408947114E+03  0.00000000000E+00 0. -1.
         -6    2    1    2    0  503 -0.13948887555E+03 -0.36224419925E+02  0.94598998868E+01  0.22492212852E+03  0.17242714169E+03 0.  0.
        -24    2    3    3    0    0 -0.13951098290E+03 -0.73459136897E+02  0.30736671212E+02  0.18178032009E+03  0.85086912468E+02 0.  0.
          6    2    1    2  501    0  0.13948887555E+03  0.36224419925E+02  0.75232129438E+03  0.78503800802E+03  0.17183710036E+03 0.  0.
         24    2    5    5    0    0  0.40702310538E+02  0.38946223895E+02  0.17895542922E+03  0.20319894181E+03  0.78046639036E+02 0.  0.
          5    1    5    5  501    0  0.98786565012E+02 -0.27218039695E+01  0.57336586516E+03  0.58183906622E+03  0.47000000000E+01 0. -1.
        -11    1    6    6    0    0  0.51544062895E+02  0.16771925510E+02  0.56561155206E+02  0.78340616434E+02  0.00000000000E+00 0.  1.
         12    1    6    6    0    0 -0.10841752358E+02  0.22174298385E+02  0.12239427402E+03  0.12485832537E+03  0.00000000000E+00 0. -1.
         -5    1    3    3    0  503  0.22107347598E-01  0.37234716972E+02 -0.21276771325E+02  0.43141808431E+02  0.47000000000E+01 0.  1.
         11    1    4    4    0    0 -0.12862841944E+02  0.18565060944E+02  0.49111308200E+01  0.23113489496E+02  0.00000000000E+00 0. -1.
        -12    1    4    4    0    0 -0.12664814095E+03 -0.92024197841E+02  0.25825540392E+02  0.15866683060E+03  0.00000000000E+00 0.  1.
</event>
<event>
12    1  0.1629553E-001  0.2161967E+03  0.7818608E-02  0.1136757E+00
         21   -1    0    0  503  502  0.00000000000E+00  0.00000000000E+00  0.24756046727E+03  0.24756046727E+03  0.00000000000E+00 0. -1.
         21   -1    0    0  501  503 -0.00000000000E+00 -0.00000000000E+00 -0.22778589364E+03  0.22778589364E+03  0.00000000000E+00 0. -1.
          6    2    1    2  501    0 -0.25822099901E+02 -0.12844572515E+03  0.10824206256E+03  0.24174945532E+03  0.17193420221E+03 0.  0.
         24    2    3    3    0    0 -0.92000800995E+01 -0.73089647311E+02 -0.11693684500E+02  0.10853061162E+03  0.78837893063E+02 0.  0.
         -6    2    1    2    0  502  0.25822099901E+02  0.12844572515E+03 -0.88467488921E+02  0.23359690559E+03  0.17197654652E+03 0.  0.
        -24    2    5    5    0    0  0.79914773835E+02  0.70863881929E+02 -0.75742644270E+02  0.15343645578E+03  0.79985854770E+02 0.  0.
          5    1    3    3  501    0 -0.16622019802E+02 -0.55356077841E+02  0.11993574706E+03  0.13321884371E+03  0.47000000000E+01 0. -1.
        -13    1    4    4    0    0  0.33332502872E+02 -0.17190917213E+02 -0.68383327352E+01  0.38122777665E+02  0.00000000000E+00 0.  1.
         14    1    4    4    0    0 -0.42532582971E+02 -0.55898730098E+02 -0.48553517645E+01  0.70407833950E+02  0.00000000000E+00 0. -1.
         -5    1    5    5    0  502 -0.54092673933E+02  0.57581843223E+02 -0.12724844650E+02  0.80160449809E+02  0.47000000000E+01 0.  1.
         11    1    6    6    0    0  0.62431399535E+02  0.86122751073E+02 -0.46462619487E+02  0.11607576366E+03  0.00000000000E+00 0. -1.
        -12    1    6    6    0    0  0.17483374300E+02 -0.15258869144E+02 -0.29280024784E+02  0.37360692121E+02  0.00000000000E+00 0.  1.
</event>
<event>
12    1  0.1629553E-001  0.1762941E+03  0.7818608E-02  0.1171603E+00
         21   -1    0    0  501  502  0.00000000000E+00  0.00000000000E+00  0.13836653683E+03  0.13836653683E+03  0.00000000000E+00 0.  1.
         21   -1    0    0  502  503 -0.00000000000E+00 -0.00000000000E+00 -0.22472314805E+03  0.22472314805E+03  0.00000000000E+00 0.  1.
         -6    2    1    2    0  503 -0.34500247565E+02  0.10492536125E+02 -0.54868516007E+02  0.18400559415E+03  0.17189282776E+03 0.  0.
        -24    2    3    3    0    0  0.44072881175E+01  0.23471662477E+02 -0.93223921899E+02  0.12765418587E+03  0.83872214882E+02 0.  0.
          6    2    1    2  501    0  0.34500247565E+02 -0.10492536125E+02 -0.31488095212E+02  0.17908409073E+03  0.17256665673E+03 0.  0.
         24    2    5    5    0    0  0.64039868057E+02  0.46525352768E+02 -0.22078034660E+02  0.11401283692E+03  0.79030210790E+02 0.  0.
          5    1    5    5  501    0 -0.29539620492E+02 -0.57017888893E+02 -0.94100605523E+01  0.65071253809E+02  0.47000000000E+01 0. -1.
        -13    1    6    6    0    0  0.38257738755E+01  0.45438963662E+02  0.86340705599E+01  0.46409946551E+02  0.00000000000E+00 0.  1.
         14    1    6    6    0    0  0.60214094182E+02  0.10863891059E+01 -0.30712105220E+02  0.67602890370E+02  0.00000000000E+00 0. -1.
         -5    1    3    3    0  503 -0.38907535682E+02 -0.12979126352E+02  0.38355405892E+02  0.56351408278E+02  0.47000000000E+01 0.  1.
         11    1    4    4    0    0  0.14155292478E+02  0.43264026181E+02 -0.17478640976E+02  0.48761164433E+02  0.00000000000E+00 0. -1.
        -12    1    4    4    0    0 -0.97480043605E+01 -0.19792363704E+02 -0.75745280923E+02  0.78893021442E+02  0.00000000000E+00 0.  1.
</event>
<event>
12    1  0.1629553E-001  0.2182055E+03  0.7818608E-02  0.1135424E+00
         21   -1    0    0  501  502  0.00000000000E+00  0.00000000000E+00  0.17550000340E+04  0.17550000340E+04  0.00000000000E+00 0.  1.
         21   -1    0    0  502  503 -0.00000000000E+00 -0.00000000000E+00 -0.30914127910E+02  0.30914127910E+02  0.00000000000E+00 0. -1.
         -6    2    1    2    0  503 -0.10286174359E+03 -0.84349263980E+02  0.54258281883E+03  0.58443041298E+03  0.17166087410E+03 0.  0.
        -24    2    3    3    0    0 -0.10327941572E+03 -0.88326481287E+02  0.27493752978E+03  0.31671398939E+03  0.79049989170E+02 0.  0.
          6    2    1    2  501    0  0.10286174359E+03  0.84349263980E+02  0.11815030873E+04  0.12014837489E+04  0.17296912184E+03 0.  0.
         24    2    5    5    0    0  0.58996972659E+02 -0.58016762927E+01  0.42127655598E+03  0.43466057568E+03  0.89115527309E+02 0.  0.
          5    1    5    5  501    0  0.43864770931E+02  0.90150940273E+02  0.76022653129E+03  0.76682317325E+03  0.47000000000E+01 0. -1.
        -13    1    6    6    0    0  0.10563286678E+02  0.25686886500E+02  0.28884343989E+03  0.29017569149E+03  0.00000000000E+00 0.  1.
         14    1    6    6    0    0  0.48433685981E+02 -0.31488562793E+02  0.13243311609E+03  0.14448488420E+03  0.00000000000E+00 0. -1.
         -5    1    3    3    0  503  0.41767212877E+00  0.39772173071E+01  0.26764528905E+03  0.26771642359E+03  0.47000000000E+01 0.  1.
         13    1    4    4    0    0 -0.90323583146E+01 -0.41228095011E+02  0.13566340275E+03  0.14207708528E+03  0.00000000000E+00 0. -1.
        -14    1    4    4    0    0 -0.94247057404E+02 -0.47098386276E+02  0.13927412703E+03  0.17463690411E+03  0.00000000000E+00 0.  1.
</event>
<event>
12    1  0.1629553E-001  0.1804857E+03  0.7818608E-02  0.1167413E+00
         21   -1    0    0  503  502  0.00000000000E+00  0.00000000000E+00  0.25532404497E+03  0.25532404497E+03  0.00000000000E+00 0. -1.
         21   -1    0    0  501  503 -0.00000000000E+00 -0.00000000000E+00 -0.14449831633E+03  0.14449831633E+03  0.00000000000E+00 0. -1.
          6    2    1    2  501    0 -0.52628718196E+01  0.53142935063E+02  0.12432268451E+03  0.21916028403E+03  0.17240426574E+03 0.  0.
         24    2    3    3    0    0 -0.47515789190E+02  0.51237414548E+02  0.21489401501E+02  0.10786916071E+03  0.79315437236E+02 0.  0.
         -6    2    1    2    0  502  0.52628718196E+01 -0.53142935063E+02 -0.13496955872E+02  0.18066207728E+03  0.17206030623E+03 0.  0.
        -24    2    5    5    0    0 -0.31885846139E+02 -0.83578173512E+02 -0.41842434437E+02  0.12469881128E+03  0.76137940242E+02 0.  0.
          5    1    3    3  501    0  0.42252917370E+02  0.19055205143E+01  0.10283328301E+03  0.11129112332E+03  0.47000000000E+01 0. -1.
        -13    1    4    4    0    0 -0.19788294495E+02 -0.20579844059E+02  0.30887142378E+01  0.28716663040E+02  0.00000000000E+00 0.  1.
         14    1    4    4    0    0 -0.27727494695E+02  0.71817258607E+02  0.18400687263E+02  0.79152497672E+02  0.00000000000E+00 0. -1.
         -5    1    5    5    0  502  0.37148717958E+02  0.30435238449E+02  0.28345478564E+02  0.55963265992E+02  0.47000000000E+01 0.  1.
         11    1    6    6    0    0  0.23453529942E+02 -0.26609855101E+02 -0.12207891333E+01  0.35491446594E+02  0.00000000000E+00 0. -1.
        -12    1    6    6    0    0 -0.55339376081E+02 -0.56968318411E+02 -0.40621645303E+02  0.89207364689E+02  0.00000000000E+00 0.  1.
</event>
<event>
12    1  0.1629553E-001  0.2398410E+03  0.7818608E-02  0.1121355E+00
         21   -1    0    0  503  502  0.00000000000E+00  0.00000000000E+00  0.27741753818E+02  0.27741753818E+02  0.00000000000E+00 0. -1.
         21   -1    0    0  501  503 -0.00000000000E+00 -0.00000000000E+00 -0.20372872364E+04  0.20372872364E+04  0.00000000000E+00 0.  1.
          6    2    1    2  501    0 -0.55528596112E+02 -0.15430050674E+03 -0.11262519906E+04  0.11497524719E+04  0.16308013060E+03 0.  0.
         24    2    3    3    0    0 -0.23285313354E+02 -0.13561207401E+02 -0.14604186142E+03  0.15895422455E+03  0.56675462500E+02 0.  0.
         -6    2    1    2    0  502  0.55528596112E+02  0.15430050674E+03 -0.88329349196E+03  0.91527651828E+03  0.17501897210E+03 0.  0.
        -24    2    5    5    0    0 -0.65915122159E+01  0.79570468289E+01 -0.32703144310E+03  0.33672239537E+03  0.79533918203E+02 0.  0.
          5    1    3    3  501    0 -0.32243282757E+02 -0.14073929934E+03 -0.98021012915E+03  0.99079824735E+03  0.47000000000E+01 0. -1.
        -13    1    4    4    0    0  0.32134844870E+01  0.11833189375E+02 -0.50455721246E+01  0.13259285478E+02  0.00000000000E+00 0.  1.
         14    1    4    4    0    0 -0.26498797841E+02 -0.25394396776E+02 -0.14099628930E+03  0.14569493907E+03  0.00000000000E+00 0. -1.
         -5    1    5    5    0  502  0.62120108328E+02  0.14634345991E+03 -0.55626204887E+03  0.57855412290E+03  0.47000000000E+01 0.  1.
         13    1    6    6    0    0  0.14962174880E+02 -0.86695105457E+01 -0.13308564296E+02  0.21820746409E+02  0.00000000000E+00 0. -1.
        -14    1    6    6    0    0 -0.21553687096E+02  0.16626557375E+02 -0.31372287880E+03  0.31490164896E+03  0.00000000000E+00 0.  1.
</event>
<event>
12    1  0.1629553E-001  0.2986905E+03  0.7818608E-02  0.1086006E+00
         21   -1    0    0  503  502  0.00000000000E+00  0.00000000000E+00  0.60804993427E+03  0.60804993427E+03  0.00000000000E+00 0.  1.
         21   -1    0    0  501  503 -0.00000000000E+00 -0.00000000000E+00 -0.14698565315E+03  0.14698565315E+03  0.00000000000E+00 0. -1.
          6    2    1    2  501    0 -0.14838471279E+03  0.19315302091E+03  0.20504837400E+03  0.36229940415E+03  0.17288698649E+03 0.  0.
         24    2    3    3    0    0 -0.15201428394E+03  0.97225522256E+02  0.10202305627E+03  0.22140382269E+03  0.77780485931E+02 0.  0.
         -6    2    1    2    0  502  0.14838471279E+03 -0.19315302091E+03  0.25601590713E+03  0.39273618326E+03  0.17138101547E+03 0.  0.
        -24    2    5    5    0    0  0.51462868400E+02 -0.14777701799E+03  0.10175437353E+03  0.20492900472E+03  0.84590014628E+02 0.  0.
          5    1    3    3  501    0  0.36295711455E+01  0.95927498651E+02  0.10302531772E+03  0.14089558146E+03  0.47000000000E+01 0. -1.
        -13    1    4    4    0    0 -0.61749596642E+02  0.39984499489E+02  0.86250754877E+02  0.11336209949E+03  0.00000000000E+00 0.  1.
         14    1    4    4    0    0 -0.90264687296E+02  0.57241022767E+02  0.15772301397E+02  0.10804172320E+03  0.00000000000E+00 0. -1.
         -5    1    5    5    0  502  0.96921844393E+02 -0.45376002917E+02  0.15426153360E+03  0.18780717854E+03  0.47000000000E+01 0.  1.
         13    1    6    6    0    0  0.45710662838E+02 -0.14686202027E+03  0.11394434209E+03  0.19141899276E+03  0.00000000000E+00 0. -1.
        -14    1    6    6    0    0  0.57522055621E+01 -0.91499771933E+00 -0.12189968563E+02  0.13510011962E+02  0.00000000000E+00 0.  1.
</event>
<event>
12    1  0.1629553E-001  0.2256235E+03  0.7818608E-02  0.1129802E+00
         21   -1    0    0  501  502  0.00000000000E+00  0.00000000000E+00  0.13880444821E+03  0.13880444821E+03  0.00000000000E+00 0. -1.
         21   -1    0    0  502  503 -0.00000000000E+00 -0.00000000000E+00 -0.45387535153E+03  0.45387535153E+03  0.00000000000E+00 0. -1.
         -6    2    1    2    0  503 -0.87926051884E+02 -0.11695585399E+03 -0.27340704522E+02  0.22703703888E+03  0.17143115387E+03 0.  0.
        -24    2    3    3    0    0 -0.10716594695E+03 -0.86650243046E+02  0.26837113315E+02  0.16187624114E+03  0.80566010128E+02 0.  0.
          6    2    1    2  501    0  0.87926051884E+02  0.11695585399E+03 -0.28773019880E+03  0.36564276086E+03  0.17174486568E+03 0.  0.
         24    2    5    5    0    0  0.85825180796E+01 -0.34631257198E+01 -0.10132173363E+03  0.12991763934E+03  0.80788900526E+02 0.  0.
          5    1    5    5  501    0  0.79343533804E+02  0.12041897971E+03 -0.18640846517E+03  0.23572512152E+03  0.47000000000E+01 0. -1.
        -11    1    6    6    0    0  0.13144728129E+02 -0.34084538372E+02 -0.89691525636E+02  0.96845802204E+02  0.00000000000E+00 0.  1.
         12    1    6    6    0    0 -0.45622100495E+01  0.30621412652E+02 -0.11630207997E+02  0.33071837134E+02  0.00000000000E+00 0. -1.
         -5    1    3    3    0  503  0.19239895063E+02 -0.30305610948E+02 -0.54177817837E+02  0.65160797744E+02  0.47000000000E+01 0.  1.
         13    1    4    4    0    0 -0.10737876043E+03 -0.51355425648E+02  0.25922016042E+01  0.11905585850E+03  0.00000000000E+00 0. -1.
        -14    1    4    4    0    0  0.21281348343E+00 -0.35294817399E+02  0.24244911711E+02  0.42820382631E+02  0.00000000000E+00 0.  1.
</event>
<event>
12    1  0.1629553E-001  0.2563577E+03  0.7818608E-02  0.1111156E+00
         21   -1    0    0  501  502  0.00000000000E+00  0.00000000000E+00  0.82183111653E+03  0.82183111653E+03  0.00000000000E+00 0.  1.
         21   -1    0    0  502  503 -0.00000000000E+00 -0.00000000000E+00 -0.16614574428E+03  0.16614574428E+03  0.00000000000E+00 0. -1.
         -6    2    1    2    0  503 -0.13848772926E+03  0.10137309806E+03 -0.38601781872E+02  0.24787288002E+03  0.17462963929E+03 0.  0.
        -24    2    3    3    0    0 -0.10091988616E+03 -0.10637827644E+01  0.93303750832E+01  0.12860746568E+03  0.79163560249E+02 0.  0.
          6    2    1    2  501    0  0.13848772926E+03 -0.10137309806E+03  0.69428715412E+03  0.74010398079E+03  0.19043081116E+03 0.  0.
         24    2    5    5    0    0  0.13588209811E+03 -0.16852885723E+02  0.55147426058E+03  0.57406763486E+03  0.81742430665E+02 0.  0.
          5    1    5    5  501    0  0.26056311528E+01 -0.84520212341E+02  0.14281289354E+03  0.16603634593E+03  0.47000000000E+01 0. -1.
        -11    1    6    6    0    0  0.67092200876E+02 -0.28683163977E+02  0.40849471590E+03  0.41496026343E+03  0.00000000000E+00 0.  1.
         12    1    6    6    0    0  0.68789897234E+02  0.11830278254E+02  0.14297954468E+03  0.15910737143E+03  0.00000000000E+00 0. -1.
         -5    1    3    3    0  503 -0.37567843098E+02  0.10243688083E+03 -0.47932156955E+02  0.11926541435E+03  0.47000000000E+01 0.  1.
         13    1    4    4    0    0 -0.33311648679E+02  0.35890271510E+02 -0.80462401033E+01  0.49623779648E+02  0.00000000000E+00 0. -1.
        -14    1    4    4    0    0 -0.67608237486E+02 -0.36954054275E+02  0.17376615187E+02  0.78983686028E+02  0.00000000000E+00 0.  1.
</event>
<event>
12    1  0.1629553E-001  0.1778464E+03  0.7818608E-02  0.1170072E+00
         21   -1    0    0  503  502  0.00000000000E+00  0.00000000000E+00  0.10208832376E+04  0.10208832376E+04  0.00000000000E+00 0.  1.
         21   -1    0    0  501  503 -0.00000000000E+00 -0.00000000000E+00 -0.39351119544E+02  0.39351119544E+02  0.00000000000E+00 0. -1.
          6    2    1    2  501    0 -0.40830356156E+02  0.64613122812E+01  0.24382328606E+03  0.30139071353E+03  0.17227217081E+03 0.  0.
         24    2    3    3    0    0 -0.89593891033E+02  0.14810844819E+02  0.20418682497E+03  0.23782392916E+03  0.81372817047E+02 0.  0.
         -6    2    1    2    0  502  0.40830356156E+02 -0.64613122812E+01  0.73770883198E+03  0.75884364360E+03  0.17297539743E+03 0.  0.
        -24    2    5    5    0    0  0.76540458838E+02 -0.40142775389E+02  0.36490909730E+03  0.38279659260E+03  0.76842031197E+02 0.  0.
          5    1    3    3  501    0  0.48763534876E+02 -0.83495325380E+01  0.39636461097E+02  0.63566784373E+02  0.47000000000E+01 0. -1.
        -11    1    4    4    0    0 -0.96509046422E+02 -0.16218747663E+01  0.13235270601E+03  0.16381045543E+03  0.00000000000E+00 0.  1.
         12    1    4    4    0    0  0.69151553892E+01  0.16432719586E+02  0.71834118958E+02  0.74013473729E+02  0.00000000000E+00 0. -1.
         -5    1    5    5    0  502 -0.35710102681E+02  0.33681463108E+02  0.37279973468E+03  0.37604705100E+03  0.47000000000E+01 0.  1.
         11    1    6    6    0    0  0.18146728218E+02  0.63945070089E+01  0.13406619785E+02  0.23450605940E+02  0.00000000000E+00 0. -1.
        -12    1    6    6    0    0  0.58393730619E+02 -0.46537282398E+02  0.35150247751E+03  0.35934598666E+03  0.00000000000E+00 0.  1.
</event>
<event>
12    1  0.1629553E-001  0.2162252E+03  0.7818608E-02  0.1136925E+00
         21   -1    0    0  501  502  0.00000000000E+00  0.00000000000E+00  0.11732180253E+03  0.11732180253E+03  0.00000000000E+00 0.  1.
         21   -1    0    0  502  503 -0.00000000000E+00 -0.00000000000E+00 -0.42138858530E+03  0.42138858530E+03  0.00000000000E+00 0. -1.
         -6    2    1    2    0  503  0.12435542249E+03  0.38578189437E+02 -0.21768252573E+03  0.30682082165E+03  0.17262904387E+03 0.  0.
        -24    2    3    3    0    0  0.21352549436E+02  0.67084356325E+02 -0.14768531889E+03  0.17897758807E+03  0.72565703916E+02 0.  0.
          6    2    1    2  501    0 -0.12435542249E+03 -0.38578189437E+02 -0.86384257042E+02  0.23188956618E+03  0.17134171481E+03 0.  0.
         24    2    5    5    0    0 -0.15590661598E+03 -0.47730886265E+02 -0.70398643228E+02  0.19505372060E+03  0.80652802444E+02 0.  0.
          5    1    5    5  501    0  0.31551193493E+02  0.91526968287E+01 -0.15985613814E+02  0.36835845573E+02  0.47000000000E+01 0. -1.
        -11    1    6    6    0    0 -0.10380651468E+03 -0.65849983425E+02 -0.29600107866E+02  0.12644437193E+03  0.00000000000E+00 0.  1.
         12    1    6    6    0    0 -0.52100101297E+02  0.18119097160E+02 -0.40798535362E+02  0.68609348669E+02  0.00000000000E+00 0. -1.
         -5    1    3    3    0  503  0.10300287305E+03 -0.28506166889E+02 -0.69997206845E+02  0.12784323359E+03  0.47000000000E+01 0.  1.
         11    1    4    4    0    0  0.73634163384E+01 -0.15212555858E+02 -0.33621301363E+02  0.37630222710E+02  0.00000000000E+00 0. -1.
        -12    1    4    4    0    0  0.13989133097E+02  0.82296912183E+02 -0.11406401752E+03  0.14134736536E+03  0.00000000000E+00 0.  1.
</event>
<event>
12    1  0.1629553E-001  0.1973680E+03  0.7818608E-02  0.1152054E+00
         21   -1    0    0  503  502  0.00000000000E+00  0.00000000000E+00  0.60505261786E+03  0.60505261786E+03  0.00000000000E+00 0.  1.
         21   -1    0    0  501  503 -0.00000000000E+00 -0.00000000000E+00 -0.93314189753E+02  0.93314189753E+02  0.00000000000E+00 0.  1.
          6    2    1    2  501    0  0.76523158382E+02 -0.60001576248E+02  0.60892800150E+02  0.20621246699E+03  0.17134662386E+03 0.  0.
         24    2    3    3    0    0  0.10880253965E+03 -0.57494941975E+02  0.10743882871E+02  0.14633554677E+03  0.78453809609E+02 0.  0.
         -6    2    1    2    0  502 -0.76523158382E+02  0.60001576248E+02  0.45084562796E+03  0.49215434063E+03  0.17175020183E+03 0.  0.
        -24    2    5    5    0    0 -0.79874923558E+02  0.54480234500E+02  0.16540000581E+03  0.20659696855E+03  0.77311358331E+02 0.  0.
          5    1    3    3  501    0 -0.32279381268E+02 -0.25066342730E+01  0.50148917279E+02  0.59876920217E+02  0.47000000000E+01 0. -1.
        -13    1    4    4    0    0  0.37309728805E+02 -0.59081790515E+02  0.23448096868E+02  0.73705407405E+02  0.00000000000E+00 0.  1.
         14    1    4    4    0    0  0.71492810845E+02  0.15868485404E+01 -0.12704213997E+02  0.72630139364E+02  0.00000000000E+00 0. -1.
         -5    1    5    5    0  502  0.33517651760E+01  0.55213417475E+01  0.28544562215E+03  0.28555737208E+03  0.47000000000E+01 0.  1.
         11    1    6    6    0    0 -0.70636080681E+02  0.40790199632E+01  0.78213754400E+02  0.10546793672E+03  0.00000000000E+00 0. -1.
        -12    1    6    6    0    0 -0.92388428773E+01  0.50401214537E+02  0.87186251407E+02  0.10112903183E+03  0.00000000000E+00 0.  1.
</event>
<event>
12    1  0.1629553E-001  0.1765512E+03  0.7818608E-02  0.1171262E+00
         21   -1    0    0  503  502  0.00000000000E+00  0.00000000000E+00  0.52335928768E+02  0.52335928768E+02  0.00000000000E+00 0.  1.
         21   -1    0    0  501  503 -0.00000000000E+00 -0.00000000000E+00 -0.77247100057E+03  0.77247100057E+03  0.00000000000E+00 0.  1.
          6    2    1    2  501    0 -0.40158196420E+02  0.10989755204E+02 -0.55825557447E+03  0.58550800276E+03  0.17157179080E+03 0.  0.
         24    2    3    3    0    0 -0.58497716850E+02  0.80516677220E+01 -0.17197689746E+03  0.19875449381E+03  0.80252621882E+02 0.  0.
         -6    2    1    2    0  502  0.40158196420E+02 -0.10989755204E+02 -0.16187949732E+03  0.23929892658E+03  0.17124704129E+03 0.  0.
        -24    2    5    5    0    0  0.75871916511E+02  0.33605504734E+02 -0.95134724211E+02  0.15131505448E+03  0.83425129897E+02 0.  0.
          5    1    3    3  501    0  0.18339520430E+02  0.29380874816E+01 -0.38627867701E+03  0.38675350895E+03  0.47000000000E+01 0. -1.
        -13    1    4    4    0    0 -0.68701751713E+00 -0.14025667242E+02 -0.11097399995E+03  0.11185892901E+03  0.00000000000E+00 0.  1.
         14    1    4    4    0    0 -0.57810699333E+02  0.22077334964E+02 -0.61002897509E+02  0.86895564795E+02  0.00000000000E+00 0. -1.
         -5    1    5    5    0  502 -0.35713720091E+02 -0.44595259937E+02 -0.66744773114E+02  0.87983872100E+02  0.47000000000E+01 0.  1.
         13    1    6    6    0    0  0.29406467115E+02 -0.13252080358E+02  0.37093368149E+01  0.32467169904E+02  0.00000000000E+00 0. -1.
        -14    1    6    6    0    0  0.46465449396E+02  0.46857585092E+02 -0.98844061025E+02  0.11884788458E+03  0.00000000000E+00 0.  1.
</event>
<event>
12    1  0.1629553E-001  0.1947754E+03  0.7818608E-02  0.1154655E+00
         21   -1    0    0  501  502  0.00000000000E+00  0.00000000000E+00  0.89618805523E+03  0.89618805523E+03  0.00000000000E+00 0. -1.
         21   -1    0    0  502  503 -0.00000000000E+00 -0.00000000000E+00 -0.71535699716E+02  0.71535699716E+02  0.00000000000E+00 0.  1.
         -6    2    1    2    0  503  0.87415421995E+02  0.34595053918E+01  0.99701903879E+02  0.21706362436E+03  0.17182177745E+03 0.  0.
        -24    2    3    3    0    0  0.93682896611E+02  0.58000931948E+02  0.54659261906E+02  0.14589496522E+03  0.78467271773E+02 0.  0.
          6    2    1    2  501    0 -0.87415421995E+02 -0.34595053918E+01  0.72495045164E+03  0.75066013059E+03  0.17402313104E+03 0.  0.
         24    2    5    5    0    0 -0.11484041162E+03 -0.69698603437E+01  0.38678294042E+03  0.41133166392E+03  0.79723244075E+02 0.  0.
          5    1    5    5  501    0  0.27424989624E+02  0.35103549520E+01  0.33816751122E+03  0.33932846667E+03  0.47000000000E+01 0. -1.
        -13    1    6    6    0    0 -0.47826241593E+02 -0.80463597253E+01  0.57153489879E+02  0.74957419213E+02  0.00000000000E+00 0.  1.
         14    1    6    6    0    0 -0.67014170026E+02  0.10764993816E+01  0.32962945054E+03  0.33637424471E+03  0.00000000000E+00 0. -1.
         -5    1    3    3    0  503 -0.62674746167E+01 -0.54541426556E+02  0.45042641973E+02  0.71168659147E+02  0.47000000000E+01 0.  1.
         11    1    4    4    0    0  0.94884323710E+01  0.25588139477E+02  0.48270359693E+02  0.55450977049E+02  0.00000000000E+00 0. -1.
        -12    1    4    4    0    0  0.84194464240E+02  0.32412792471E+02  0.63889022131E+01  0.90443988169E+02  0.00000000000E+00 0.  1.
</event>
<event>
12    1  0.1629553E-001  0.2493712E+03  0.7818608E-02  0.1113938E+00
         21   -1    0    0  501  502  0.00000000000E+00  0.00000000000E+00  0.13208476654E+04  0.13208476654E+04  0.00000000000E+00 0. -1.
         21   -1    0    0  502  503 -0.00000000000E+00 -0.00000000000E+00 -0.49555771333E+02  0.49555771333E+02  0.00000000000E+00 0. -1.
         -6    2    1    2    0  503  0.67262584702E+01 -0.17869543658E+03  0.47231016521E+03  0.53341012483E+03  0.17167459771E+03 0.  0.
        -24    2    3    3    0    0  0.22680184962E+02 -0.20088490268E+03  0.38779024105E+03  0.44445728475E+03  0.79321321233E+02 0.  0.
          6    2    1    2  501    0 -0.67262584702E+01  0.17869543658E+03  0.79898172884E+03  0.83699331189E+03  0.17380650023E+03 0.  0.
         24    2    5    5    0    0 -0.39019909060E+02  0.68294287683E+02  0.56632098000E+03  0.57740824376E+03  0.80586379367E+02 0.  0.
          5    1    5    5  501    0  0.32293650590E+02  0.11040114889E+03  0.23266074885E+03  0.25958506814E+03  0.47000000000E+01 0. -1.
        -13    1    6    6    0    0 -0.73192722421E+01  0.94114878535E+01  0.36650031199E+03  0.36669418667E+03  0.00000000000E+00 0.  1.
         14    1    6    6    0    0 -0.31700636818E+02  0.58882799829E+02  0.19982066801E+03  0.21071405709E+03  0.00000000000E+00 0. -1.
         -5    1    3    3    0  503 -0.15953926492E+02  0.22189466107E+02  0.84519924163E+02  0.88952840074E+02  0.47000000000E+01 0.  1.
         13    1    4    4    0    0  0.29616480192E+02 -0.11596736561E+03  0.15022418799E+03  0.19207517394E+03  0.00000000000E+00 0. -1.
        -14    1    4    4    0    0 -0.69362952300E+01 -0.84917537072E+02  0.23756605306E+03  0.25238211082E+03  0.00000000000E+00 0.  1.
</event>
<event>
12    1  0.1629553E-001  0.1894596E+03  0.7818608E-02  0.1159110E+00
         21   -1    0    0  503  502  0.00000000000E+00  0.00000000000E+00  0.10135812948E+04  0.10135812948E+04  0.00000000000E+00 0. -1.
         21   -1    0    0  501  503 -0.00000000000E+00 -0.00000000000E+00 -0.60431931385E+02  0.60431931385E+02  0.00000000000E+00 0. -1.
          6    2    1    2  501    0 -0.38692118724E+02 -0.67302457099E+02  0.12962046004E+03  0.22897192503E+03  0.17204644142E+03 0.  0.
         24    2    3    3    0    0 -0.16238635915E+02 -0.37491807398E+02  0.15860491609E+03  0.18148484870E+03  0.78178654267E+02 0.  0.
         -6    2    1    2    0  502  0.38692118724E+02  0.67302457099E+02  0.82352890338E+03  0.84504130117E+03  0.17282431886E+03 0.  0.
        -24    2    5    5    0    0 -0.17025343131E+02  0.63578731313E+02  0.71972593513E+03  0.72707754441E+03  0.79399096400E+02 0.  0.
          5    1    3    3  501    0 -0.22453482809E+02 -0.29810649701E+02 -0.28984456044E+02  0.47487076326E+02  0.47000000000E+01 0. -1.
        -11    1    4    4    0    0 -0.12194215546E+02 -0.61392012295E+02  0.98843528529E+02  0.11699453491E+03  0.00000000000E+00 0.  1.
         12    1    4    4    0    0 -0.40444203692E+01  0.23900204897E+02  0.59761387557E+02  0.64490313792E+02  0.00000000000E+00 0. -1.
         -5    1    5    5    0  502  0.55717461855E+02  0.37237257864E+01  0.10380296826E+03  0.11796375676E+03  0.47000000000E+01 0.  1.
         11    1    6    6    0    0  0.24904737534E+02  0.87324235849E+01  0.96647868383E+02  0.10018638449E+03  0.00000000000E+00 0. -1.
        -12    1    6    6    0    0 -0.41930080666E+02  0.54846307728E+02  0.62307806674E+03  0.62689115993E+03  0.00000000000E+00 0.  1.
</event>
<event>
12    1  0.1629553E-001  0.1894069E+03  0.7818608E-02  0.1159370E+00
         21   -1    0    0  501  502  0.00000000000E+00  0.00000000000E+00  0.26025980375E+03  0.26025980375E+03  0.00000000000E+00 0.  1.
         21   -1    0    0  502  503 -0.00000000000E+00 -0.00000000000E+00 -0.14933658703E+03  0.14933658703E+03  0.00000000000E+00 0.  1.
         -6    2    1    2    0  503 -0.62239186682E+02 -0.49484545400E+02 -0.44387144000E+01  0.18782323760E+03  0.17010417339E+03 0.  0.
        -24    2    3    3    0    0 -0.41214537674E+02 -0.83313861948E+02 -0.44671206026E+02  0.13101477074E+03  0.80805419355E+02 0.  0.
          6    2    1    2  501    0  0.62239186682E+02  0.49484545400E+02  0.11536193113E+03  0.22177315318E+03  0.17190846322E+03 0.  0.
         24    2    5    5    0    0  0.82999484646E+02  0.43076995100E+02  0.21049774858E+02  0.12487671624E+03  0.80040984996E+02 0.  0.
          5    1    5    5  501    0 -0.20760297964E+02  0.64075502996E+01  0.94312156268E+02  0.96896436943E+02  0.47000000000E+01 0. -1.
        -13    1    6    6    0    0  0.91042130837E+02  0.20899960411E+02  0.32172770882E+02  0.98795572364E+02  0.00000000000E+00 0.  1.
         14    1    6    6    0    0 -0.80426461914E+01  0.22177034690E+02 -0.11122996024E+02  0.26081143877E+02  0.00000000000E+00 0. -1.
         -5    1    3    3    0  503 -0.21024649008E+02  0.33829316548E+02  0.40232491626E+02  0.56808466855E+02  0.47000000000E+01 0.  1.
         13    1    4    4    0    0 -0.60099703044E+01 -0.49501136776E+02 -0.61687709073E+02  0.79321218699E+02  0.00000000000E+00 0. -1.
        -14    1    4    4    0    0 -0.35204567370E+02 -0.33812725172E+02  0.17016503047E+02  0.51693552046E+02  0.00000000000E+00 0.  1.
</event>
<event>
12    1  0.1629553E-001  0.2730518E+03  0.7818608E-02  0.1099579E+00
         21   -1    0    0  501  502  0.00000000000E+00  0.00000000000E+00  0.84463005987E+02  0.84463005987E+02  0.00000000000E+00 0. -1.
         21   -1    0    0  502  503 -0.00000000000E+00 -0.00000000000E+00 -0.94611867888E+03  0.94611867888E+03  0.00000000000E+00 0. -1.
         -6    2    1    2    0  503  0.53827810647E+02 -0.20508642504E+03 -0.56517992016E+03  0.62768275419E+03  0.17204482792E+03 0.  0.
        -24    2    3    3    0    0  0.33608191115E+02 -0.22314566723E+03 -0.45575501703E+03  0.51485160305E+03  0.80224923153E+02 0.  0.
          6    2    1    2  501    0 -0.53827810647E+02  0.20508642504E+03 -0.29647575273E+03  0.40289893067E+03  0.17167353159E+03 0.  0.
         24    2    5    5    0    0 -0.12857104562E+02  0.90345109139E+02 -0.24198093487E+03  0.26934765398E+03  0.75271787430E+02 0.  0.
          5    1    5    5  501    0 -0.40970706086E+02  0.11474131590E+03 -0.54494817857E+02  0.13355127669E+03  0.47000000000E+01 0. -1.
        -11    1    6    6    0    0 -0.42682962080E+02  0.34121635417E+02 -0.11280833122E+03  0.12534688209E+03  0.00000000000E+00 0.  1.
         12    1    6    6    0    0  0.29825857518E+02  0.56223473723E+02 -0.12917260364E+03  0.14400077190E+03  0.00000000000E+00 0. -1.
         -5    1    3    3    0  503  0.20219619533E+02  0.18059242191E+02 -0.10942490313E+03  0.11283115114E+03  0.47000000000E+01 0.  1.
         13    1    4    4    0    0  0.45481889064E+02 -0.13411126482E+03 -0.21083360974E+03  0.25397882704E+03  0.00000000000E+00 0. -1.
        -14    1    4    4    0    0 -0.11873697949E+02 -0.89034402414E+02 -0.24492140729E+03  0.26087277601E+03  0.00000000000E+00 0.  1.
</event>
<event>
12    1  0.1629553E-001  0.1889477E+03  0.7818608E-02  0.1159750E+00
         21   -1    0    0  503  502  0.00000000000E+00  0.00000000000E+00  0.14345861809E+03  0.14345861809E+03  0.00000000000E+00 0.  1.
         21   -1    0    0  501  503 -0.00000000000E+00 -0.00000000000E+00 -0.24764181211E+03  0.24764181211E+03  0.00000000000E+00 0.  1.
          6    2    1    2  501    0 -0.11944646324E+02 -0.73597912878E+02 -0.62401099088E+02  0.19758824079E+03  0.17201130304E+03 0.  0.
         24    2    3    3    0    0  0.30244749341E+02 -0.29457218575E+02  0.23267723407E+02  0.92281151054E+02  0.78688952837E+02 0.  0.
         -6    2    1    2    0  502  0.11944646324E+02  0.73597912878E+02 -0.41782094935E+02  0.19351218941E+03  0.17361421784E+03 0.  0.
        -24    2    5    5    0    0 -0.23797985834E+01  0.11503712986E+03 -0.49481460278E+02  0.14874871488E+03  0.80240641693E+02 0.  0.
          5    1    3    3  501    0 -0.42189395664E+02 -0.44140694303E+02 -0.85668822495E+02  0.10530708973E+03  0.47000000000E+01 0. -1.
        -11    1    4    4    0    0  0.97428385365E+01 -0.40459986705E+02 -0.17654656190E+02  0.45206418926E+02  0.00000000000E+00 0.  1.
         12    1    4    4    0    0  0.20501910804E+02  0.11002768130E+02  0.40922379597E+02  0.47074732129E+02  0.00000000000E+00 0. -1.
         -5    1    5    5    0  502  0.14324444907E+02 -0.41439216979E+02  0.76993653425E+01  0.44763474534E+02  0.47000000000E+01 0.  1.
         11    1    6    6    0    0 -0.35864431488E+02  0.49320506701E+02 -0.43186100172E+02  0.74724889262E+02  0.00000000000E+00 0. -1.
        -12    1    6    6    0    0  0.33484632905E+02  0.65716623155E+02 -0.62953601059E+01  0.74023825614E+02  0.00000000000E+00 0.  1.
</event>
<event>
12    1  0.1629553E-001  0.2265189E+03  0.7818608E-02  0.1129682E+00
         21   -1    0    0  501  502  0.00000000000E+00  0.00000000000E+00  0.12061578947E+04  0.12061578947E+04  0.00000000000E+00 0. -1.
         21   -1    0    0  502  503 -0.00000000000E+00 -0.00000000000E+00 -0.12296625500E+03  0.12296625500E+03  0.00000000000E+00 0. -1.
         -6    2    1    2    0  503  0.52948709737E+02 -0.13429615303E+03  0.34785186600E+01  0.22654560155E+03  0.17456169944E+03 0.  0.
        -24    2    3    3    0    0  0.87042778224E+01 -0.84815752710E+02 -0.62421811000E+02  0.13289292823E+03  0.80588904477E+02 0.  0.
          6    2    1    2  501    0 -0.52948709737E+02  0.13429615303E+03  0.10797131210E+04  0.11025785482E+04  0.17046996370E+03 0.  0.
         24    2    5    5    0    0 -0.46143636199E+02  0.10136961859E+03  0.41671750877E+03  0.43871430181E+03  0.80073227462E+02 0.  0.
          5    1    5    5  501    0 -0.68050735374E+01  0.32926534437E+02  0.66299561227E+03  0.66386424636E+03  0.47000000000E+01 0. -1.
        -11    1    6    6    0    0 -0.65631510372E+01  0.97136439335E+02  0.29335833652E+03  0.30909169579E+03  0.00000000000E+00 0.  1.
         12    1    6    6    0    0 -0.39580485162E+02  0.42331792533E+01  0.12335917225E+03  0.12962260601E+03  0.00000000000E+00 0. -1.
         -5    1    3    3    0  503  0.44244431914E+02 -0.49480400316E+02  0.65900329660E+02  0.93652673321E+02  0.47000000000E+01 0.  1.
         11    1    4    4    0    0 -0.11354058193E+02  0.72975072800E+01 -0.30517076783E+02  0.33368551441E+02  0.00000000000E+00 0. -1.
        -12    1    4    4    0    0  0.20058336015E+02 -0.92113259990E+02 -0.31904734218E+02  0.99524376788E+02  0.00000000000E+00 0.  1.
</event>
<event>
12    1  0.1629553E-001  0.3016353E+03  0.7818608E-02  0.1084471E+00
         21   -1    0    0  503  502  0.00000000000E+00  0.00000000000E+00  0.10572056898E+04  0.10572056898E+04  0.00000000000E+00 0. -1.
         21   -1    0    0  501  503 -0.00000000000E+00 -0.00000000000E+00 -0.11468720805E+03  0.11468720805E+03  0.00000000000E+00 0.  1.
          6    2    1    2  501    0 -0.23249704400E+02 -0.24585924681E+03  0.17819854015E+03  0.35034069158E+03  0.17319515717E+03 0.  0.
         24    2    3    3    0    0  0.81474707295E+01 -0.42768581997E+02  0.84930546922E+02  0.12461384492E+03  0.80124151546E+02 0.  0.
         -6    2    1    2    0  502  0.23249704400E+02  0.24585924681E+03  0.76431994165E+03  0.82155220630E+03  0.17255647332E+03 0.  0.
        -24    2    5    5    0    0 -0.44603110331E+02  0.88920935539E+02  0.36441625249E+03  0.38660544104E+03  0.82269020499E+02 0.  0.
          5    1    3    3  501    0 -0.31397175129E+02 -0.20309066482E+03  0.93267993226E+02  0.22572684666E+03  0.47000000000E+01 0. -1.
        -13    1    4    4    0    0  0.40610348591E+02 -0.27804375939E+02  0.70690233670E+02  0.86135897688E+02  0.00000000000E+00 0.  1.
         14    1    4    4    0    0 -0.32462877862E+02 -0.14964206058E+02  0.14240313252E+02  0.38477947237E+02  0.00000000000E+00 0. -1.
         -5    1    5    5    0  502  0.67852814731E+02  0.15693831128E+03  0.39990368916E+03  0.43494676526E+03  0.47000000000E+01 0.  1.
         11    1    6    6    0    0  0.23974690649E+01  0.79846116475E+02  0.25384222775E+03  0.26611468724E+03  0.00000000000E+00 0. -1.
        -12    1    6    6    0    0 -0.47000579396E+02  0.90748190636E+01  0.11057402474E+03  0.12049075380E+03  0.00000000000E+00 0.  1.
</event>
<event>
12    1  0.1629553E-001  0.2039542E+03  0.7818608E-02  0.1146529E+00
         21   -1    0    0  501  502  0.00000000000E+00  0.00000000000E+00  0.20076463356E+04  0.20076463356E+04  0.00000000000E+00 0.  1.
         21   -1    0    0  502  503 -0.00000000000E+00 -0.00000000000E+00 -0.38415358528E+02  0.38415358528E+02  0.00000000000E+00 0.  1.
         -6    2    1    2    0  503  0.66436906004E+02 -0.87867406911E+02  0.28999427804E+03  0.35453347051E+03  0.17164718682E+03 0.  0.
        -24    2    3    3    0    0  0.87002297820E+02 -0.62630619477E+02  0.10933944600E+03  0.17090861076E+03  0.75912083741E+02 0.  0.
          6    2    1    2  501    0 -0.66436906004E+02  0.87867406911E+02  0.16792366991E+04  0.16915282236E+04  0.17116452970E+03 0.  0.
         24    2    5    5    0    0 -0.56807895851E+01  0.11080534178E+03  0.12334558637E+04  0.12410172940E+04  0.80002882524E+02 0.  0.
          5    1    5    5  501    0 -0.60756116419E+02 -0.22937934868E+02  0.44578083538E+03  0.45051092964E+03  0.47000000000E+01 0. -1.
        -11    1    6    6    0    0 -0.35447851811E+02  0.35820739863E+02  0.65897434693E+03  0.66089852891E+03  0.00000000000E+00 0.  1.
         12    1    6    6    0    0  0.29767062226E+02  0.74984601916E+02  0.57448151676E+03  0.58011876510E+03  0.00000000000E+00 0. -1.
         -5    1    3    3    0  503 -0.20565391816E+02 -0.25236787434E+02  0.18065483204E+03  0.18362485976E+03  0.47000000000E+01 0.  1.
         11    1    4    4    0    0 -0.58335111169E+01  0.11207457719E+02  0.85972668854E+01  0.15282341390E+02  0.00000000000E+00 0. -1.
        -12    1    4    4    0    0  0.92835808937E+02 -0.73838077196E+02  0.10074217911E+03  0.15562626937E+03  0.00000000000E+00 0.  1.
</event>
<event>
12    1  0.1629553E-001  0.2723564E+03  0.7818608E-02  0.1099947E+00
         21   -1    0    0  503  502  0.00000000000E+00  0.00000000000E+00  0.28523796258E+03  0.28523796258E+03  0.00000000000E+00 0.  1.
         21   -1    0    0  501  503 -0.00000000000E+00 -0.00000000000E+00 -0.26115736392E+03  0.26115736392E+03  0.00000000000E+00 0.  1.
          6    2    1    2  501    0  0.14202712958E+03 -0.15634556449E+03  0.30249160681E+02  0.27396911444E+03  0.17183836264E+03 0.  0.
         24    2    3    3    0    0  0.56545814917E+02 -0.75470315852E+02 -0.48565504343E+02  0.13225919093E+03  0.78998022847E+02 0.  0.
         -6    2    1    2    0  502 -0.14202712958E+03  0.15634556449E+03 -0.61685620144E+01  0.27242621206E+03  0.17193704890E+03 0.  0.
        -24    2    5    5    0    0 -0.15332316717E+03  0.15574530962E+03  0.29244077930E+02  0.23495481178E+03  0.81141557943E+02 0.  0.
          5    1    3    3  501    0  0.85481314663E+02 -0.80875248642E+02  0.78814665024E+02  0.14170992351E+03  0.47000000000E+01 0. -1.
        -11    1    4    4    0    0  0.37832356227E+02 -0.89260198253E+02 -0.27209197113E+02  0.10069265404E+03  0.00000000000E+00 0.  1.
         12    1    4    4    0    0  0.18713458689E+02  0.13789882401E+02 -0.21356307230E+02  0.31566536890E+02  0.00000000000E+00 0. -1.
         -5    1    5    5    0  502  0.11296037586E+02  0.60025487468E+00 -0.35412639945E+02  0.37471400280E+02  0.47000000000E+01 0.  1.
         11    1    6    6    0    0  0.88746723826E+01  0.16224538527E+02 -0.25081985901E+01  0.18662436081E+02  0.00000000000E+00 0. -1.
        -12    1    6    6    0    0 -0.16219783955E+03  0.13952077109E+03  0.31752276520E+02  0.21629237570E+03  0.00000000000E+00 0.  1.
</event>
<event>
12    1  0.1629553E-001  0.2264066E+03  0.7818608E-02  0.1129836E+00
         21   -1    0    0  503  502  0.00000000000E+00  0.00000000000E+00  0.21713127752E+03  0.21713127752E+03  0.00000000000E+00 0. -1.
         21   -1    0    0  501  503 -0.00000000000E+00 -0.00000000000E+00 -0.23246304459E+03  0.23246304459E+03  0.00000000000E+00 0. -1.
          6    2    1    2  501    0 -0.36298103724E+02 -0.14452011128E+03 -0.40631980977E+01  0.22644304712E+03  0.17045917139E+03 0.  0.
         24    2    3    3    0    0 -0.54413629116E+01 -0.10194907372E+03 -0.70577378614E+02  0.14152745431E+03  0.68011998124E+02 0.  0.
         -6    2    1    2    0  502  0.36298103724E+02  0.14452011128E+03 -0.11268568976E+02  0.22315127499E+03  0.16572838014E+03 0.  0.
        -24    2    5    5    0    0 -0.25690172959E+02  0.11576781022E+03 -0.41211460534E+02  0.14839896387E+03  0.79130886057E+02 0.  0.
          5    1    3    3  501    0 -0.30856740812E+02 -0.42571037557E+02  0.66514180516E+02  0.84915592808E+02  0.47000000000E+01 0. -1.
        -13    1    4    4    0    0  0.90155525036E+01  0.70036493758E+01 -0.13508989315E+02  0.17686833630E+02  0.00000000000E+00 0.  1.
         14    1    4    4    0    0 -0.14456915415E+02 -0.10895272310E+03 -0.57068389299E+02  0.12384062068E+03  0.00000000000E+00 0. -1.
         -5    1    5    5    0  502  0.61988276683E+02  0.28752301056E+02  0.29942891558E+02  0.74752311115E+02  0.47000000000E+01 0.  1.
         11    1    6    6    0    0 -0.15514925275E+01  0.74679679213E+02 -0.61353590324E+02  0.96662943583E+02  0.00000000000E+00 0. -1.
        -12    1    6    6    0    0 -0.24138680432E+02  0.41088131010E+02  0.20142129790E+02  0.51736020289E+02  0.00000000000E+00 0.  1.
</event>
<event>
12    1  0.1629553E-001  0.2347571E+03  0.7818608E-02  0.1123462E+00
         21   -1    0    0  501  502  0.00000000000E+00  0.00000000000E+00  0.82644371439E+03  0.82644371439E+03  0.00000000000E+00 0. -1.
         21   -1    0    0  502  503 -0.00000000000E+00 -0.00000000000E+00 -0.66545411260E+02  0.66545411260E+02  0.00000000000E+00 0. -1.
         -6    2    1    2    0  503  0.20692813473E+02  0.15826693212E+03  0.39382166556E+03  0.45810640675E+03  0.17114134892E+03 0.  0.
        -24    2    3    3    0    0  0.69771548891E+02  0.13684703559E+03  0.24652605323E+03  0.30130837854E+03  0.80102833136E+02 0.  0.
          6    2    1    2  501    0 -0.20692813473E+02 -0.15826693212E+03  0.36607663757E+03  0.43488271890E+03  0.17214604350E+03 0.  0.
         24    2    5    5    0    0 -0.98856426626E+00 -0.86939828396E+02  0.33350070092E+03  0.35389448018E+03  0.80368367961E+02 0.  0.
          5    1    5    5  501    0 -0.19704249207E+02 -0.71327103722E+02  0.32575936652E+02  0.80988238720E+02  0.47000000000E+01 0. -1.
        -11    1    6    6    0    0 -0.13372490675E+02 -0.18136350549E+01  0.15667197447E+03  0.15725209176E+03  0.00000000000E+00 0.  1.
         12    1    6    6    0    0  0.12383926409E+02 -0.85126193341E+02  0.17682872645E+03  0.19664238842E+03  0.00000000000E+00 0. -1.
         -5    1    3    3    0  503 -0.49078735417E+02  0.21419896529E+02  0.14729561234E+03  0.15679802821E+03  0.47000000000E+01 0.  1.
         11    1    4    4    0    0  0.27326986769E+02  0.10232809961E+03  0.21095937960E+03  0.23605436665E+03  0.00000000000E+00 0. -1.
        -12    1    4    4    0    0  0.42444562122E+02  0.34518935976E+02  0.35566673631E+02  0.65254011891E+02  0.00000000000E+00 0.  1.
</event>
<event>
12    1  0.1629553E-001  0.2237403E+03  0.7818608E-02  0.1133294E+00
         21   -1    0    0  501  502  0.00000000000E+00  0.00000000000E+00  0.23891219335E+02  0.23891219335E+02  0.00000000000E+00 0.  1.
         21   -1    0    0  502  503 -0.00000000000E+00 -0.00000000000E+00 -0.26032026221E+04  0.26032026221E+04  0.00000000000E+00 0. -1.
         -6    2    1    2    0  503  0.89582808974E+02 -0.84767175439E+02 -0.19539472586E+04  0.19667154420E+04  0.18667936873E+03 0.  0.
        -24    2    3    3    0    0  0.67057803991E+02  0.18203772779E+02 -0.12768953927E+04  0.12814916018E+04  0.83251157499E+02 0.  0.
          6    2    1    2  501    0 -0.89582808974E+02  0.84767175439E+02 -0.62536414415E+03  0.66037839942E+03  0.17265214722E+03 0.  0.
         24    2    5    5    0    0 -0.73835962382E+01 -0.11157008063E+02 -0.18598068393E+03  0.20317158115E+03  0.80690025848E+02 0.  0.
          5    1    5    5  501    0 -0.82199212736E+02  0.95924183503E+02 -0.43938346022E+03  0.45720681827E+03  0.47000000000E+01 0. -1.
        -13    1    6    6    0    0 -0.11156123362E+02 -0.45688744348E+02 -0.10936623660E+03  0.11904996496E+03  0.00000000000E+00 0.  1.
         14    1    6    6    0    0  0.37725271242E+01  0.34531736285E+02 -0.76614447325E+02  0.84121616191E+02  0.00000000000E+00 0. -1.
         -5    1    3    3    0  503  0.22525004983E+02 -0.10297094822E+03 -0.67705186590E+03  0.68522384017E+03  0.47000000000E+01 0.  1.
         11    1    4    4    0    0  0.53671610867E+01 -0.18905127466E+02 -0.78033524269E+02  0.80470125963E+02  0.00000000000E+00 0. -1.
        -12    1    4    4    0    0  0.61690642905E+02  0.37108900246E+02 -0.11988618684E+04  0.12010214758E+04  0.00000000000E+00 0.  1.
</event>
<event>
12    1  0.1629553E-001  0.1824516E+03  0.7818608E-02  0.1165716E+00
         21   -1    0    0  503  502  0.00000000000E+00  0.00000000000E+00  0.18884463470E+04  0.18884463470E+04  0.00000000000E+00 0. -1.
         21   -1    0    0  501  503 -0.00000000000E+00 -0.00000000000E+00 -0.30016436626E+02  0.30016436626E+02  0.00000000000E+00 0. -1.
          6    2    1    2  501    0 -0.54759570320E+02  0.28309956538E+02  0.31195955180E+03  0.36139637726E+03  0.17172220403E+03 0.  0.
         24    2    3    3    0    0  0.25072360859E+02  0.48502660978E+02  0.14036548922E+03  0.17100862854E+03  0.80995981822E+02 0.  0.
         -6    2    1    2    0  502  0.54759570320E+02 -0.28309956538E+02  0.15464703585E+04  0.15570664063E+04  0.17054371788E+03 0.  0.
        -24    2    5    5    0    0  0.40691892847E+02 -0.26533647725E+02  0.15359506567E+04  0.15387959671E+04  0.79929618769E+02 0.  0.
          5    1    3    3  501    0 -0.79831931179E+02 -0.20192704440E+02  0.17159406258E+03  0.19038774872E+03  0.47000000000E+01 0. -1.
        -13    1    4    4    0    0  0.84220381823E+00  0.48893536573E+02  0.13829615305E+03  0.14668712682E+03  0.00000000000E+00 0.  1.
         14    1    4    4    0    0  0.24230157041E+02 -0.39087559490E+00  0.20693361692E+01  0.24321501725E+02  0.00000000000E+00 0. -1.
         -5    1    5    5    0  502  0.14067677473E+02 -0.17763088132E+01  0.10519701819E+02  0.18270439208E+02  0.47000000000E+01 0.  1.
         13    1    6    6    0    0  0.53311665040E+02  0.70671809366E+01  0.69395547001E+03  0.69603611475E+03  0.00000000000E+00 0. -1.
        -14    1    6    6    0    0 -0.12619772192E+02 -0.33600828661E+02  0.84199518671E+03  0.84275985238E+03  0.00000000000E+00 0.  1.
</event>
<event>
12    1  0.1629553E-001  0.2803634E+03  0.7818608E-02  0.1095498E+00
         21   -1    0    0  503  502  0.00000000000E+00  0.00000000000E+00  0.63431032739E+02  0.63431032739E+02  0.00000000000E+00 0. -1.
         21   -1    0    0  501  503 -0.00000000000E+00 -0.00000000000E+00 -0.12421792291E+04  0.12421792291E+04  0.00000000000E+00 0. -1.
          6    2    1    2  501    0  0.14472932645E+03 -0.16758369915E+03 -0.55606874692E+03  0.62272421899E+03  0.17187823440E+03 0.  0.
         24    2    3    3    0    0  0.11885680230E+03 -0.77720696854E+02 -0.46137570205E+03  0.48955661995E+03  0.81429107331E+02 0.  0.
         -6    2    1    2    0  502 -0.14472932645E+03  0.16758369915E+03 -0.62267944945E+03  0.68288604286E+03  0.17196737075E+03 0.  0.
        -24    2    5    5    0    0 -0.88909517931E+02  0.17979626746E+03 -0.54616256050E+03  0.58727264347E+03  0.79774777362E+02 0.  0.
          5    1    3    3  501    0  0.25872524146E+02 -0.89863002297E+02 -0.94693044864E+02  0.13316759904E+03  0.47000000000E+01 0. -1.
        -13    1    4    4    0    0  0.86353145277E+02 -0.20782743262E+02 -0.18100596758E+03  0.20162328342E+03  0.00000000000E+00 0.  1.
         14    1    4    4    0    0  0.32503657027E+02 -0.56937953592E+02 -0.28036973447E+03  0.28793333653E+03  0.00000000000E+00 0. -1.
         -5    1    5    5    0  502 -0.55819808519E+02 -0.12212568308E+02 -0.76516888946E+02  0.95613399384E+02  0.47000000000E+01 0.  1.
         13    1    6    6    0    0 -0.80874027080E+02  0.10795849798E+03 -0.42799806949E+03  0.44875159390E+03  0.00000000000E+00 0. -1.
        -14    1    6    6    0    0 -0.80354908511E+01  0.71837769484E+02 -0.11816449101E+03  0.13852104957E+03  0.00000000000E+00 0.  1.
</event>
<event>
12    1  0.1629553E-001  0.1786823E+03  0.7818608E-02  0.1169496E+00
         21   -1    0    0  501  502  0.00000000000E+00  0.00000000000E+00  0.16484549636E+03  0.16484549636E+03  0.00000000000E+00 0.  1.
         21   -1    0    0  502  503 -0.00000000000E+00 -0.00000000000E+00 -0.38067007622E+03  0.38067007622E+03  0.00000000000E+00 0.  1.
         -6    2    1    2    0  503  0.40503551839E+02 -0.88556012162E+01 -0.30025753961E+03  0.34940229383E+03  0.17380567727E+03 0.  0.
        -24    2    3    3    0    0  0.46231814026E+01 -0.62876646700E+02 -0.11440044490E+03  0.15249971895E+03  0.78701054504E+02 0.  0.
          6    2    1    2  501    0 -0.40503551839E+02  0.88556012162E+01  0.84432959756E+02  0.19611327875E+03  0.17208292776E+03 0.  0.
         24    2    5    5    0    0 -0.51797713190E+02  0.64123438089E+02  0.77436815908E+02  0.13907708058E+03  0.80939208552E+02 0.  0.
          5    1    5    5  501    0  0.11294161351E+02 -0.55267836873E+02  0.69961438487E+01  0.57036198173E+02  0.47000000000E+01 0. -1.
        -13    1    6    6    0    0  0.11650136287E+02 -0.11335586339E+02  0.16577042017E+02  0.23216793818E+02  0.00000000000E+00 0.  1.
         14    1    6    6    0    0 -0.63447849477E+02  0.75459024428E+02  0.60859773891E+02  0.11586028676E+03  0.00000000000E+00 0. -1.
         -5    1    3    3    0  503  0.35880370437E+02  0.54021045484E+02 -0.18585709471E+03  0.19690257488E+03  0.47000000000E+01 0.  1.
         11    1    4    4    0    0 -0.27844592204E+02 -0.33759398214E-01 -0.18886196772E+02  0.33645369418E+02  0.00000000000E+00 0. -1.
        -12    1    4    4    0    0  0.32467773607E+02 -0.62842887301E+02 -0.95514248130E+02  0.11885434953E+03  0.00000000000E+00 0.  1.
</event>
<event>
12    1  0.1629553E-001  0.2140696E+03  0.7818608E-02  0.1141153E+00
         21   -1    0    0  501  502  0.00000000000E+00  0.00000000000E+00  0.37899837505E+02  0.37899837505E+02  0.00000000000E+00 0.  1.
         21   -1    0    0  502  503 -0.00000000000E+00 -0.00000000000E+00 -0.13381842754E+04  0.13381842754E+04  0.00000000000E+00 0.  1.
         -6    2    1    2    0  503  0.45070068926E+02 -0.93394837054E+02 -0.39871337792E+03  0.45254628055E+03  0.18727485578E+03 0.  0.
        -24    2    3    3    0    0 -0.44036718319E+02 -0.77268582555E+02 -0.17614452019E+03  0.21221512974E+03  0.78094192419E+02 0.  0.
          6    2    1    2  501    0 -0.45070068926E+02  0.93394837054E+02 -0.90157105996E+03  0.92353783233E+03  0.17128293814E+03 0.  0.
         24    2    5    5    0    0 -0.27854336272E+02  0.12803776199E+03 -0.59500098637E+03  0.61450091913E+03  0.80097898183E+02 0.  0.
          5    1    5    5  501    0 -0.17215732654E+02 -0.34642924940E+02 -0.30657007359E+03  0.30903691320E+03  0.47000000000E+01 0. -1.
        -11    1    6    6    0    0  0.47501730617E+01  0.18246588609E+02 -0.25564668839E+03  0.25634104514E+03  0.00000000000E+00 0.  1.
         12    1    6    6    0    0 -0.32604509333E+02  0.10979117339E+03 -0.33935429798E+03  0.35815987399E+03  0.00000000000E+00 0. -1.
         -5    1    3    3    0  503  0.89106787244E+02 -0.16126254500E+02 -0.22256885773E+03  0.24033115081E+03  0.47000000000E+01 0.  1.
         13    1    4    4    0    0 -0.15251532672E+02 -0.22974130619E+02 -0.13610202021E+03  0.13886749019E+03  0.00000000000E+00 0. -1.
        -14    1    4    4    0    0 -0.28785185647E+02 -0.54294451935E+02 -0.40042499981E+02  0.73347639556E+02  0.00000000000E+00 0.  1.
</event>
<event>
12    1  0.1629553E-001  0.1837569E+03  0.7818608E-02  0.1164252E+00
         21   -1    0    0  501  502  0.00000000000E+00  0.00000000000E+00  0.22857171776E+03  0.22857171776E+03  0.00000000000E+00 0. -1.
         21   -1    0    0  502  503 -0.00000000000E+00 -0.00000000000E+00 -0.59234345537E+03  0.59234345537E+03  0.00000000000E+00 0. -1.
         -6    2    1    2    0  503 -0.71131995701E+00 -0.59475322260E+02 -0.53756310310E+03  0.56810269749E+03  0.17386421467E+03 0.  0.
        -24    2    3    3    0    0 -0.29949474107E+02 -0.34472793085E+02 -0.51574092700E+03  0.52362468614E+03  0.78158580438E+02 0.  0.
          6    2    1    2  501    0  0.71131995701E+00  0.59475322260E+02  0.17379136549E+03  0.25281247565E+03  0.17370345187E+03 0.  0.
         24    2    5    5    0    0 -0.40559957484E+02  0.24973315957E+01  0.15534028282E+03  0.17992665938E+03  0.81188992305E+02 0.  0.
          5    1    5    5  501    0  0.41271277441E+02  0.56977990664E+02  0.18451082663E+02  0.72885816268E+02  0.47000000000E+01 0. -1.
        -13    1    6    6    0    0 -0.32131943784E+02 -0.53557230205E+00  0.90829937503E+01  0.33395350342E+02  0.00000000000E+00 0.  1.
         14    1    6    6    0    0 -0.84280136999E+01  0.30329038978E+01  0.14625728907E+03  0.14653130904E+03  0.00000000000E+00 0. -1.
         -5    1    3    3    0  503  0.29238154149E+02 -0.25002529174E+02 -0.21822176104E+02  0.44478011344E+02  0.47000000000E+01 0.  1.
         13    1    4    4    0    0 -0.45955412939E+02 -0.48916636037E+02 -0.43044481506E+03  0.43564604448E+03  0.00000000000E+00 0. -1.
        -14    1    4    4    0    0  0.16005938833E+02  0.14443842952E+02 -0.85296111934E+02  0.87978641659E+02  0.00000000000E+00 0.  1.
</event>
<event>
12    1  0.1629553E-001  0.1748994E+03  0.7818608E-02  0.1173234E+00
         21   -1    0    0  503  502  0.00000000000E+00  0.00000000000E+00  0.19231273206E+03  0.19231273206E+03  0.00000000000E+00 0.  1.
         21   -1    0    0  501  503 -0.00000000000E+00 -0.00000000000E+00 -0.25311965745E+03  0.25311965745E+03  0.00000000000E+00 0.  1.
          6    2    1    2  501    0  0.20714692180E+02 -0.50274877617E+01 -0.16729036751E+03  0.24202454566E+03  0.17359562072E+03 0.  0.
         24    2    3    3    0    0 -0.46391591818E+02 -0.28645337654E+02 -0.56158413668E+02  0.10998872722E+03  0.77272359408E+02 0.  0.
         -6    2    1    2    0  502 -0.20714692180E+02  0.50274877617E+01  0.10648344212E+03  0.20340784385E+03  0.17199317832E+03 0.  0.
        -24    2    5    5    0    0 -0.16979124034E+00  0.32043228986E+02  0.13418104860E+03  0.15934889887E+03  0.79754124748E+02 0.  0.
          5    1    3    3  501    0  0.67106283998E+02  0.23617849892E+02 -0.11113195385E+03  0.13203581844E+03  0.47000000000E+01 0. -1.
        -11    1    4    4    0    0  0.12236585525E+02  0.53092652881E+01 -0.37372596889E+02  0.39681649682E+02  0.00000000000E+00 0.  1.
         12    1    4    4    0    0 -0.58628177343E+02 -0.33954602942E+02 -0.18785816778E+02  0.70307077535E+02  0.00000000000E+00 0. -1.
         -5    1    5    5    0  502 -0.20544900940E+02 -0.27015741224E+02 -0.27697606478E+02  0.44058944984E+02  0.47000000000E+01 0.  1.
         13    1    6    6    0    0  0.23593670344E+02  0.49607686090E+01  0.42076385716E+01  0.24473960199E+02  0.00000000000E+00 0. -1.
        -14    1    6    6    0    0 -0.23763461584E+02  0.27082460377E+02  0.12997341003E+03  0.13487493867E+03  0.00000000000E+00 0.  1.
</event>
<event>
12    1  0.1629553E-001  0.2019803E+03  0.7818608E-02  0.1151739E+00
         21   -1    0    0  501  502  0.00000000000E+00  0.00000000000E+00  0.84440088280E+03  0.84440088280E+03  0.00000000000E+00 0. -1.
         21   -1    0    0  502  503 -0.00000000000E+00 -0.00000000000E+00 -0.28922720194E+03  0.28922720194E+03  0.00000000000E+00 0. -1.
         -6    2    1    2    0  503 -0.10475463863E+03  0.11258137959E+02 -0.24200595602E+03  0.31521883803E+03  0.17232455750E+03 0.  0.
        -24    2    3    3    0    0  0.13794006747E+02  0.57536864905E+01 -0.83222085647E+02  0.11692993820E+03  0.80767043885E+02 0.  0.
          6    2    1    2  501    0  0.10475463863E+03 -0.11258137959E+02  0.79717963688E+03  0.81840924671E+03  0.15230903342E+03 0.  0.
         24    2    5    5    0    0  0.18686566316E+02  0.28640447464E+02  0.29093454638E+03  0.30333081400E+03  0.78722356749E+02 0.  0.
          5    1    5    5  501    0  0.86068072313E+02 -0.39898585423E+02  0.50624509050E+03  0.51507843271E+03  0.47000000000E+01 0. -1.
        -13    1    6    6    0    0  0.36575753008E+02  0.89419870455E+01  0.59780278472E+02  0.70650028554E+02  0.00000000000E+00 0.  1.
         14    1    6    6    0    0 -0.17889186691E+02  0.19698460419E+02  0.23115426791E+03  0.23268078545E+03  0.00000000000E+00 0. -1.
         -5    1    3    3    0  503 -0.11854864538E+03  0.55044514683E+01 -0.15878387037E+03  0.19828889983E+03  0.47000000000E+01 0.  1.
         11    1    4    4    0    0 -0.17548758928E+02  0.27293368436E+02 -0.69140561605E+02  0.76376070595E+02  0.00000000000E+00 0. -1.
        -12    1    4    4    0    0  0.31342765675E+02 -0.21539681946E+02 -0.14081524042E+02  0.40553867606E+02  0.00000000000E+00 0.  1.
</event>
<event>
12    1  0.1629553E-001  0.2328084E+03  0.7818608E-02  0.1124711E+00
         21   -1    0    0  501  502  0.00000000000E+00  0.00000000000E+00  0.58662509394E+03  0.58662509394E+03  0.00000000000E+00 0.  1.
         21   -1    0    0  502  503 -0.00000000000E+00 -0.00000000000E+00 -0.26107557570E+03  0.26107557570E+03  0.00000000000E+00 0. -1.
         -6    2    1    2    0  503  0.15177658000E+02  0.15588456992E+03 -0.17801815579E+03  0.29292128861E+03  0.17199435191E+03 0.  0.
        -24    2    3    3    0    0  0.54410131746E+02  0.42207167623E+02 -0.50129998219E+02  0.11731032758E+03  0.80664668841E+02 0.  0.
          6    2    1    2  501    0 -0.15177658000E+02 -0.15588456992E+03  0.50356767404E+03  0.55477938102E+03  0.17224807351E+03 0.  0.
         24    2    5    5    0    0 -0.71646179429E+02 -0.10963351335E+03  0.38468041786E+03  0.41519383797E+03  0.85171690895E+02 0.  0.
          5    1    5    5  501    0  0.56468521430E+02 -0.46251056567E+02  0.11888725618E+03  0.13958554305E+03  0.47000000000E+01 0. -1.
        -13    1    6    6    0    0 -0.28745386618E+01 -0.74947657144E+02  0.23773134950E+03  0.24928218713E+03  0.00000000000E+00 0.  1.
         14    1    6    6    0    0 -0.68771640768E+02 -0.34685856208E+02  0.14694906836E+03  0.16591165084E+03  0.00000000000E+00 0. -1.
         -5    1    3    3    0  503 -0.39232473746E+02  0.11367740230E+03 -0.12788815757E+03  0.17561096104E+03  0.47000000000E+01 0.  1.
         13    1    4    4    0    0 -0.12902066179E+02  0.28802736404E+02  0.12343486478E+01  0.31584561935E+02  0.00000000000E+00 0. -1.
        -14    1    4    4    0    0  0.67312197925E+02  0.13404431219E+02 -0.51364346867E+02  0.85725765642E+02  0.00000000000E+00 0.  1.
</event>
<event>
12    1  0.1629553E-001  0.2431333E+03  0.7818608E-02  0.1117826E+00
         21   -1    0    0  501  502  0.00000000000E+00  0.00000000000E+00  0.30593343486E+02  0.30593343486E+02  0.00000000000E+00 0. -1.
         21   -1    0    0  502  503 -0.00000000000E+00 -0.00000000000E+00 -0.21529708190E+04  0.21529708190E+04  0.00000000000E+00 0.  1.
         -6    2    1    2    0  503  0.28805834047E+02 -0.16928213180E+03 -0.14134669355E+04  0.14341190735E+04  0.17123820538E+03 0.  0.
        -24    2    3    3    0    0 -0.32337387604E+01 -0.48344308579E+02 -0.26203927154E+03  0.27590482446E+03  0.71493098246E+02 0.  0.
          6    2    1    2  501    0 -0.28805834047E+02  0.16928213180E+03 -0.70891053993E+03  0.74944508891E+03  0.17212661457E+03 0.  0.
         24    2    5    5    0    0  0.35424142408E+01  0.17028350849E+02 -0.22402838739E+03  0.24017068857E+03  0.84798159555E+02 0.  0.
          5    1    5    5  501    0 -0.32348248287E+02  0.15225378095E+03 -0.48488215255E+03  0.50927440034E+03  0.47000000000E+01 0. -1.
        -13    1    6    6    0    0  0.11571472819E+02  0.11264283240E+02 -0.22620699420E+00  0.16150363145E+02  0.00000000000E+00 0.  1.
         14    1    6    6    0    0 -0.80290585782E+01  0.57640676094E+01 -0.22380218039E+03  0.22402032543E+03  0.00000000000E+00 0. -1.
         -5    1    3    3    0  503  0.32039572807E+02 -0.12093782322E+03 -0.11514276640E+04  0.11582142491E+04  0.47000000000E+01 0.  1.
         11    1    4    4    0    0  0.55151093140E+01 -0.21213010119E+01 -0.18858348177E+03  0.18867603437E+03  0.00000000000E+00 0. -1.
        -12    1    4    4    0    0 -0.87488480743E+01 -0.46223007567E+02 -0.73455789764E+02  0.87228790093E+02  0.00000000000E+00 0.  1.
</event>
<event>
12    1  0.1629553E-001  0.1975274E+03  0.7818608E-02  0.1152043E+00
         21   -1    0    0  503  502  0.00000000000E+00  0.00000000000E+00  0.46745877381E+03  0.46745877381E+03  0.00000000000E+00 0. -1.
         21   -1    0    0  501  503 -0.00000000000E+00 -0.00000000000E+00 -0.92558712920E+02  0.92558712920E+02  0.00000000000E+00 0. -1.
          6    2    1    2  501    0 -0.43345372331E+01  0.94897199454E+02  0.97400577562E+02  0.21939595921E+03  0.17211463543E+03 0.  0.
         24    2    3    3    0    0 -0.43210512217E+02  0.44189494013E+02  0.11525994766E+03  0.15288535913E+03  0.79178391978E+02 0.  0.
         -6    2    1    2    0  502  0.43345372331E+01 -0.94897199454E+02  0.27749948333E+03  0.34062152753E+03  0.17318428072E+03 0.  0.
        -24    2    5    5    0    0  0.12618620743E+02 -0.13103455866E+03  0.18904356258E+03  0.24459510051E+03  0.82219276860E+02 0.  0.
          5    1    3    3  501    0  0.38875974984E+02  0.50707705441E+02 -0.17859370095E+02  0.66510600074E+02  0.47000000000E+01 0. -1.
        -11    1    4    4    0    0 -0.35286341234E+02  0.48199975810E+02  0.29420616003E+02  0.66587808132E+02  0.00000000000E+00 0.  1.
         12    1    4    4    0    0 -0.79241709825E+01 -0.40104817970E+01  0.85839331655E+02  0.86297551002E+02  0.00000000000E+00 0. -1.
         -5    1    5    5    0  502 -0.82840835099E+01  0.36137359204E+02  0.88455920750E+02  0.96026427017E+02  0.47000000000E+01 0.  1.
         13    1    6    6    0    0 -0.34562868921E+02 -0.69606965541E+02  0.92062352691E+02  0.12047903694E+03  0.00000000000E+00 0. -1.
        -14    1    6    6    0    0  0.47181489664E+02 -0.61427593118E+02  0.96981209889E+02  0.12411606356E+03  0.00000000000E+00 0.  1.
</event>
<event>
12    1  0.1629553E-001  0.1996384E+03  0.7818608E-02  0.1150887E+00
         21   -1    0    0  503  502  0.00000000000E+00  0.00000000000E+00  0.68618683467E+02  0.68618683467E+02  0.00000000000E+00 0. -1.
         21   -1    0    0  501  503 -0.00000000000E+00 -0.00000000000E+00 -0.65803022932E+03  0.65803022932E+03  0.00000000000E+00 0. -1.
          6    2    1    2  501    0  0.88327115552E+02 -0.29114565730E+02 -0.15883685837E+03  0.25204377905E+03  0.17218473132E+03 0.  0.
         24    2    3    3    0    0  0.12203339488E+03  0.69652046355E+01 -0.10887960322E+03  0.18164718511E+03  0.78741782565E+02 0.  0.
         -6    2    1    2    0  502 -0.88327115552E+02  0.29114565730E+02 -0.43057468749E+03  0.47460513374E+03  0.17665258048E+03 0.  0.
        -24    2    5    5    0    0  0.11321663701E+02 -0.13836039488E+02 -0.25974741787E+03  0.27217321991E+03  0.79309044160E+02 0.  0.
          5    1    3    3  501    0 -0.33706279325E+02 -0.36079770365E+02 -0.49957255150E+02  0.70396593935E+02  0.47000000000E+01 0. -1.
        -11    1    4    4    0    0  0.53834341633E+02 -0.33452214057E+02 -0.66050830473E+02  0.91541789203E+02  0.00000000000E+00 0.  1.
         12    1    4    4    0    0  0.68199053244E+02  0.40417418692E+02 -0.42828772744E+02  0.90105395909E+02  0.00000000000E+00 0. -1.
         -5    1    5    5    0  502 -0.99648779252E+02  0.42950605218E+02 -0.17082726962E+03  0.20243191384E+03  0.47000000000E+01 0.  1.
         11    1    6    6    0    0 -0.18837503517E+02 -0.31458407486E+02 -0.67863031617E+02  0.77135426365E+02  0.00000000000E+00 0. -1.
        -12    1    6    6    0    0  0.30159167218E+02  0.17622367997E+02 -0.19188438626E+03  0.19503779354E+03  0.00000000000E+00 0.  1.
</event>
<event>
12    1  0.1629553E-001  0.1751049E+03  0.7818608E-02  0.1172772E+00
         21   -1    0    0  501  502  0.00000000000E+00  0.00000000000E+00  0.67573646006E+02  0.67573646006E+02  0.00000000000E+00 0.  1.
         21   -1    0    0  502  503 -0.00000000000E+00 -0.00000000000E+00 -0.56033663999E+03  0.56033663999E+03  0.00000000000E+00 0.  1.
         -6    2    1    2    0  503  0.26469623106E+02 -0.78047113182E+01 -0.10882229755E+03  0.20616502982E+03  0.17291666377E+03 0.  0.
        -24    2    3    3    0    0 -0.15848832622E+02 -0.50333342571E+02 -0.11048010563E+03  0.14596225165E+03  0.79463792376E+02 0.  0.
          6    2    1    2  501    0 -0.26469623106E+02  0.78047113182E+01 -0.38394069643E+03  0.42174525618E+03  0.17232831533E+03 0.  0.
         24    2    5    5    0    0 -0.28073650652E+02  0.70621047048E+02 -0.20800298373E+03  0.23486392033E+03  0.78232714910E+02 0.  0.
          5    1    5    5  501    0  0.16040275460E+01 -0.62816335730E+02 -0.17593771270E+03  0.18688133585E+03  0.47000000000E+01 0. -1.
        -11    1    6    6    0    0 -0.44107917341E+01  0.56072078051E+01 -0.13158907836E+03  0.13178232585E+03  0.00000000000E+00 0.  1.
         12    1    6    6    0    0 -0.23662858917E+02  0.65013839243E+02 -0.76413905374E+02  0.10308159448E+03  0.00000000000E+00 0. -1.
         -5    1    3    3    0  503  0.42318455728E+02  0.42528631253E+02  0.16578080751E+01  0.60202778167E+02  0.47000000000E+01 0.  1.
         13    1    4    4    0    0  0.12807616115E+02  0.39609077725E+01 -0.72592102452E+02  0.73819625841E+02  0.00000000000E+00 0. -1.
        -14    1    4    4    0    0 -0.28656448738E+02 -0.54294250343E+02 -0.37888003176E+02  0.72142625814E+02  0.00000000000E+00 0.  1.
</event>
<event>
12    1  0.1629553E-001  0.2353004E+03  0.7818608E-02  0.1123356E+00
         21   -1    0    0  503  502  0.00000000000E+00  0.00000000000E+00  0.44786840880E+03  0.44786840880E+03  0.00000000000E+00 0. -1.
         21   -1    0    0  501  503 -0.00000000000E+00 -0.00000000000E+00 -0.19680892074E+03  0.19680892074E+03  0.00000000000E+00 0. -1.
          6    2    1    2  501    0 -0.15086503095E+03 -0.50904847306E+02 -0.72253014731E+02  0.24614380739E+03  0.17324755333E+03 0.  0.
         24    2    3    3    0    0 -0.81167065891E+02 -0.59261036643E+02  0.19992664466E+02  0.13013093067E+03  0.80214646015E+02 0.  0.
         -6    2    1    2    0  502  0.15086503095E+03  0.50904847306E+02  0.32331250279E+03  0.39853352216E+03  0.17013651219E+03 0.  0.
        -24    2    5    5    0    0  0.16347370311E+03  0.47709730843E+02  0.33229117288E+03  0.38204431662E+03  0.80873767447E+02 0.  0.
          5    1    3    3  501    0 -0.69697965058E+02  0.83561893369E+01 -0.92245679197E+02  0.11601287672E+03  0.47000000000E+01 0. -1.
        -11    1    4    4    0    0 -0.68836277629E+02 -0.81031434496E+00  0.99934080687E+01  0.69562618784E+02  0.00000000000E+00 0.  1.
         12    1    4    4    0    0 -0.12330788262E+02 -0.58450722298E+02  0.99992563973E+01  0.60568311887E+02  0.00000000000E+00 0. -1.
         -5    1    5    5    0  502 -0.12608672157E+02  0.31951164630E+01 -0.89786700895E+01  0.16489205540E+02  0.47000000000E+01 0.  1.
         11    1    6    6    0    0  0.76906614365E+02  0.46107203942E+02  0.10090705653E+03  0.13499161325E+03  0.00000000000E+00 0. -1.
        -12    1    6    6    0    0  0.86567088741E+02  0.16025269009E+01  0.23138411635E+03  0.24705270337E+03  0.00000000000E+00 0.  1.
</event>
<event>
12    1  0.1629553E-001  0.2665965E+03  0.7818608E-02  0.1103411E+00
         21   -1    0    0  503  502  0.00000000000E+00  0.00000000000E+00  0.12706625180E+04  0.12706625180E+04  0.00000000000E+00 0. -1.
         21   -1    0    0  501  503 -0.00000000000E+00 -0.00000000000E+00 -0.67811381459E+02  0.67811381459E+02  0.00000000000E+00 0.  1.
          6    2    1    2  501    0  0.94050335336E+02 -0.17984708756E+03  0.31958500526E+03  0.41618295962E+03  0.17286769453E+03 0.  0.
         24    2    3    3    0    0  0.32611268731E+02 -0.18202929177E+03  0.21339664359E+03  0.29339216568E+03  0.79640928422E+02 0.  0.
         -6    2    1    2    0  502 -0.94050335336E+02  0.17984708756E+03  0.88326613128E+03  0.92229093984E+03  0.17108792641E+03 0.  0.
        -24    2    5    5    0    0 -0.51038563537E+02  0.16390302289E+03  0.83228368107E+03  0.85354847887E+03  0.79873300403E+02 0.  0.
          5    1    3    3  501    0  0.61439066606E+02  0.21822042123E+01  0.10618836167E+03  0.12279079394E+03  0.47000000000E+01 0. -1.
        -11    1    4    4    0    0  0.51401356762E+01 -0.14624137066E+03  0.19697295200E+03  0.24537991627E+03  0.00000000000E+00 0.  1.
         12    1    4    4    0    0  0.27471133055E+02 -0.35787921108E+02  0.16423691584E+02  0.48012249414E+02  0.00000000000E+00 0. -1.
         -5    1    5    5    0  502 -0.43011771800E+02  0.15944064666E+02  0.50982450210E+02  0.68742460975E+02  0.47000000000E+01 0.  1.
         13    1    6    6    0    0 -0.71666384950E+02  0.11377364759E+03  0.62432180411E+03  0.63863779148E+03  0.00000000000E+00 0. -1.
        -14    1    6    6    0    0  0.20627821413E+02  0.50129375299E+02  0.20796187696E+03  0.21491068739E+03  0.00000000000E+00 0.  1.
</event>
<event>
12    1  0.1629553E-001  0.2271096E+03  0.7818608E-02  0.1129038E+00
         21   -1    0    0  501  502  0.00000000000E+00  0.00000000000E+00  0.66710141248E+03  0.66710141248E+03  0.00000000000E+00 0. -1.
         21   -1    0    0  502  503 -0.00000000000E+00 -0.00000000000E+00 -0.77944896384E+02  0.77944896384E+02  0.00000000000E+00 0. -1.
         -6    2    1    2    0  503 -0.14734171343E+03  0.69384648473E+01  0.24555572915E+03  0.33317220190E+03  0.17014222636E+03 0.  0.
        -24    2    3    3    0    0 -0.21830504266E+02 -0.42455398545E+01  0.16161295879E+03  0.18169076976E+03  0.79988698223E+02 0.  0.
          6    2    1    2  501    0  0.14734171343E+03 -0.69384648473E+01  0.34360078695E+03  0.41187410696E+03  0.17268774243E+03 0.  0.
         24    2    5    5    0    0  0.15582156451E+03 -0.38424861501E+02  0.33141733152E+03  0.37674822427E+03  0.79655175075E+02 0.  0.
          5    1    5    5  501    0 -0.84798510753E+01  0.31486396653E+02  0.12183455427E+02  0.35125882688E+02  0.47000000000E+01 0. -1.
        -11    1    6    6    0    0  0.37676215379E+02 -0.47329140318E+02  0.10382188024E+03  0.12016042421E+03  0.00000000000E+00 0.  1.
         12    1    6    6    0    0  0.11814534913E+03  0.89042788176E+01  0.22759545128E+03  0.25658780007E+03  0.00000000000E+00 0. -1.
         -5    1    3    3    0  503 -0.12551120916E+03  0.11184004702E+02  0.83942770364E+02  0.15148143214E+03  0.47000000000E+01 0.  1.
         13    1    4    4    0    0 -0.45215862234E+02  0.15547738127E+02  0.12568942181E+03  0.13447690178E+03  0.00000000000E+00 0. -1.
        -14    1    4    4    0    0  0.23385357967E+02 -0.19793277981E+02  0.35923536978E+02  0.47213867979E+02  0.00000000000E+00 0.  1.
</event>
<event>
12    1  0.1629553E-001  0.1791402E+03  0.7818608E-02  0.1168643E+00
         21   -1    0    0  501  502  0.00000000000E+00  0.00000000000E+00  0.35448988075E+02  0.35448988075E+02  0.00000000000E+00 0. -1.
         21   -1    0    0  502  503 -0.00000000000E+00 -0.00000000000E+00 -0.12516264794E+04  0.12516264794E+04  0.00000000000E+00 0. -1.
         -6    2    1    2    0  503 -0.53178670576E+00  0.47959169287E+02 -0.94664202948E+03  0.96343897706E+03  0.17257799925E+03 0.  0.
        -24    2    3    3    0    0  0.41065525833E+01  0.82570450058E+02 -0.88590083130E+03  0.89321762629E+03  0.78630159701E+02 0.  0.
          6    2    1    2  501    0  0.53178670576E+00 -0.47959169287E+02 -0.26953546183E+03  0.32363649040E+03  0.17260025498E+03 0.  0.
         24    2    5    5    0    0 -0.45325015667E+02 -0.78728577043E+02 -0.21448995206E+03  0.24552310536E+03  0.77608696938E+02 0.  0.
          5    1    5    5  501    0  0.45856802373E+02  0.30769407756E+02 -0.55045509771E+02  0.78113385047E+02  0.47000000000E+01 0. -1.
        -11    1    6    6    0    0 -0.49617276345E+02 -0.66005788061E+02 -0.21671394232E+03  0.23191285209E+03  0.00000000000E+00 0.  1.
         12    1    6    6    0    0  0.42922606778E+01 -0.12722788981E+02  0.22239902611E+01  0.13610253263E+02  0.00000000000E+00 0. -1.
         -5    1    3    3    0  503 -0.46383392891E+01 -0.34611280771E+02 -0.60741198177E+02  0.70221350770E+02  0.47000000000E+01 0.  1.
         11    1    4    4    0    0  0.40872691582E+02  0.33956282312E+02 -0.40848767357E+03  0.41192934526E+03  0.00000000000E+00 0. -1.
        -12    1    4    4    0    0 -0.36766138999E+02  0.48614167746E+02 -0.47741315773E+03  0.48128828103E+03  0.00000000000E+00 0.  1.
</event>
<event>
12    1  0.1629553E-001  0.2132320E+03  0.7818608E-02  0.1140613E+00
         21   -1    0    0  501  502  0.00000000000E+00  0.00000000000E+00  0.95416186918E+02  0.95416186918E+02  0.00000000000E+00 0.  1.
         21   -1    0    0  502  503 -0.00000000000E+00 -0.00000000000E+00 -0.16301887484E+04  0.16301887484E+04  0.00000000000E+00 0. -1.
         -6    2    1    2    0  503  0.12425757317E+03 -0.20343708335E+02 -0.15028347983E+04  0.15178867969E+04  0.17208743743E+03 0.  0.
        -24    2    3    3    0    0  0.24088409847E+02 -0.20081941067E+02 -0.10847035656E+04  0.10878987185E+04  0.77189769720E+02 0.  0.
          6    2    1    2  501    0 -0.12425757317E+03  0.20343708335E+02 -0.31937763105E+02  0.20771813839E+03  0.16208946093E+03 0.  0.
         24    2    5    5    0    0 -0.47510574836E+02 -0.17358806127E+02  0.33532866420E+02  0.99921688166E+02  0.79380777044E+02 0.  0.
          5    1    5    5  501    0 -0.76746998335E+02  0.37702514461E+02 -0.65470629524E+02  0.10779645022E+03  0.47000000000E+01 0. -1.
        -13    1    6    6    0    0 -0.39644124986E+02  0.20960604867E+02 -0.48645337893E+01  0.45107286454E+02  0.00000000000E+00 0.  1.
         14    1    6    6    0    0 -0.78664498506E+01 -0.38319410994E+02  0.38397400209E+02  0.54814401712E+02  0.00000000000E+00 0. -1.
         -5    1    3    3    0  503  0.10016916332E+03 -0.26176726806E+00 -0.41813123270E+03  0.42998807840E+03  0.47000000000E+01 0.  1.
         11    1    4    4    0    0  0.29232450320E+02 -0.47306934838E+02 -0.72600870768E+03  0.72813537606E+03  0.00000000000E+00 0. -1.
        -12    1    4    4    0    0 -0.51440404726E+01  0.27224993771E+02 -0.35869485796E+03  0.35976334244E+03  0.00000000000E+00 0.  1.
</event>
<event>
12    1  0.1629553E-001  0.2127487E+03  0.7818608E-02  0.1139570E+00
         21   -1    0    0  503  502  0.00000000000E+00  0.00000000000E+00  0.15856789156E+03  0.15856789156E+03  0.00000000000E+00 0. -1.
         21   -1    0    0  501  503 -0.00000000000E+00 -0.00000000000E+00 -0.48348953972E+03  0.48348953972E+03  0.00000000000E+00 0. -1.
          6    2    1    2  501    0  0.18085341495E+02  0.12279253135E+03 -0.36868784761E+03  0.42566740397E+03  0.17279156373E+03 0.  0.
         24    2    3    3    0    0 -0.44592223420E+02  0.45317501089E+02 -0.13066547695E+03  0.16758292867E+03  0.83477115553E+02 0.  0.
         -6    2    1    2    0  502 -0.18085341495E+02 -0.12279253135E+03  0.43766199450E+02  0.21639002731E+03  0.17176751256E+03 0.  0.
        -24    2    5    5    0    0 -0.47518507457E+00 -0.13901556022E+03 -0.58120788668E+01  0.16113244904E+03  0.81267054148E+02 0.  0.
          5    1    3    3  501    0  0.62677564915E+02  0.77475030258E+02 -0.23802237066E+03  0.25808447530E+03  0.47000000000E+01 0. -1.
        -11    1    4    4    0    0 -0.33561165743E+01  0.33210724257E+02 -0.37517173105E+01  0.33590044759E+02  0.00000000000E+00 0.  1.
         12    1    4    4    0    0 -0.41236106845E+02  0.12106776831E+02 -0.12691375964E+03  0.13399288391E+03  0.00000000000E+00 0. -1.
         -5    1    5    5    0  502 -0.17610156421E+02  0.16223028872E+02  0.49578278317E+02  0.55257578266E+02  0.47000000000E+01 0.  1.
         13    1    6    6    0    0 -0.14173336779E+02 -0.77991582274E+02 -0.41132710612E+02  0.89305488428E+02  0.00000000000E+00 0. -1.
        -14    1    6    6    0    0  0.13698151704E+02 -0.61023977945E+02  0.35320631745E+02  0.71826960615E+02  0.00000000000E+00 0.  1.
</event>
<event>
12    1  0.1629553E-001  0.1773942E+03  0.7818608E-02  0.1170481E+00
         21   -1    0    0  501  502  0.00000000000E+00  0.00000000000E+00  0.19336620750E+03  0.19336620750E+03  0.00000000000E+00 0.  1.
         21   -1    0    0  502  503 -0.00000000000E+00 -0.00000000000E+00 -0.15620416269E+04  0.15620416269E+04  0.00000000000E+00 0.  1.
         -6    2    1    2    0  503 -0.19019597078E+02  0.37542277355E+02 -0.15151005635E+04  0.15253882415E+04  0.17178009830E+03 0.  0.
        -24    2    3    3    0    0  0.16657682237E+02  0.10346532077E+02 -0.13840806855E+04  0.13868213795E+04  0.84909749264E+02 0.  0.
          6    2    1    2  501    0  0.19019597078E+02 -0.37542277355E+02  0.14642514409E+03  0.23001959290E+03  0.17232969168E+03 0.  0.
         24    2    5    5    0    0  0.76546665460E+02 -0.22129352926E+02  0.11927889548E+03  0.16440000246E+03  0.80316907611E+02 0.  0.
          5    1    5    5  501    0 -0.57527068382E+02 -0.15412924429E+02  0.27146248609E+02  0.65619590441E+02  0.47000000000E+01 0. -1.
        -11    1    6    6    0    0 -0.83040447251E+01 -0.15044675728E+02  0.55264393394E+02  0.57874455538E+02  0.00000000000E+00 0.  1.
         12    1    6    6    0    0  0.84850710185E+02 -0.70846771979E+01  0.64014502084E+02  0.10652554692E+03  0.00000000000E+00 0. -1.
         -5    1    3    3    0  503 -0.35677279315E+02  0.27195745278E+02 -0.13101987792E+03  0.13856686195E+03  0.47000000000E+01 0.  1.
         11    1    4    4    0    0  0.35623804720E+02 -0.22600967862E+02 -0.45167647035E+03  0.45364247274E+03  0.00000000000E+00 0. -1.
        -12    1    4    4    0    0 -0.18966122483E+02  0.32947499940E+02 -0.93240421520E+03  0.93317890679E+03  0.00000000000E+00 0.  1.
</event>
<event>
12    1  0.1629553E-001  0.2069802E+03  0.7818608E-02  0.1144948E+00
         21   -1    0    0  501  502  0.00000000000E+00  0.00000000000E+00  0.67513698274E+02  0.67513698274E+02  0.00000000000E+00 0. -1.
         21   -1    0    0  502  503 -0.00000000000E+00 -0.00000000000E+00 -0.64937528339E+03  0.64937528339E+03  0.00000000000E+00 0. -1.
         -6    2    1    2    0  503  0.72920085709E+02 -0.62825622872E+02 -0.36381121304E+03  0.41624503822E+03  0.17786774670E+03 0.  0.
        -24    2    3    3    0    0  0.94694272833E+02  0.33625377400E+00 -0.15590129256E+03  0.19781389822E+03  0.76537617755E+02 0.  0.
          6    2    1    2  501    0 -0.72920085709E+02  0.62825622872E+02 -0.21805037207E+03  0.30064394345E+03  0.18323869182E+03 0.  0.
         24    2    5    5    0    0 -0.56661661113E+02  0.99916291182E+02 -0.88813318583E+02  0.16512877809E+03  0.78650484508E+02 0.  0.
          5    1    5    5  501    0 -0.16258424596E+02 -0.37090668311E+02 -0.12923705349E+03  0.13551516535E+03  0.47000000000E+01 0. -1.
        -13    1    6    6    0    0 -0.89526123765E+01  0.21429598573E+02  0.14115097902E+02  0.27177434613E+02  0.00000000000E+00 0.  1.
         14    1    6    6    0    0 -0.47709048736E+02  0.78486692609E+02 -0.10292841648E+03  0.13795134348E+03  0.00000000000E+00 0. -1.
         -5    1    3    3    0  503 -0.21774187124E+02 -0.63161876646E+02 -0.20790992048E+03  0.21843114000E+03  0.47000000000E+01 0.  1.
         13    1    4    4    0    0  0.98210779123E+02 -0.10530819346E+01 -0.94500415516E+02  0.13629671548E+03  0.00000000000E+00 0. -1.
        -14    1    4    4    0    0 -0.35165062902E+01  0.13893357086E+01 -0.61400877044E+02  0.61517182738E+02  0.00000000000E+00 0.  1.
</event>
<event>
12    1  0.1629553E-001  0.2118705E+03  0.7818608E-02  0.1140208E+00
         21   -1    0    0  503  502  0.00000000000E+00  0.00000000000E+00  0.77578905821E+02  0.77578905821E+02  0.00000000000E+00 0. -1.
         21   -1    0    0  501  503 -0.00000000000E+00 -0.00000000000E+00 -0.11244863029E+04  0.11244863029E+04  0.00000000000E+00 0. -1.
          6    2    1    2  501    0 -0.63289392404E+02 -0.10551684192E+03 -0.94319725876E+03  0.96670066686E+03  0.17248118521E+03 0.  0.
         24    2    3    3    0    0 -0.14305150945E+01 -0.39449713700E+01 -0.26235752482E+03  0.27553628779E+03  0.84090224661E+02 0.  0.
         -6    2    1    2    0  502  0.63289392404E+02  0.10551684192E+03 -0.10371013832E+03  0.23536454187E+03  0.17175949364E+03 0.  0.
        -24    2    5    5    0    0 -0.32953439276E+02  0.38547535083E+02 -0.53389096325E+02  0.10768577317E+03  0.78574732043E+02 0.  0.
          5    1    3    3  501    0 -0.61858877310E+02 -0.10157187055E+03 -0.68083973394E+03  0.69116437907E+03  0.47000000000E+01 0. -1.
        -11    1    4    4    0    0 -0.41560650456E+02 -0.40008192196E+00 -0.16540245639E+03  0.17054448192E+03  0.00000000000E+00 0.  1.
         12    1    4    4    0    0  0.40130135361E+02 -0.35448894481E+01 -0.96955068431E+02  0.10499180587E+03  0.00000000000E+00 0. -1.
         -5    1    5    5    0  502  0.96242831680E+02  0.66969306842E+02 -0.50321041999E+02  0.12767876870E+03  0.47000000000E+01 0.  1.
         13    1    6    6    0    0 -0.38325775961E+02  0.25245270818E+02  0.62758260663E+01  0.46320349680E+02  0.00000000000E+00 0. -1.
        -14    1    6    6    0    0  0.53723366852E+01  0.13302264265E+02 -0.59664922392E+02  0.61365423489E+02  0.00000000000E+00 0.  1.
</event>
<event>
12    1  0.1629553E-001  0.2305369E+03  0.7818608E-02  0.1126848E+00
         21   -1    0    0  501  502  0.00000000000E+00  0.00000000000E+00  0.17801767036E+04  0.17801767036E+04  0.00000000000E+00 0.  1.
         21   -1    0    0  502  503 -0.00000000000E+00 -0.00000000000E+00 -0.36155139329E+02  0.36155139329E+02  0.00000000000E+00 0.  1.
         -6    2    1    2    0  503 -0.11062117824E+03  0.10474589010E+03  0.12586138280E+04  0.12789605202E+04  0.16858973184E+03 0.  0.
        -24    2    3    3    0    0 -0.48683520435E+02  0.73451115749E+01  0.33051806634E+03  0.34370279215E+03  0.80407594952E+02 0.  0.
          6    2    1    2  501    0  0.11062117824E+03 -0.10474589010E+03  0.48540773630E+03  0.53737132274E+03  0.17302751652E+03 0.  0.
         24    2    5    5    0    0  0.90829565271E+02 -0.67641580677E+02  0.47352980737E+03  0.49342120423E+03  0.80053812810E+02 0.  0.
          5    1    5    5  501    0  0.19791612970E+02 -0.37104309419E+02  0.11877928923E+02  0.43950118508E+02  0.47000000000E+01 0. -1.
        -13    1    6    6    0    0  0.80401524370E+02 -0.49685820470E+02  0.22526524549E+03  0.24428982112E+03  0.00000000000E+00 0.  1.
         14    1    6    6    0    0  0.10428040900E+02 -0.17955760207E+02  0.24826456189E+03  0.24913138311E+03  0.00000000000E+00 0. -1.
         -5    1    3    3    0  503 -0.61937657806E+02  0.97400778520E+02  0.92809576168E+03  0.93525772809E+03  0.47000000000E+01 0.  1.
         11    1    4    4    0    0 -0.34815789448E+02 -0.24511684922E+02  0.27451475723E+03  0.27779725310E+03  0.00000000000E+00 0. -1.
        -12    1    4    4    0    0 -0.13867730987E+02  0.31856796497E+02  0.56003309112E+02  0.65905539048E+02  0.00000000000E+00 0.  1.
</event>
<event>
12    1  0.1629553E-001  0.1949121E+03  0.7818608E-02  0.1154302E+00
         21   -1    0    0  501  502  0.00000000000E+00  0.00000000000E+00  0.38571213283E+02  0.38571213283E+02  0.00000000000E+00 0.  1.
         21   -1    0    0  502  503 -0.00000000000E+00 -0.00000000000E+00 -0.11001425852E+04  0.11001425852E+04  0.00000000000E+00 0.  1.
         -6    2    1    2    0  503  0.91198797972E+02 -0.12504538184E+02 -0.71973973082E+03  0.74566481463E+03  0.17180556284E+03 0.  0.
        -24    2    3    3    0    0  0.46172800651E+02 -0.62470494814E+02 -0.56079953282E+03  0.57301483983E+03  0.88404753334E+02 0.  0.
          6    2    1    2  501    0 -0.91198797972E+02  0.12504538184E+02 -0.34183164108E+03  0.39304898384E+03  0.17077777557E+03 0.  0.
         24    2    5    5    0    0 -0.12750235390E+03  0.70756946728E+01 -0.22901423308E+03  0.27431702495E+03  0.80594016640E+02 0.  0.
          5    1    5    5  501    0  0.36303555927E+02  0.54288435117E+01 -0.11281740800E+03  0.11873195889E+03  0.47000000000E+01 0. -1.
        -11    1    6    6    0    0 -0.52124345729E+02 -0.16423626622E+02 -0.35117677137E+02  0.64961020440E+02  0.00000000000E+00 0.  1.
         12    1    6    6    0    0 -0.75378008170E+02  0.23499321295E+02 -0.19389655595E+03  0.20935600451E+03  0.00000000000E+00 0. -1.
         -5    1    3    3    0  503  0.45025997321E+02  0.49965956629E+02 -0.15894019801E+03  0.17264997480E+03  0.47000000000E+01 0.  1.
         11    1    4    4    0    0  0.78059719210E+01 -0.76383958549E+02 -0.35524899075E+03  0.36345190569E+03  0.00000000000E+00 0. -1.
        -12    1    4    4    0    0  0.38366828730E+02  0.13913463735E+02 -0.20555054207E+03  0.20956293414E+03  0.00000000000E+00 0.  1.
</event>
<event>
12    1  0.1629553E-001  0.1994157E+03  0.7818608E-02  0.1150707E+00
         21   -1    0    0  503  502  0.00000000000E+00  0.00000000000E+00  0.34164002849E+03  0.34164002849E+03  0.00000000000E+00 0.  1.
         21   -1    0    0  501  503 -0.00000000000E+00 -0.00000000000E+00 -0.16641284760E+03  0.16641284760E+03  0.00000000000E+00 0.  1.
          6    2    1    2  501    0  0.66607114429E+02  0.75232884665E+02 -0.53099358805E+02  0.20636417511E+03  0.17225021404E+03 0.  0.
         24    2    3    3    0    0  0.91616087451E+02  0.36166138729E+02 -0.82009732311E+02  0.15150472683E+03  0.80787307096E+02 0.  0.
         -6    2    1    2    0  502 -0.66607114429E+02 -0.75232884665E+02  0.22832653970E+03  0.30168870098E+03  0.16966605123E+03 0.  0.
        -24    2    5    5    0    0  0.66923033879E+01 -0.50263213997E+01  0.36807965031E+02  0.84886439411E+02  0.76031772797E+02 0.  0.
          5    1    3    3  501    0 -0.25008973022E+02  0.39066745936E+02  0.28910373506E+02  0.54859448283E+02  0.47000000000E+01 0. -1.
        -11    1    4    4    0    0  0.83319516008E+02  0.49607491718E+02 -0.36973893375E+02  0.10377915867E+03  0.00000000000E+00 0.  1.
         12    1    4    4    0    0  0.82965714431E+01 -0.13441352989E+02 -0.45035838936E+02  0.47725568164E+02  0.00000000000E+00 0. -1.
         -5    1    5    5    0  502 -0.73299417817E+02 -0.70206563266E+02  0.19151857467E+03  0.21680226157E+03  0.47000000000E+01 0.  1.
         11    1    6    6    0    0 -0.15556526977E+02  0.27511395622E+02  0.98108298372E+00  0.31620324864E+02  0.00000000000E+00 0. -1.
        -12    1    6    6    0    0  0.22248830365E+02 -0.32537717022E+02  0.35826882047E+02  0.53266114546E+02  0.00000000000E+00 0.  1.
</event>
<event>
12    1  0.1629553E-001  0.2013310E+03  0.7818608E-02  0.1148659E+00
         21   -1    0    0  501  502  0.00000000000E+00  0.00000000000E+00  0.38117338896E+02  0.38117338896E+02  0.00000000000E+00 0.  1.
         21   -1    0    0  502  503 -0.00000000000E+00 -0.00000000000E+00 -0.12473826476E+04  0.12473826476E+04  0.00000000000E+00 0. -1.
         -6    2    1    2    0  503  0.33700987432E+02  0.98355089067E+02 -0.35690743966E+03  0.40968716850E+03  0.17219516674E+03 0.  0.
        -24    2    3    3    0    0  0.57241212420E+02  0.92022477150E+02 -0.15583829658E+03  0.20709118023E+03  0.82803922285E+02 0.  0.
          6    2    1    2  501    0 -0.33700987432E+02 -0.98355089067E+02 -0.85235786904E+03  0.87581281799E+03  0.17240845439E+03 0.  0.
         24    2    5    5    0    0  0.30492867062E+02 -0.35489336899E+02 -0.26143723495E+03  0.27808190902E+03  0.82406385244E+02 0.  0.
          5    1    5    5  501    0 -0.64193854494E+02 -0.62865752168E+02 -0.59092063409E+03  0.59773090897E+03  0.47000000000E+01 0. -1.
        -11    1    6    6    0    0  0.51881280663E+01  0.10101813917E+02  0.14115130791E+00  0.11357078891E+02  0.00000000000E+00 0.  1.
         12    1    6    6    0    0  0.25304738995E+02 -0.45591150816E+02 -0.26157838626E+03  0.26672483012E+03  0.00000000000E+00 0. -1.
         -5    1    3    3    0  503 -0.23540224988E+02  0.63326119172E+01 -0.20106914308E+03  0.20259598828E+03  0.47000000000E+01 0.  1.
         11    1    4    4    0    0  0.10649284877E+02 -0.15689842001E+02 -0.19497908510E+02  0.27198287569E+02  0.00000000000E+00 0. -1.
        -12    1    4    4    0    0  0.46591927543E+02  0.10771231915E+03 -0.13634038807E+03  0.17989289266E+03  0.00000000000E+00 0.  1.
</event>
<event>
12    1  0.1629553E-001  0.1992855E+03  0.7818608E-02  0.1150510E+00
         21   -1    0    0  501  502  0.00000000000E+00  0.00000000000E+00  0.17335607621E+04  0.17335607621E+04  0.00000000000E+00 0. -1.
         21   -1    0    0  502  503 -0.00000000000E+00 -0.00000000000E+00 -0.23341749311E+02  0.23341749311E+02  0.00000000000E+00 0. -1.
         -6    2    1    2    0  503  0.19543497458E+02 -0.99760815772E+02  0.72203987499E+03  0.74882875139E+03  0.17049559873E+03 0.  0.
        -24    2    3    3    0    0  0.59613879653E+02 -0.10386702475E+03  0.65831308794E+03  0.67329273436E+03  0.74865285118E+02 0.  0.
          6    2    1    2  501    0 -0.19543497458E+02  0.99760815772E+02  0.98817913784E+03  0.10080737601E+04  0.17140749282E+03 0.  0.
         24    2    5    5    0    0 -0.48860301902E+02  0.86630881906E+02  0.41690483521E+03  0.43587773680E+03  0.79293890137E+02 0.  0.
          5    1    5    5  501    0  0.29316804443E+02  0.13129933866E+02  0.57127430263E+03  0.57219602326E+03  0.47000000000E+01 0. -1.
        -11    1    6    6    0    0 -0.17150732436E+02  0.64896047872E+02  0.12901214489E+03  0.14542963309E+03  0.00000000000E+00 0.  1.
         12    1    6    6    0    0 -0.31709569466E+02  0.21734834034E+02  0.28789269032E+03  0.29044810370E+03  0.00000000000E+00 0. -1.
         -5    1    3    3    0  503 -0.40070382195E+02  0.41062089781E+01  0.63726787046E+02  0.75536017029E+02  0.47000000000E+01 0.  1.
         11    1    4    4    0    0 -0.11164387972E+02 -0.33214029652E+02  0.96878133710E+02  0.10302032865E+03  0.00000000000E+00 0. -1.
        -12    1    4    4    0    0  0.70778267625E+02 -0.70652995098E+02  0.56143495423E+03  0.57027240571E+03  0.00000000000E+00 0.  1.
</event>
<event>
12    1  0.1629553E-001  0.2002668E+03  0.7818608E-02  0.1150026E+00
         21   -1    0    0  501  502  0.00000000000E+00  0.00000000000E+00  0.15801542366E+02  0.15801542366E+02  0.00000000000E+00 0.  1.
         21   -1    0    0  502  503 -0.00000000000E+00 -0.00000000000E+00 -0.26915656703E+04  0.26915656703E+04  0.00000000000E+00 0.  1.
         -6    2    1    2    0  503  0.35893236664E+02  0.90775172848E+02 -0.99160360169E+03  0.10116246898E+04  0.17486667383E+03 0.  0.
        -24    2    3    3    0    0  0.68637784935E+02 -0.33263776730E+01 -0.48769131519E+03  0.49793510477E+03  0.73309885679E+02 0.  0.
          6    2    1    2  501    0 -0.35893236664E+02 -0.90775172848E+02 -0.16841605262E+04  0.16957425229E+04  0.17209755770E+03 0.  0.
         24    2    5    5    0    0 -0.75770540730E+02 -0.80861323612E+02 -0.15295798061E+04  0.15357244838E+04  0.80966527168E+02 0.  0.
          5    1    5    5  501    0  0.39877304066E+02 -0.99138492362E+01 -0.15458072020E+03  0.16001803912E+03  0.47000000000E+01 0. -1.
        -13    1    6    6    0    0 -0.10506265684E+02 -0.25105295924E+02 -0.88931333991E+03  0.88972966346E+03  0.00000000000E+00 0.  1.
         14    1    6    6    0    0 -0.65264275046E+02 -0.55756027688E+02 -0.64026646614E+03  0.64599482032E+03  0.00000000000E+00 0. -1.
         -5    1    3    3    0  503 -0.32744548271E+02  0.94101550521E+02 -0.50391228650E+03  0.51368958500E+03  0.47000000000E+01 0.  1.
         13    1    4    4    0    0  0.12193543193E+02 -0.15612213852E+02 -0.31924694201E+03  0.31986095995E+03  0.00000000000E+00 0. -1.
        -14    1    4    4    0    0  0.56444241742E+02  0.12285836179E+02 -0.16844437317E+03  0.17807414481E+03  0.00000000000E+00 0.  1.
</event>
<event>
12    1  0.1629553E-001  0.2456361E+03  0.7818608E-02  0.1116513E+00
         21   -1    0    0  501  502  0.00000000000E+00  0.00000000000E+00  0.49559325356E+03  0.49559325356E+03  0.00000000000E+00 0. -1.
         21   -1    0    0  502  503 -0.00000000000E+00 -0.00000000000E+00 -0.18549062449E+03  0.18549062449E+03  0.00000000000E+00 0. -1.
         -6    2    1    2    0  503 -0.17349318697E+03  0.36742510771E+01 -0.46030339069E+02  0.24991172591E+03  0.17384962636E+03 0.  0.
        -24    2    3    3    0    0 -0.17791020073E+03  0.70556338621E+01  0.76749771954E+01  0.19571491092E+03  0.80892518752E+02 0.  0.
          6    2    1    2  501    0  0.17349318697E+03 -0.36742510771E+01  0.35613296814E+03  0.43117215214E+03  0.17019209070E+03 0.  0.
         24    2    5    5    0    0  0.19604987657E+03  0.25563093380E+01  0.34476941055E+03  0.40473648363E+03  0.80644813237E+02 0.  0.
          5    1    5    5  501    0 -0.22556689600E+02 -0.62305604151E+01  0.11363557589E+02  0.26435668516E+02  0.47000000000E+01 0. -1.
        -13    1    6    6    0    0  0.38457584497E+02 -0.22380327606E+02  0.36214809259E+02  0.57370526220E+02  0.00000000000E+00 0.  1.
         14    1    6    6    0    0  0.15759229208E+03  0.24936636944E+02  0.30855460130E+03  0.34736595741E+03  0.00000000000E+00 0. -1.
         -5    1    3    3    0  503  0.44170137533E+01 -0.33813827850E+01 -0.53705316264E+02  0.54196814990E+02  0.47000000000E+01 0.  1.
         11    1    4    4    0    0 -0.78808476729E+02  0.29857648775E+02  0.33672998950E+02  0.90753104922E+02  0.00000000000E+00 0. -1.
        -12    1    4    4    0    0 -0.99101723998E+02 -0.22802014913E+02 -0.25998021754E+02  0.10496180600E+03  0.00000000000E+00 0.  1.
</event>
<event>
12    1  0.1629553E-001  0.1764054E+03  0.7818608E-02  0.1171933E+00
         21   -1    0    0  503  502  0.00000000000E+00  0.00000000000E+00  0.14673697901E+03  0.14673697901E+03  0.00000000000E+00 0. -1.
         21   -1    0    0  501  503 -0.00000000000E+00 -0.00000000000E+00 -0.21110060789E+03  0.21110060789E+03  0.00000000000E+00 0. -1.
          6    2    1    2  501    0  0.85095612257E+01 -0.32165863577E+02 -0.49494593761E+02  0.18321726531E+03  0.17323912977E+03 0.  0.
         24    2    3    3    0    0 -0.29107198403E+02 -0.74089497572E+02 -0.95056382954E+01  0.11397986031E+03  0.81022026309E+02 0.  0.
         -6    2    1    2    0  502 -0.85095612257E+01  0.32165863577E+02 -0.14869035121E+02  0.17462032158E+03  0.17077503650E+03 0.  0.
        -24    2    5    5    0    0 -0.13672215032E+01  0.13963493602E+02  0.57404842512E+02  0.99600706296E+02  0.80175659041E+02 0.  0.
          5    1    3    3  501    0  0.37616759629E+02  0.41923633996E+02 -0.39988955466E+02  0.69237405004E+02  0.47000000000E+01 0. -1.
        -11    1    4    4    0    0 -0.35833108849E+02 -0.85385648522E+02 -0.22712886863E+02  0.95344616486E+02  0.00000000000E+00 0.  1.
         12    1    4    4    0    0  0.67259104455E+01  0.11296150949E+02  0.13207248567E+02  0.18635243822E+02  0.00000000000E+00 0. -1.
         -5    1    5    5    0  502 -0.71423397225E+01  0.18202369975E+02 -0.72273877632E+02  0.75019615285E+02  0.47000000000E+01 0.  1.
         11    1    6    6    0    0  0.72232944823E+01 -0.25629130154E+02 -0.30756984107E+01  0.26804630502E+02  0.00000000000E+00 0. -1.
        -12    1    6    6    0    0 -0.85905159855E+01  0.39592623756E+02  0.60480540922E+02  0.72796075794E+02  0.00000000000E+00 0.  1.
</event>
<event>
12    1  0.1629553E-001  0.1946919E+03  0.7818608E-02  0.1154364E+00
         21   -1    0    0  503  502  0.00000000000E+00  0.00000000000E+00  0.29232261516E+03  0.29232261516E+03  0.00000000000E+00 0.  1.
         21   -1    0    0  501  503 -0.00000000000E+00 -0.00000000000E+00 -0.46494320817E+03  0.46494320817E+03  0.00000000000E+00 0.  1.
          6    2    1    2  501    0 -0.40111263802E+02  0.85154912381E+02 -0.40791797248E+03  0.45186475604E+03  0.17007178749E+03 0.  0.
         24    2    3    3    0    0 -0.31684329826E+02 -0.20519507258E+02 -0.19253048041E+03  0.21175653478E+03  0.79673692007E+02 0.  0.
         -6    2    1    2    0  502  0.40111263802E+02 -0.85154912381E+02  0.23529737947E+03  0.30540106728E+03  0.17042500559E+03 0.  0.
        -24    2    5    5    0    0  0.10945653903E+02 -0.12005270067E+03  0.20487343828E+03  0.25048117448E+03  0.78963502837E+02 0.  0.
          5    1    3    3  501    0 -0.84269339760E+01  0.10567441964E+03 -0.21538749207E+03  0.24010822127E+03  0.47000000000E+01 0. -1.
        -13    1    4    4    0    0 -0.41194458745E+02 -0.28051375724E+02 -0.57129646654E+02  0.75813320981E+02  0.00000000000E+00 0.  1.
         14    1    4    4    0    0  0.95101289193E+01  0.75318684659E+01 -0.13540083376E+03  0.13594321380E+03  0.00000000000E+00 0. -1.
         -5    1    5    5    0  502  0.29165609898E+02  0.34897788287E+02  0.30423941183E+02  0.54919892800E+02  0.47000000000E+01 0.  1.
         13    1    6    6    0    0 -0.53383406852E+01 -0.99053418007E+02  0.94680485420E+02  0.13712939809E+03  0.00000000000E+00 0. -1.
        -14    1    6    6    0    0  0.16283994589E+02 -0.20999282661E+02  0.11019295286E+03  0.11335177640E+03  0.00000000000E+00 0.  1.
</event>
<event>
12    1  0.1629553E-001  0.2807056E+03  0.7818608E-02  0.1095472E+00
         21   -1    0    0  503  502  0.00000000000E+00  0.00000000000E+00  0.71019687022E+03  0.71019687022E+03  0.00000000000E+00 0. -1.
         21   -1    0    0  501  503 -0.00000000000E+00 -0.00000000000E+00 -0.34553798934E+03  0.34553798934E+03  0.00000000000E+00 0.  1.
          6    2    1    2  501    0 -0.18877622334E+03  0.11397326504E+03 -0.25293438824E+03  0.37785110648E+03  0.17369308065E+03 0.  0.
         24    2    3    3    0    0 -0.21362470134E+03  0.10456187161E+03 -0.24253520447E+03  0.34893304624E+03  0.79763696847E+02 0.  0.
         -6    2    1    2    0  502  0.18877622334E+03 -0.11397326504E+03  0.61759326912E+03  0.67788375308E+03  0.17169324095E+03 0.  0.
        -24    2    5    5    0    0  0.20982584632E+03 -0.11905795276E+03  0.53199344106E+03  0.58946225547E+03  0.79038265360E+02 0.  0.
          5    1    3    3  501    0  0.24848477992E+02  0.94113934288E+01 -0.10399183768E+02  0.28918060236E+02  0.47000000000E+01 0. -1.
        -13    1    4    4    0    0 -0.17771227293E+03  0.72566054397E+02 -0.22931068963E+03  0.29904995666E+03  0.00000000000E+00 0.  1.
         14    1    4    4    0    0 -0.35912428402E+02  0.31995817216E+02 -0.13224514844E+02  0.49883089578E+02  0.00000000000E+00 0. -1.
         -5    1    5    5    0  502 -0.21049622978E+02  0.50846877141E+01  0.85599828059E+02  0.88421497614E+02  0.47000000000E+01 0.  1.
         11    1    6    6    0    0  0.91407553494E+02 -0.58572618425E+02  0.33199006279E+03  0.34928998591E+03  0.00000000000E+00 0. -1.
        -12    1    6    6    0    0  0.11841829283E+03 -0.60485334331E+02  0.20000337827E+03  0.24017226955E+03  0.00000000000E+00 0.  1.
</event>
<event>
12    1  0.1629553E-001  0.1988843E+03  0.7818608E-02  0.1150800E+00
         21   -1    0    0  503  502  0.00000000000E+00  0.00000000000E+00  0.15192549938E+04  0.15192549938E+04  0.00000000000E+00 0. -1.
         21   -1    0    0  501  503 -0.00000000000E+00 -0.00000000000E+00 -0.69056434080E+02  0.69056434080E+02  0.00000000000E+00 0.  1.
          6    2    1    2  501    0  0.84458872515E+02 -0.50984690314E+02  0.98135252548E+02  0.22177801403E+03  0.17269111130E+03 0.  0.
         24    2    3    3    0    0  0.43069886725E+02 -0.10136540974E+03  0.74369434206E+02  0.15222106502E+03  0.74232596992E+02 0.  0.
         -6    2    1    2    0  502 -0.84458872515E+02  0.50984690314E+02  0.13520633072E+04  0.13665334139E+04  0.17206290935E+03 0.  0.
        -24    2    5    5    0    0  0.22534170029E+02  0.10069898820E+02  0.54392002540E+03  0.55029865278E+03  0.79814920487E+02 0.  0.
          5    1    3    3  501    0  0.41388985790E+02  0.50380719427E+02  0.23765818343E+02  0.69556949014E+02  0.47000000000E+01 0. -1.
        -11    1    4    4    0    0  0.17535807798E+02 -0.17449014767E+02 -0.13400436880E+02  0.28134398519E+02  0.00000000000E+00 0.  1.
         12    1    4    4    0    0  0.25534078927E+02 -0.83916394974E+02  0.87769871085E+02  0.12408666650E+03  0.00000000000E+00 0. -1.
         -5    1    5    5    0  502 -0.10699304254E+03  0.40914791494E+02  0.80814328181E+03  0.81623476111E+03  0.47000000000E+01 0.  1.
         13    1    6    6    0    0 -0.14068363015E+02 -0.31603958742E+00  0.42926440786E+03  0.42949499482E+03  0.00000000000E+00 0. -1.
        -14    1    6    6    0    0  0.36602533045E+02  0.10385938407E+02  0.11465561754E+03  0.12080365796E+03  0.00000000000E+00 0.  1.
</event>
<event>
12    1  0.1629553E-001  0.4108385E+03  0.7818608E-02  0.1040637E+00
         21   -1    0    0  501  502  0.00000000000E+00  0.00000000000E+00  0.22884305603E+03  0.22884305603E+03  0.00000000000E+00 0. -1.
         21   -1    0    0  502  503 -0.00000000000E+00 -0.00000000000E+00 -0.79177114282E+03  0.79177114282E+03  0.00000000000E+00 0.  1.
         -6    2    1    2    0  503  0.29561291109E+03  0.21553067950E+03 -0.42650525309E+03  0.58771762152E+03  0.17223473731E+03 0.  0.
        -24    2    3    3    0    0  0.26706248999E+03  0.13175083790E+03 -0.37386897494E+03  0.48463097748E+03  0.80053213944E+02 0.  0.
          6    2    1    2  501    0 -0.29561291109E+03 -0.21553067950E+03 -0.13642283370E+03  0.43289657733E+03  0.18694328044E+03 0.  0.
         24    2    5    5    0    0 -0.39986583618E+02 -0.80391556961E+02 -0.61605822002E+02  0.13418756010E+03  0.78417438623E+02 0.  0.
          5    1    5    5  501    0 -0.25562632747E+03 -0.13513912254E+03 -0.74817011700E+02  0.29870901723E+03  0.47000000000E+01 0. -1.
        -11    1    6    6    0    0 -0.35057663702E+02 -0.85965411888E+02 -0.24052465043E+02  0.95904186040E+02  0.00000000000E+00 0.  1.
         12    1    6    6    0    0 -0.49289199162E+01  0.55738549268E+01 -0.37553356960E+02  0.38283374058E+02  0.00000000000E+00 0. -1.
         -5    1    3    3    0  503  0.28550421092E+02  0.83779841600E+02 -0.52636278142E+02  0.10308664404E+03  0.47000000000E+01 0.  1.
         13    1    4    4    0    0  0.11760452159E+03  0.19330073120E+02 -0.11814637801E+03  0.16781847891E+03  0.00000000000E+00 0. -1.
        -14    1    4    4    0    0  0.14945796840E+03  0.11242076478E+03 -0.25572259693E+03  0.31681249858E+03  0.00000000000E+00 0.  1.
</event>
<event>
12    1  0.1629553E-001  0.3110969E+03  0.7818608E-02  0.1080327E+00
         21   -1    0    0  503  502  0.00000000000E+00  0.00000000000E+00  0.62548661912E+02  0.62548661912E+02  0.00000000000E+00 0. -1.
         21   -1    0    0  501  503 -0.00000000000E+00 -0.00000000000E+00 -0.15272434818E+04  0.15272434818E+04  0.00000000000E+00 0. -1.
          6    2    1    2  501    0  0.83976156400E+02 -0.24233664950E+03 -0.74561766001E+03  0.80630425918E+03  0.16852838608E+03 0.  0.
         24    2    3    3    0    0  0.61810974408E+02 -0.57104779328E+02 -0.27233636402E+03  0.29756128266E+03  0.85405324147E+02 0.  0.
         -6    2    1    2    0  502 -0.83976156400E+02  0.24233664950E+03 -0.71907715983E+03  0.78348788449E+03  0.17607457741E+03 0.  0.
        -24    2    5    5    0    0 -0.92770220508E+02  0.10568784061E+03 -0.49457166082E+03  0.52047639877E+03  0.80736116580E+02 0.  0.
          5    1    3    3  501    0  0.22165181992E+02 -0.18523187017E+03 -0.47328129600E+03  0.50874297652E+03  0.47000000000E+01 0. -1.
        -13    1    4    4    0    0  0.39201260937E+02 -0.23931735358E+02 -0.37430102279E+02  0.59249298502E+02  0.00000000000E+00 0.  1.
         14    1    4    4    0    0  0.22609713471E+02 -0.33173043970E+02 -0.23490626174E+03  0.23831198416E+03  0.00000000000E+00 0. -1.
         -5    1    5    5    0  502  0.87940641089E+01  0.13664880889E+03 -0.22450549901E+03  0.26301148572E+03  0.47000000000E+01 0.  1.
         13    1    6    6    0    0 -0.43983559765E+02  0.14223082824E+01 -0.95840996433E+02  0.10546123974E+03  0.00000000000E+00 0. -1.
        -14    1    6    6    0    0 -0.48786660743E+02  0.10426553233E+03 -0.39873066439E+03  0.41501515902E+03  0.00000000000E+00 0.  1.
</event>
<event>
12    1  0.1629553E-001  0.2016868E+03  0.7818608E-02  0.1148332E+00
         21   -1    0    0  501  502  0.00000000000E+00  0.00000000000E+00  0.70257913176E+02  0.70257913176E+02  0.00000000000E+00 0. -1.
         21   -1    0    0  502  503 -0.00000000000E+00 -0.00000000000E+00 -0.59232757449E+03  0.59232757449E+03  0.00000000000E+00 0. -1.
         -6    2    1    2    0  503  0.94034793053E+02 -0.47654033158E+02 -0.21105269340E+03  0.29189811612E+03  0.17189479814E+03 0.  0.
        -24    2    3    3    0    0  0.76395729787E+01 -0.47628826114E+02 -0.17464212498E+03  0.19802610656E+03  0.79922455603E+02 0.  0.
          6    2    1    2  501    0 -0.94034793053E+02  0.47654033158E+02 -0.31101696792E+03  0.37068737154E+03  0.17194221095E+03 0.  0.
         24    2    5    5    0    0  0.11923119031E+02  0.53880487195E+02 -0.12289922139E+03  0.15464056082E+03  0.75922439144E+02 0.  0.
          5    1    5    5  501    0 -0.10595791208E+03 -0.62264540376E+01 -0.18811774653E+03  0.21604681072E+03  0.47000000000E+01 0. -1.
        -13    1    6    6    0    0  0.17595598675E+02 -0.15379004287E+02 -0.41369863934E+02  0.47514045371E+02  0.00000000000E+00 0.  1.
         14    1    6    6    0    0 -0.56724796446E+01  0.69259491482E+02 -0.81529357451E+02  0.10712651545E+03  0.00000000000E+00 0. -1.
         -5    1    3    3    0  503  0.86395220074E+02 -0.25207043778E-01 -0.36410568416E+02  0.93872009563E+02  0.47000000000E+01 0.  1.
         11    1    4    4    0    0  0.25746407644E+02 -0.54740883278E+02 -0.74282196709E+02  0.95798155288E+02  0.00000000000E+00 0. -1.
        -12    1    4    4    0    0 -0.18106834665E+02  0.71120571646E+01 -0.10035992827E+03  0.10222795127E+03  0.00000000000E+00 0.  1.
</event>
<event>
12    1  0.1629553E-001  0.2142932E+03  0.7818608E-02  0.1140065E+00
         21   -1    0    0  501  502  0.00000000000E+00  0.00000000000E+00  0.52925033259E+03  0.52925033259E+03  0.00000000000E+00 0. -1.
         21   -1    0    0  502  503 -0.00000000000E+00 -0.00000000000E+00 -0.14952404901E+03  0.14952404901E+03  0.00000000000E+00 0. -1.
         -6    2    1    2    0  503 -0.69001394311E+00  0.12741380981E+03 -0.38826735850E+02  0.20855293231E+03  0.16047446872E+03 0.  0.
        -24    2    3    3    0    0 -0.27146951034E+01  0.85773736812E+02 -0.85673647421E+02  0.14566638259E+03  0.80710703486E+02 0.  0.
          6    2    1    2  501    0  0.69001394311E+00 -0.12741380981E+03  0.41855301943E+03  0.47022144928E+03  0.17229865422E+03 0.  0.
         24    2    5    5    0    0  0.19488547723E+02 -0.26940801331E+02  0.83692936790E+02  0.12007637186E+03  0.79424285586E+02 0.  0.
          5    1    5    5  501    0 -0.18798533780E+02 -0.10047300848E+03  0.33486008264E+03  0.35014507743E+03  0.47000000000E+01 0. -1.
        -11    1    6    6    0    0 -0.11677954265E+02  0.14922568046E+02  0.59699245405E+02  0.62634316112E+02  0.00000000000E+00 0.  1.
         12    1    6    6    0    0  0.31166501988E+02 -0.41863369377E+02  0.23993691385E+02  0.57442055743E+02  0.00000000000E+00 0. -1.
         -5    1    3    3    0  503  0.20246811603E+01  0.41640072994E+02  0.46846911571E+02  0.62886549727E+02  0.47000000000E+01 0.  1.
         13    1    4    4    0    0 -0.28626366010E+01  0.52027036749E+02  0.15636447594E+01  0.52129187852E+02  0.00000000000E+00 0. -1.
        -14    1    4    4    0    0  0.14794149758E+00  0.33746700063E+02 -0.87237292180E+02  0.93537194734E+02  0.00000000000E+00 0.  1.
</event>
<event>
12    1  0.1629553E-001  0.3914901E+03  0.7818608E-02  0.1046792E+00
         21   -1    0    0  503  502  0.00000000000E+00  0.00000000000E+00  0.91102243067E+03  0.91102243067E+03  0.00000000000E+00 0.  1.
         21   -1    0    0  501  503 -0.00000000000E+00 -0.00000000000E+00 -0.17375365461E+03  0.17375365461E+03  0.00000000000E+00 0. -1.
          6    2    1    2  501    0  0.10438810006E+03  0.33580874437E+03  0.46647715093E+03  0.60898720635E+03  0.17204678704E+03 0.  0.
         24    2    3    3    0    0  0.13904531141E+03  0.28902477391E+03  0.40280271618E+03  0.52257895540E+03  0.89273836669E+02 0.  0.
         -6    2    1    2    0  502 -0.10438810006E+03 -0.33580874437E+03  0.27079162513E+03  0.47578887892E+03  0.17141343248E+03 0.  0.
        -24    2    5    5    0    0 -0.12058323662E+03 -0.20029405711E+03  0.21683899806E+03  0.32895738066E+03  0.80844176948E+02 0.  0.
          5    1    3    3  501    0 -0.34657211350E+02  0.46783970461E+02  0.63674434758E+02  0.86408250950E+02  0.47000000000E+01 0. -1.
        -13    1    4    4    0    0  0.21764119040E+02  0.11911693822E+03  0.19581756560E+03  0.23023257990E+03  0.00000000000E+00 0.  1.
         14    1    4    4    0    0  0.11728119237E+03  0.16990783569E+03  0.20698515057E+03  0.29234637550E+03  0.00000000000E+00 0. -1.
         -5    1    5    5    0  502  0.16195136561E+02 -0.13551468727E+03  0.53952627066E+02  0.14683149826E+03  0.47000000000E+01 0.  1.
         11    1    6    6    0    0 -0.10391781573E+03 -0.14851073086E+03  0.11844287545E+03  0.21652497397E+03  0.00000000000E+00 0. -1.
        -12    1    6    6    0    0 -0.16665420896E+02 -0.51783326242E+02  0.98396122611E+02  0.11243240669E+03  0.00000000000E+00 0.  1.
</event>
<event>
12    1  0.1629553E-001  0.2088850E+03  0.7818608E-02  0.1142637E+00
         21   -1    0    0  503  502  0.00000000000E+00  0.00000000000E+00  0.32941146716E+02  0.32941146716E+02  0.00000000000E+00 0.  1.
         21   -1    0    0  501  503 -0.00000000000E+00 -0.00000000000E+00 -0.13844921217E+04  0.13844921217E+04  0.00000000000E+00 0.  1.
          6    2    1    2  501    0 -0.56262810226E+02 -0.10180831957E+03 -0.52271598930E+03  0.56290756863E+03  0.17350068472E+03 0.  0.
         24    2    3    3    0    0 -0.92574155271E+02 -0.92274399190E+02 -0.30319423418E+03  0.34014917846E+03  0.81793526630E+02 0.  0.
         -6    2    1    2    0  502  0.56262810226E+02  0.10180831957E+03 -0.82883498570E+03  0.85452569981E+03  0.17238416506E+03 0.  0.
        -24    2    5    5    0    0  0.94778878065E+02  0.28881628983E+02 -0.51566565048E+03  0.53064468430E+03  0.76521458916E+02 0.  0.
          5    1    3    3  501    0  0.36311345045E+02 -0.95339203821E+01 -0.21952175512E+03  0.22275839017E+03  0.47000000000E+01 0. -1.
        -11    1    4    4    0    0 -0.12837612473E+02 -0.39705319921E+02 -0.17720514434E+03  0.18205213513E+03  0.00000000000E+00 0.  1.
         12    1    4    4    0    0 -0.79736542798E+02 -0.52569079269E+02 -0.12598908984E+03  0.15809704334E+03  0.00000000000E+00 0. -1.
         -5    1    5    5    0  502 -0.38516067839E+02  0.72926690589E+02 -0.31316933522E+03  0.32388101550E+03  0.47000000000E+01 0.  1.
         13    1    6    6    0    0  0.78221893489E+02 -0.81385217611E+01 -0.25526486533E+03  0.26710494498E+03  0.00000000000E+00 0. -1.
        -14    1    6    6    0    0  0.16556984576E+02  0.37020150744E+02 -0.26040078515E+03  0.26353973933E+03  0.00000000000E+00 0.  1.
</event>
<event>
12    1  0.1629553E-001  0.2111711E+03  0.7818608E-02  0.1141108E+00
         21   -1    0    0  503  502  0.00000000000E+00  0.00000000000E+00  0.23894064078E+03  0.23894064078E+03  0.00000000000E+00 0.  1.
         21   -1    0    0  501  503 -0.00000000000E+00 -0.00000000000E+00 -0.18455809904E+03  0.18455809904E+03  0.00000000000E+00 0.  1.
          6    2    1    2  501    0 -0.98335783393E+02  0.66407162777E+02  0.28217438472E+02  0.21071281094E+03  0.17182499031E+03 0.  0.
         24    2    3    3    0    0 -0.13316342382E+02 -0.18823009077E+02  0.33313398329E+02  0.90128623123E+02  0.80509350715E+02 0.  0.
         -6    2    1    2    0  502  0.98335783393E+02 -0.66407162777E+02  0.26165103274E+02  0.21278592888E+03  0.17468085567E+03 0.  0.
        -24    2    5    5    0    0  0.13717557380E+03 -0.62925550326E+02  0.30749924331E+02  0.17324150413E+03  0.79311398774E+02 0.  0.
          5    1    3    3  501    0 -0.85019441011E+02  0.85230171854E+02 -0.50959598574E+01  0.12058418781E+03  0.47000000000E+01 0. -1.
        -11    1    4    4    0    0 -0.41981475968E+02  0.99120582627E+01  0.18198197908E+02  0.46817385986E+02  0.00000000000E+00 0.  1.
         12    1    4    4    0    0  0.28665133586E+02 -0.28735067340E+02  0.15115200421E+02  0.43311237137E+02  0.00000000000E+00 0. -1.
         -5    1    5    5    0  502 -0.38839790411E+02 -0.34816124509E+01 -0.45848210574E+01  0.39544424747E+02  0.47000000000E+01 0.  1.
         11    1    6    6    0    0  0.29438934509E+02  0.17941632158E+02 -0.22500331935E+01  0.34548743521E+02  0.00000000000E+00 0. -1.
        -12    1    6    6    0    0  0.10773663930E+03 -0.80867182484E+02  0.32999957525E+02  0.13869276061E+03  0.00000000000E+00 0.  1.
</event>
<event>
12    1  0.1629553E-001  0.1936578E+03  0.7818608E-02  0.1155310E+00
         21   -1    0    0  503  502  0.00000000000E+00  0.00000000000E+00  0.18970610247E+03  0.18970610247E+03  0.00000000000E+00 0. -1.
         21   -1    0    0  501  503 -0.00000000000E+00 -0.00000000000E+00 -0.20639358892E+03  0.20639358892E+03  0.00000000000E+00 0. -1.
          6    2    1    2  501    0  0.45580166908E+02 -0.75830705840E+02 -0.50165686099E+02  0.20004979845E+03  0.17226571984E+03 0.  0.
         24    2    3    3    0    0  0.51884550846E+02 -0.82441870213E+02 -0.92580221461E+02  0.15640881357E+03  0.80024689789E+02 0.  0.
         -6    2    1    2    0  502 -0.45580166908E+02  0.75830705840E+02  0.33478199648E+02  0.19604989294E+03  0.17171756784E+03 0.  0.
        -24    2    5    5    0    0 -0.80503942356E+02  0.79560124372E+02  0.61729085935E+02  0.15073122978E+03  0.78094336906E+02 0.  0.
          5    1    3    3  501    0 -0.63043839381E+01  0.66111643725E+01  0.42414535362E+02  0.43640984878E+02  0.47000000000E+01 0. -1.
        -13    1    4    4    0    0  0.44471175157E+02 -0.14778308139E+02 -0.70868867704E+02  0.84961639703E+02  0.00000000000E+00 0.  1.
         14    1    4    4    0    0  0.74133756888E+01 -0.67663562073E+02 -0.21711353756E+02  0.71447173866E+02  0.00000000000E+00 0. -1.
         -5    1    5    5    0  502  0.34923775448E+02 -0.37294185323E+01 -0.28250886287E+02  0.45318663155E+02  0.47000000000E+01 0.  1.
         11    1    6    6    0    0 -0.16875646059E+02  0.60327287541E+02  0.55980134075E+02  0.84011573387E+02  0.00000000000E+00 0. -1.
        -12    1    6    6    0    0 -0.63628296297E+02  0.19232836831E+02  0.57489518604E+01  0.66719656397E+02  0.00000000000E+00 0.  1.
</event>
<event>
12    1  0.1629553E-001  0.2830019E+03  0.7818608E-02  0.1094113E+00
         21   -1    0    0  501  502  0.00000000000E+00  0.00000000000E+00  0.52374754724E+03  0.52374754724E+03  0.00000000000E+00 0.  1.
         21   -1    0    0  502  503 -0.00000000000E+00 -0.00000000000E+00 -0.23595926885E+03  0.23595926885E+03  0.00000000000E+00 0. -1.
         -6    2    1    2    0  503 -0.19376912000E+03 -0.11259949474E+03 -0.81799003680E+02  0.29421263653E+03  0.17217688699E+03 0.  0.
        -24    2    3    3    0    0 -0.20299114812E+03 -0.10206013712E+03 -0.32759062621E+02  0.24299613840E+03  0.79701250237E+02 0.  0.
          6    2    1    2  501    0  0.19376912000E+03  0.11259949474E+03  0.36958728207E+03  0.46549417956E+03  0.17281479701E+03 0.  0.
         24    2    5    5    0    0  0.10791159227E+03  0.89988692857E+02  0.12298030396E+03  0.20334945794E+03  0.80523104085E+02 0.  0.
          5    1    5    5  501    0  0.85857527728E+02  0.22610801878E+02  0.24660697810E+03  0.26214472163E+03  0.47000000000E+01 0. -1.
        -13    1    6    6    0    0  0.44958910052E+02  0.81986017781E+01  0.78770916080E+02  0.91067984958E+02  0.00000000000E+00 0.  1.
         14    1    6    6    0    0  0.62952682216E+02  0.81790091079E+02  0.44209387884E+02  0.11228147298E+03  0.00000000000E+00 0. -1.
         -5    1    3    3    0  503  0.92220281248E+01 -0.10539357619E+02 -0.49039941059E+02  0.51216498131E+02  0.47000000000E+01 0.  1.
         13    1    4    4    0    0 -0.10889474095E+03 -0.98058847336E+02 -0.17345331535E+02  0.14756172496E+03  0.00000000000E+00 0. -1.
        -14    1    4    4    0    0 -0.94096407169E+02 -0.40012897815E+01 -0.15413731086E+02  0.95434413437E+02  0.00000000000E+00 0.  1.
</event>
<event>
12    1  0.1629553E-001  0.2045626E+03  0.7818608E-02  0.1145982E+00
         21   -1    0    0  503  502  0.00000000000E+00  0.00000000000E+00  0.68766898352E+02  0.68766898352E+02  0.00000000000E+00 0. -1.
         21   -1    0    0  501  503 -0.00000000000E+00 -0.00000000000E+00 -0.75133399379E+03  0.75133399379E+03  0.00000000000E+00 0.  1.
          6    2    1    2  501    0  0.42653519775E+02 -0.10256661487E+03 -0.16229464336E+03  0.26112334681E+03  0.17177490432E+03 0.  0.
         24    2    3    3    0    0  0.26729223041E+02 -0.24323225076E+01 -0.19314118596E+02  0.85778029813E+02  0.79148390156E+02 0.  0.
         -6    2    1    2    0  502 -0.42653519775E+02  0.10256661487E+03 -0.52027245208E+03  0.55897754532E+03  0.17156118019E+03 0.  0.
        -24    2    5    5    0    0 -0.14338620786E+02  0.57439502445E+01 -0.11483200075E+03  0.14114933724E+03  0.80611153066E+02 0.  0.
          5    1    3    3  501    0  0.15924296734E+02 -0.10013429236E+03 -0.14298052476E+03  0.17534531700E+03  0.47000000000E+01 0. -1.
        -11    1    4    4    0    0  0.22262562267E+02 -0.12683968176E+02 -0.48319017056E+02  0.54692157908E+02  0.00000000000E+00 0.  1.
         12    1    4    4    0    0  0.44666607738E+01  0.10251645668E+02  0.29004898460E+02  0.31085871905E+02  0.00000000000E+00 0. -1.
         -5    1    5    5    0  502 -0.28314898989E+02  0.96822664627E+02 -0.40544045133E+03  0.41782820808E+03  0.47000000000E+01 0.  1.
         11    1    6    6    0    0 -0.78445839637E+01 -0.28379909888E+02 -0.98421991986E+02  0.10273190979E+03  0.00000000000E+00 0. -1.
        -12    1    6    6    0    0 -0.64940368222E+01  0.34123860133E+02 -0.16410008760E+02  0.38417427453E+02  0.00000000000E+00 0.  1.
</event>
<event>
12    1  0.1629553E-001  0.3293707E+03  0.7818608E-02  0.1071525E+00
         21   -1    0    0  501  502  0.00000000000E+00  0.00000000000E+00  0.82773169659E+02  0.82773169659E+02  0.00000000000E+00 0. -1.
         21   -1    0    0  502  503 -0.00000000000E+00 -0.00000000000E+00 -0.13068466546E+04  0.13068466546E+04  0.00000000000E+00 0. -1.
         -6    2    1    2    0  503 -0.11112314123E+03 -0.25822837982E+03 -0.61808375384E+03  0.69990350952E+03  0.16972668387E+03 0.  0.
        -24    2    3    3    0    0 -0.11559085666E+03 -0.12024175810E+03 -0.40196117610E+03  0.44340530902E+03  0.84947951331E+02 0.  0.
          6    2    1    2  501    0  0.11112314123E+03  0.25822837982E+03 -0.60598973107E+03  0.68971631470E+03  0.17162398419E+03 0.  0.
         24    2    5    5    0    0  0.14136225368E+03  0.19381911954E+03 -0.51790874107E+03  0.57638799728E+03  0.80277776913E+02 0.  0.
          5    1    5    5  501    0 -0.30239112449E+02  0.64409260278E+02 -0.88080989998E+02  0.11332831742E+03  0.47000000000E+01 0. -1.
        -11    1    6    6    0    0 -0.37644967426E+00  0.52570703596E+02 -0.96803097195E+02  0.11015743378E+03  0.00000000000E+00 0.  1.
         12    1    6    6    0    0  0.14173870336E+03  0.14124841594E+03 -0.42110564388E+03  0.46623056350E+03  0.00000000000E+00 0. -1.
         -5    1    3    3    0  503  0.44677154302E+01 -0.13798662172E+03 -0.21612257773E+03  0.25649820050E+03  0.47000000000E+01 0.  1.
         13    1    4    4    0    0 -0.35686230273E+02 -0.96546387401E+01 -0.31326749156E+02  0.48457035537E+02  0.00000000000E+00 0. -1.
        -14    1    4    4    0    0 -0.79904626389E+02 -0.11058711936E+03 -0.37063442695E+03  0.39494827348E+03  0.00000000000E+00 0.  1.
</event>
<event>
12    1  0.1629553E-001  0.2309980E+03  0.7818608E-02  0.1126027E+00
         21   -1    0    0  501  502  0.00000000000E+00  0.00000000000E+00  0.73630205338E+03  0.73630205338E+03  0.00000000000E+00 0. -1.
         21   -1    0    0  502  503 -0.00000000000E+00 -0.00000000000E+00 -0.10848495712E+03  0.10848495712E+03  0.00000000000E+00 0.  1.
         -6    2    1    2    0  503  0.11168644016E+03 -0.10555573439E+03  0.70231918061E+02  0.24143855839E+03  0.17246501437E+03 0.  0.
        -24    2    3    3    0    0  0.81590001090E+02  0.57346741322E+01  0.16112868826E+02  0.11399322828E+03  0.77749706028E+02 0.  0.
          6    2    1    2  501    0 -0.11168644016E+03  0.10555573439E+03  0.55758517820E+03  0.60334845211E+03  0.17179129703E+03 0.  0.
         24    2    5    5    0    0 -0.13484024540E+03  0.94562245248E+02  0.54254321489E+03  0.57326014606E+03  0.84558530236E+02 0.  0.
          5    1    5    5  501    0  0.23153805235E+02  0.10993489147E+02  0.15041963308E+02  0.30088306044E+02  0.47000000000E+01 0. -1.
        -11    1    6    6    0    0 -0.25298116054E+02  0.65683603508E+02  0.17395317847E+03  0.18765404005E+03  0.00000000000E+00 0.  1.
         12    1    6    6    0    0 -0.10954212934E+03  0.28878641741E+02  0.36859003642E+03  0.38560610602E+03  0.00000000000E+00 0. -1.
         -5    1    3    3    0  503  0.30096439071E+02 -0.11129040853E+03  0.54119049235E+02  0.12744533010E+03  0.47000000000E+01 0.  1.
         13    1    4    4    0    0  0.54706766402E+02 -0.10885001574E+02  0.44620382706E+02  0.71430330408E+02  0.00000000000E+00 0. -1.
        -14    1    4    4    0    0  0.26883234689E+02  0.16619675707E+02 -0.28507513880E+02  0.42562897875E+02  0.00000000000E+00 0.  1.
</event>
<event>
12    1  0.1629553E-001  0.1752565E+03  0.7818608E-02  0.1173214E+00
         21   -1    0    0  501  502  0.00000000000E+00  0.00000000000E+00  0.48508701185E+03  0.48508701185E+03  0.00000000000E+00 0.  1.
         21   -1    0    0  502  503 -0.00000000000E+00 -0.00000000000E+00 -0.63430098019E+02  0.63430098019E+02  0.00000000000E+00 0.  1.
         -6    2    1    2    0  503  0.17985748278E+02  0.92274795888E+01  0.17192566312E+03  0.24342605178E+03  0.17114080614E+03 0.  0.
        -24    2    3    3    0    0 -0.15770853405E+02 -0.26741289934E+02  0.25710820060E+02  0.89042986426E+02  0.79396415278E+02 0.  0.
          6    2    1    2  501    0 -0.17985748278E+02 -0.92274795888E+01  0.24973125072E+03  0.30509105809E+03  0.17408682495E+03 0.  0.
         24    2    5    5    0    0 -0.66130287430E+00 -0.36787539692E+02  0.47234945771E+02  0.99941023144E+02  0.80020669873E+02 0.  0.
          5    1    5    5  501    0 -0.17324445404E+02  0.27560060103E+02  0.20249630495E+03  0.20515003495E+03  0.47000000000E+01 0. -1.
        -13    1    6    6    0    0 -0.27579835127E+02  0.12880832191E+02  0.90632033500E+01  0.31760113326E+02  0.00000000000E+00 0.  1.
         14    1    6    6    0    0  0.26918532252E+02 -0.49668371883E+02  0.38171742421E+02  0.68180909817E+02  0.00000000000E+00 0. -1.
         -5    1    3    3    0  503  0.33756601684E+02  0.35968769523E+02  0.14621484306E+03  0.15438306535E+03  0.47000000000E+01 0.  1.
         13    1    4    4    0    0 -0.38273421378E+02  0.10583331718E+02  0.21760552483E+02  0.45281158759E+02  0.00000000000E+00 0. -1.
        -14    1    4    4    0    0  0.22502567972E+02 -0.37324621652E+02  0.39502675772E+01  0.43761827667E+02  0.00000000000E+00 0.  1.
</event>
<event>
12    1  0.1629553E-001  0.3345733E+03  0.7818608E-02  0.1069163E+00
         21   -1    0    0  501  502  0.00000000000E+00  0.00000000000E+00  0.96228562778E+03  0.96228562778E+03  0.00000000000E+00 0.  1.
         21   -1    0    0  502  503 -0.00000000000E+00 -0.00000000000E+00 -0.11634212370E+03  0.11634212370E+03  0.00000000000E+00 0. -1.
         -6    2    1    2    0  503 -0.27985276372E+03 -0.64176759088E+02  0.44000701552E+03  0.55258240725E+03  0.17118679075E+03 0.  0.
        -24    2    3    3    0    0 -0.17839853326E+03  0.23823300195E+02  0.29322536051E+03  0.35357508186E+03  0.81490123103E+02 0.  0.
          6    2    1    2  501    0  0.27985276372E+03  0.64176759088E+02  0.40593648857E+03  0.52604534423E+03  0.17176450643E+03 0.  0.
         24    2    5    5    0    0  0.25665213733E+03  0.62850193405E+02  0.41623981745E+03  0.50019428183E+03  0.84369825978E+02 0.  0.
          5    1    5    5  501    0  0.23200626391E+02  0.13265656825E+01 -0.10303328882E+02  0.25851062405E+02  0.47000000000E+01 0. -1.
        -13    1    6    6    0    0  0.65170070113E+02  0.49086538852E+02  0.16435128561E+03  0.18348834136E+03  0.00000000000E+00 0.  1.
         14    1    6    6    0    0  0.19148206722E+03  0.13763654553E+02  0.25188853184E+03  0.31670594046E+03  0.00000000000E+00 0. -1.
         -5    1    3    3    0  503 -0.10145423046E+03 -0.88000059283E+02  0.14678165500E+03  0.19900732539E+03  0.47000000000E+01 0.  1.
         11    1    4    4    0    0  0.79525583614E+01 -0.42061142216E+01  0.10878905091E+02  0.14116839495E+02  0.00000000000E+00 0. -1.
        -12    1    4    4    0    0 -0.18635109162E+03  0.28029414416E+02  0.28234645542E+03  0.33945824237E+03  0.00000000000E+00 0.  1.
</event>
<event>
12    1  0.1629553E-001  0.2117178E+03  0.7818608E-02  0.1140537E+00
         21   -1    0    0  501  502  0.00000000000E+00  0.00000000000E+00  0.55174502327E+03  0.55174502327E+03  0.00000000000E+00 0. -1.
         21   -1    0    0  502  503 -0.00000000000E+00 -0.00000000000E+00 -0.30637708030E+03  0.30637708030E+03  0.00000000000E+00 0. -1.
         -6    2    1    2    0  503  0.11286705118E+03 -0.50627942585E+02 -0.24575784540E+03  0.32330533952E+03  0.16978593632E+03 0.  0.
        -24    2    3    3    0    0  0.83189349612E+02  0.19825332238E+01 -0.67266739097E+02  0.13481185643E+03  0.82006244392E+02 0.  0.
          6    2    1    2  501    0 -0.11286705118E+03  0.50627942585E+02  0.49112578838E+03  0.53481676405E+03  0.17182046237E+03 0.  0.
         24    2    5    5    0    0 -0.38358919508E+02  0.82551911247E+02  0.21609630850E+03  0.24805221558E+03  0.80907739731E+02 0.  0.
          5    1    5    5  501    0 -0.74508131673E+02 -0.31923968662E+02  0.27502947987E+03  0.28676454847E+03  0.47000000000E+01 0. -1.
        -13    1    6    6    0    0  0.19673023381E+02  0.28745060410E+02  0.30541182144E+02  0.46325696473E+02  0.00000000000E+00 0.  1.
         14    1    6    6    0    0 -0.58031942889E+02  0.53806850837E+02  0.18555512636E+03  0.20172651911E+03  0.00000000000E+00 0. -1.
         -5    1    3    3    0  503  0.29677701569E+02 -0.52610475809E+02 -0.17849110631E+03  0.18849348309E+03  0.47000000000E+01 0.  1.
         11    1    4    4    0    0  0.13453134620E+02  0.33400543474E+02 -0.39478893336E+02  0.53433754823E+02  0.00000000000E+00 0. -1.
        -12    1    4    4    0    0  0.69736214992E+02 -0.31418010251E+02 -0.27787845761E+02  0.81378101609E+02  0.00000000000E+00 0.  1.
</event>
<event>
12    1  0.1629553E-001  0.2699226E+03  0.7818608E-02  0.1101332E+00
         21   -1    0    0  503  502  0.00000000000E+00  0.00000000000E+00  0.22916791148E+04  0.22916791148E+04  0.00000000000E+00 0.  1.
         21   -1    0    0  501  503 -0.00000000000E+00 -0.00000000000E+00 -0.31790645057E+02  0.31790645057E+02  0.00000000000E+00 0.  1.
          6    2    1    2  501    0  0.87720108792E+02 -0.18863595594E+03  0.11444143557E+04  0.11758022567E+04  0.17189644497E+03 0.  0.
         24    2    3    3    0    0  0.10978423071E+03 -0.19711902265E+03  0.10943528246E+04  0.11202411660E+04  0.80147856291E+02 0.  0.
         -6    2    1    2    0  502 -0.87720108792E+02  0.18863595594E+03  0.11154741140E+04  0.11476675032E+04  0.17198795748E+03 0.  0.
        -24    2    5    5    0    0 -0.67959023481E+02  0.32407922882E+02  0.41166731104E+03  0.42644367891E+03  0.81948361620E+02 0.  0.
          5    1    3    3  501    0 -0.22064121915E+02  0.84830667047E+01  0.50061531117E+02  0.55561090651E+02  0.47000000000E+01 0. -1.
        -13    1    4    4    0    0  0.71710532088E+01 -0.90457329075E+02  0.37534472548E+03  0.38615750069E+03  0.00000000000E+00 0.  1.
         14    1    4    4    0    0  0.10261317750E+03 -0.10666169357E+03  0.71900809913E+03  0.73408366532E+03  0.00000000000E+00 0. -1.
         -5    1    5    5    0  502 -0.19761085310E+02  0.15622803306E+03  0.70380680301E+03  0.72122382432E+03  0.47000000000E+01 0.  1.
         11    1    6    6    0    0 -0.84410874154E+02  0.21407001115E+02  0.27802939546E+03  0.29134824543E+03  0.00000000000E+00 0. -1.
        -12    1    6    6    0    0  0.16451850672E+02  0.11000921767E+02  0.13363791557E+03  0.13509543349E+03  0.00000000000E+00 0.  1.
</event>
<event>
12    1  0.1629553E-001  0.1719453E+03  0.7818608E-02  0.1175923E+00
         21   -1    0    0  501  502  0.00000000000E+00  0.00000000000E+00  0.36699141773E+03  0.36699141773E+03  0.00000000000E+00 0. -1.
         21   -1    0    0  502  503 -0.00000000000E+00 -0.00000000000E+00 -0.15342441997E+03  0.15342441997E+03  0.00000000000E+00 0. -1.
         -6    2    1    2    0  503 -0.92791755819E+01 -0.10408430478E+02 -0.72679118447E+02  0.18667468719E+03  0.17137895453E+03 0.  0.
        -24    2    3    3    0    0  0.37216203277E+01 -0.32859250160E+02  0.22054092977E+02  0.88340911989E+02  0.78893300952E+02 0.  0.
          6    2    1    2  501    0  0.92791755819E+01  0.10408430478E+02  0.28624611621E+03  0.33374115051E+03  0.17103180399E+03 0.  0.
         24    2    5    5    0    0 -0.18019039156E+02 -0.23377971128E+02  0.55056809900E+02  0.98459832058E+02  0.76104342231E+02 0.  0.
          5    1    5    5  501    0  0.27298214738E+02  0.33786401606E+02  0.23118930631E+03  0.23528131845E+03  0.47000000000E+01 0. -1.
        -13    1    6    6    0    0  0.41817994359E+01 -0.33920974099E+02  0.63796720080E+02  0.72375005515E+02  0.00000000000E+00 0.  1.
         14    1    6    6    0    0 -0.22200838592E+02  0.10543002972E+02 -0.87399101801E+01  0.26084826543E+02  0.00000000000E+00 0. -1.
         -5    1    3    3    0  503 -0.13000795910E+02  0.22450819682E+02 -0.94733211424E+02  0.98333775201E+02  0.47000000000E+01 0.  1.
         11    1    4    4    0    0  0.88958644297E+01 -0.75616450864E+01 -0.28926607567E+02  0.31193965854E+02  0.00000000000E+00 0. -1.
        -12    1    4    4    0    0 -0.51742441020E+01 -0.25297605074E+02  0.50980700544E+02  0.57146946135E+02  0.00000000000E+00 0.  1.
</event>
<event>
12    1  0.1629553E-001  0.2653109E+03  0.7818608E-02  0.1105094E+00
         21   -1    0    0  501  502  0.00000000000E+00  0.00000000000E+00  0.47591082501E+02  0.47591082501E+02  0.00000000000E+00 0. -1.
         21   -1    0    0  502  503 -0.00000000000E+00 -0.00000000000E+00 -0.20748751332E+04  0.20748751332E+04  0.00000000000E+00 0.  1.
         -6    2    1    2    0  503 -0.17792369107E+03 -0.10085983431E+03 -0.16114772278E+04  0.16331713637E+04  0.16899793274E+03 0.  0.
        -24    2    3    3    0    0 -0.52415082783E+02  0.11557510304E+02 -0.53878070385E+03  0.54731226016E+03  0.79907110618E+02 0.  0.
          6    2    1    2  501    0  0.17792369107E+03  0.10085983431E+03 -0.41580682286E+03  0.48929485202E+03  0.15711331026E+03 0.  0.
         24    2    5    5    0    0  0.44953877438E+02  0.74623579750E+02 -0.22581208334E+03  0.25586519788E+03  0.82984171694E+02 0.  0.
          5    1    5    5  501    0  0.13296981363E+03  0.26236254561E+02 -0.18999473952E+03  0.23342965415E+03  0.47000000000E+01 0. -1.
        -13    1    6    6    0    0  0.16597717623E+02 -0.17208224667E+02 -0.52509699593E+02  0.57696410441E+02  0.00000000000E+00 0.  1.
         14    1    6    6    0    0  0.28356159815E+02  0.91831804417E+02 -0.17330238374E+03  0.19816878744E+03  0.00000000000E+00 0. -1.
         -5    1    3    3    0  503 -0.12550860828E+03 -0.11241734461E+03 -0.10726965240E+04  0.10858591035E+04  0.47000000000E+01 0.  1.
         11    1    4    4    0    0  0.10922728288E+02 -0.41843379560E+01 -0.12964504349E+02  0.17461186970E+02  0.00000000000E+00 0. -1.
        -12    1    4    4    0    0 -0.63337811071E+02  0.15741848260E+02 -0.52581619950E+03  0.52985107319E+03  0.00000000000E+00 0.  1.
</event>
