<event>
12    1  0.1046899E+000  0.5745869E+03  0.7818608E-02  0.9959916E-01
         21   -1    0    0  501  502  0.00000000000E+00  0.00000000000E+00  0.60041127999E+03  0.60041127999E+03  0.00000000000E+00 0. -1.
         21   -1    0    0  502  503 -0.00000000000E+00 -0.00000000000E+00 -0.62259736954E+03  0.62259736954E+03  0.00000000000E+00 0. -1.
         -6    2    1    2    0  503 -0.27504081768E+03 -0.47322522956E+03 -0.22092413183E+03  0.61502269380E+03  0.17278851982E+03 0.  0.
        -24    2    3    3    0    0 -0.81658904448E+02 -0.93494453415E+02 -0.61099853937E+02  0.15987665512E+03  0.80112191379E+02 0.  0.
          6    2    1    2  501    0  0.27504081768E+03  0.47322522956E+03  0.19873804229E+03  0.60798595573E+03  0.17481574195E+03 0.  0.
         24    2    5    5    0    0  0.38131697603E+02  0.13729048298E+03  0.51227552537E+02  0.17122570145E+03  0.79945454025E+02 0.  0.
          5    1    5    5  501    0  0.23690912007E+03  0.33593474658E+03  0.14751048975E+03  0.43676025428E+03  0.47000000000E+01 0. -1.
        -11    1    6    6    0    0  0.60248304154E+02  0.69006625582E+02  0.28793135440E+02  0.96025086181E+02  0.00000000000E+00 0.  1.
         12    1    6    6    0    0 -0.22116606551E+02  0.68283857395E+02  0.22434417097E+02  0.75200615267E+02  0.00000000000E+00 0. -1.
         -5    1    3    3    0  503 -0.19338191323E+03 -0.37973077615E+03 -0.15982427789E+03  0.45514603867E+03  0.47000000000E+01 0.  1.
         13    1    4    4    0    0 -0.92963291241E+02 -0.72595536744E+02 -0.66647061345E+02  0.13547736438E+03  0.00000000000E+00 0. -1.
        -14    1    4    4    0    0  0.11304386793E+02 -0.20898916671E+02  0.55472074078E+01  0.24399290744E+02  0.00000000000E+00 0.  1.
</event>
<event>
12    1  0.1046899E+000  0.2205818E+03  0.7818608E-02  0.1134001E+00
         21   -1    0    0  503  502  0.00000000000E+00  0.00000000000E+00  0.78799100184E+03  0.78799100184E+03  0.00000000000E+00 0. -1.
         21   -1    0    0  501  503 -0.00000000000E+00 -0.00000000000E+00 -0.67624095620E+02  0.67624095620E+02  0.00000000000E+00 0. -1.
          6    2    1    2  501    0 -0.35651445838E+02  0.12856089012E+03  0.49263921277E+03  0.53857213501E+03  0.17195238467E+03 0.  0.
         24    2    3    3    0    0 -0.39882821783E+02  0.62637666683E+01  0.15103549834E+03  0.17568140951E+03  0.80139638385E+02 0.  0.
         -6    2    1    2    0  502  0.35651445838E+02 -0.12856089012E+03  0.22772769345E+03  0.31704296245E+03  0.17566277243E+03 0.  0.
        -24    2    5    5    0    0  0.13251550482E+02 -0.15897627649E+03  0.20881295026E+03  0.27453756808E+03  0.79491936813E+02 0.  0.
          5    1    3    3  501    0  0.42313759447E+01  0.12229712345E+03  0.34160371442E+03  0.36289072550E+03  0.47000000000E+01 0. -1.
        -11    1    4    4    0    0 -0.47667715443E+02  0.10877269586E+02  0.15726842985E+03  0.16469330623E+03  0.00000000000E+00 0.  1.
         12    1    4    4    0    0  0.77848936596E+01 -0.46135029180E+01 -0.62329315075E+01  0.10988103278E+02  0.00000000000E+00 0. -1.
         -5    1    5    5    0  502  0.22399895357E+02  0.30415386374E+02  0.18914743198E+02  0.42505394370E+02  0.47000000000E+01 0.  1.
         11    1    6    6    0    0 -0.18370582298E+02 -0.10377900793E+03  0.85226646810E+02  0.13554018632E+03  0.00000000000E+00 0. -1.
        -12    1    6    6    0    0  0.31622132779E+02 -0.55197268558E+02  0.12358630345E+03  0.13899738176E+03  0.00000000000E+00 0.  1.
</event>
<event>
12    1  0.1046899E+000  0.1914131E+03  0.7818608E-02  0.1157459E+00
         21   -1    0    0  501  502  0.00000000000E+00  0.00000000000E+00  0.34246028456E+03  0.34246028456E+03  0.00000000000E+00 0. -1.
         21   -1    0    0  502  503 -0.00000000000E+00 -0.00000000000E+00 -0.18144390693E+03  0.18144390693E+03  0.00000000000E+00 0. -1.
         -6    2    1    2    0  503 -0.36570660956E+02 -0.73894410361E+02  0.24920382761E+03  0.31423161247E+03  0.17274594483E+03 0.  0.
        -24    2    3    3    0    0 -0.13752705368E+02 -0.11364477665E+03  0.22038439679E+03  0.25988641664E+03  0.76598923256E+02 0.  0.
          6    2    1    2  501    0  0.36570660956E+02  0.73894410361E+02 -0.88187449977E+02  0.20967257901E+03  0.17142860593E+03 0.  0.
         24    2    5    5    0    0  0.47138380702E+02 -0.18973800893E+02 -0.32207155610E+02  0.10062183523E+03  0.80656188832E+02 0.  0.
          5    1    5    5  501    0 -0.10567719746E+02  0.92868211255E+02 -0.55980294367E+02  0.10905074378E+03  0.47000000000E+01 0. -1.
        -11    1    6    6    0    0  0.55587279316E+02 -0.31919594677E+02 -0.46797408551E+02  0.79365002320E+02  0.00000000000E+00 0.  1.
         12    1    6    6    0    0 -0.84488986142E+01  0.12945793783E+02  0.14590252941E+02  0.21256832910E+02  0.00000000000E+00 0. -1.
         -5    1    3    3    0  503 -0.22817955588E+02  0.39750366284E+02  0.28819430821E+02  0.54345195830E+02  0.47000000000E+01 0.  1.
         13    1    4    4    0    0  0.23718071136E+01  0.45993426144E+01  0.58711753970E+02  0.58939371185E+02  0.00000000000E+00 0. -1.
        -14    1    4    4    0    0 -0.16124512482E+02 -0.11824411926E+03  0.16167264282E+03  0.20094704546E+03  0.00000000000E+00 0.  1.
</event>
<event>
12    1  0.1046899E+000  0.3989304E+03  0.7818608E-02  0.1044244E+00
         21   -1    0    0  501  502  0.00000000000E+00  0.00000000000E+00  0.12572470551E+03  0.12572470551E+03  0.00000000000E+00 0. -1.
         21   -1    0    0  502  503 -0.00000000000E+00 -0.00000000000E+00 -0.14523990065E+04  0.14523990065E+04  0.00000000000E+00 0.  1.
         -6    2    1    2    0  503 -0.35542082377E+03 -0.49310072370E+02 -0.37720242694E+03  0.54824880782E+03  0.17187099573E+03 0.  0.
        -24    2    3    3    0    0 -0.30227509432E+03 -0.53523680218E+01 -0.36214817842E+03  0.47749947051E+03  0.73861767620E+02 0.  0.
          6    2    1    2  501    0  0.35542082377E+03  0.49310072370E+02 -0.94947187406E+03  0.10298749042E+04  0.17432737446E+03 0.  0.
         24    2    5    5    0    0  0.21307863445E+03  0.17868855128E+01 -0.72566789592E+03  0.76037525156E+03  0.78555270934E+02 0.  0.
          5    1    5    5  501    0  0.14234218932E+03  0.47523186857E+02 -0.22380397814E+03  0.26949965265E+03  0.47000000000E+01 0. -1.
        -11    1    6    6    0    0 -0.18232868983E+00 -0.52911473625E+01 -0.83849557651E+02  0.84016532911E+02  0.00000000000E+00 0.  1.
         12    1    6    6    0    0  0.21326096314E+03  0.70780328752E+01 -0.64181833827E+03  0.67635871865E+03  0.00000000000E+00 0. -1.
         -5    1    3    3    0  503 -0.53145729452E+02 -0.43957704348E+02 -0.15054248525E+02  0.70749337306E+02  0.47000000000E+01 0.  1.
         11    1    4    4    0    0 -0.10999314775E+03  0.40155393059E+01 -0.80573010362E+02  0.13640611096E+03  0.00000000000E+00 0. -1.
        -12    1    4    4    0    0 -0.19228194657E+03 -0.93679073277E+01 -0.28157516806E+03  0.34109335955E+03  0.00000000000E+00 0.  1.
</event>
<event>
12    1  0.1046899E+000  0.2034717E+03  0.7818608E-02  0.1146889E+00
         21   -1    0    0  501  502  0.00000000000E+00  0.00000000000E+00  0.15974084085E+03  0.15974084085E+03  0.00000000000E+00 0. -1.
         21   -1    0    0  502  503 -0.00000000000E+00 -0.00000000000E+00 -0.35507992665E+03  0.35507992665E+03  0.00000000000E+00 0. -1.
         -6    2    1    2    0  503 -0.75231589235E+02  0.77360135591E+02  0.36349098671E+02  0.20647006289E+03  0.17223311905E+03 0.  0.
        -24    2    3    3    0    0  0.25614804561E+02  0.19013356752E+02  0.23499718134E+02  0.89160479637E+02  0.79873202196E+02 0.  0.
          6    2    1    2  501    0  0.75231589235E+02 -0.77360135591E+02 -0.23168818447E+03  0.30835070460E+03  0.17250031770E+03 0.  0.
         24    2    5    5    0    0  0.10958966386E+03 -0.78779035640E+02 -0.14965214448E+03  0.21927493670E+03  0.86427441458E+02 0.  0.
          5    1    5    5  501    0 -0.34358074626E+02  0.14189000497E+01 -0.82036039995E+02  0.89075767902E+02  0.47000000000E+01 0. -1.
        -11    1    6    6    0    0 -0.14515775238E+00 -0.52224909383E+01 -0.58592777341E+02  0.58825241512E+02  0.00000000000E+00 0.  1.
         12    1    6    6    0    0  0.10973482161E+03 -0.73556544702E+02 -0.91059367135E+02  0.16044969519E+03  0.00000000000E+00 0. -1.
         -5    1    3    3    0  503 -0.10084639380E+03  0.58346778839E+02  0.12849380538E+02  0.11730958325E+03  0.47000000000E+01 0.  1.
         13    1    4    4    0    0 -0.11084257717E+02 -0.17441310364E+02  0.30623985898E+02  0.36944398609E+02  0.00000000000E+00 0. -1.
        -14    1    4    4    0    0  0.36699062278E+02  0.36454667116E+02 -0.71242677639E+01  0.52216081027E+02  0.00000000000E+00 0.  1.
</event>
<event>
12    1  0.1046899E+000  0.2032696E+03  0.7818608E-02  0.1147180E+00
         21   -1    0    0  501  502  0.00000000000E+00  0.00000000000E+00  0.29371629239E+03  0.29371629239E+03  0.00000000000E+00 0.  1.
         21   -1    0    0  502  503 -0.00000000000E+00 -0.00000000000E+00 -0.18505660014E+03  0.18505660014E+03  0.00000000000E+00 0.  1.
         -6    2    1    2    0  503 -0.81734941179E+02  0.72440161284E+02  0.17222843463E+03  0.26579515508E+03  0.17045894870E+03 0.  0.
        -24    2    3    3    0    0  0.20166214009E+02  0.38799497024E+02  0.10802569043E+03  0.14065674338E+03  0.78757174319E+02 0.  0.
          6    2    1    2  501    0  0.81734941179E+02 -0.72440161284E+02 -0.63568742383E+02  0.21297773745E+03  0.17143615157E+03 0.  0.
         24    2    5    5    0    0  0.39268536155E+02 -0.10054273771E+03 -0.86004074255E+02  0.15713344970E+03  0.75122301542E+02 0.  0.
          5    1    5    5  501    0  0.42466405023E+02  0.28102576429E+02  0.22435331873E+02  0.55844287745E+02  0.47000000000E+01 0. -1.
        -13    1    6    6    0    0  0.38601773163E+02 -0.73374636941E+02 -0.97186501364E+02  0.12774642964E+03  0.00000000000E+00 0.  1.
         14    1    6    6    0    0  0.66676299224E+00 -0.27168100772E+02  0.11182427109E+02  0.29387020068E+02  0.00000000000E+00 0. -1.
         -5    1    3    3    0  503 -0.10190115519E+03  0.33640664260E+02  0.64202744198E+02  0.12513841170E+03  0.47000000000E+01 0.  1.
         11    1    4    4    0    0 -0.82344123618E+01  0.48185667794E+02  0.30643689746E+02  0.57694885812E+02  0.00000000000E+00 0. -1.
        -12    1    4    4    0    0  0.28400626371E+02 -0.93861707696E+01  0.77382000688E+02  0.82961857564E+02  0.00000000000E+00 0.  1.
</event>
<event>
12    1  0.1046899E+000  0.2133568E+03  0.7818608E-02  0.1139380E+00
         21   -1    0    0  503  502  0.00000000000E+00  0.00000000000E+00  0.26445649386E+03  0.26445649386E+03  0.00000000000E+00 0.  1.
         21   -1    0    0  501  503 -0.00000000000E+00 -0.00000000000E+00 -0.20025136658E+03  0.20025136658E+03  0.00000000000E+00 0.  1.
          6    2    1    2  501    0 -0.11748808921E+03  0.29605077668E+02  0.12211842168E+03  0.24583331828E+03  0.17561662716E+03 0.  0.
         24    2    3    3    0    0 -0.10638229677E+03  0.23155878054E+02  0.11592660039E+02  0.13446471953E+03  0.78057563872E+02 0.  0.
         -6    2    1    2    0  502  0.11748808921E+03 -0.29605077668E+02 -0.57913294395E+02  0.21887454216E+03  0.17283577121E+03 0.  0.
        -24    2    5    5    0    0  0.20773051407E+02 -0.62675418959E+02 -0.98539158729E+00  0.10178345741E+03  0.77454331059E+02 0.  0.
          5    1    3    3  501    0 -0.11105792440E+02  0.64491996146E+01  0.11052576164E+03  0.11136859875E+03  0.47000000000E+01 0. -1.
        -13    1    4    4    0    0 -0.10792903259E+02 -0.93602828200E+00 -0.26619110824E+02  0.28739171365E+02  0.00000000000E+00 0.  1.
         14    1    4    4    0    0 -0.95589393509E+02  0.24091906336E+02  0.38211770864E+02  0.10572554817E+03  0.00000000000E+00 0. -1.
         -5    1    5    5    0  502  0.96715037802E+02  0.33070341290E+02 -0.56927902808E+02  0.11709108475E+03  0.47000000000E+01 0.  1.
         11    1    6    6    0    0  0.32980654270E+02 -0.50413770761E+02 -0.30535645736E+02  0.67540339790E+02  0.00000000000E+00 0. -1.
        -12    1    6    6    0    0 -0.12207602863E+02 -0.12261648198E+02  0.29550254149E+02  0.34243117622E+02  0.00000000000E+00 0.  1.
</event>
<event>
12    1  0.1046899E+000  0.6042240E+03  0.7818608E-02  0.9898443E-01
         21   -1    0    0  503  502  0.00000000000E+00  0.00000000000E+00  0.21927431258E+04  0.21927431258E+04  0.00000000000E+00 0. -1.
         21   -1    0    0  501  503 -0.00000000000E+00 -0.00000000000E+00 -0.32938174353E+03  0.32938174353E+03  0.00000000000E+00 0.  1.
          6    2    1    2  501    0  0.44232185344E+03  0.36796080903E+03  0.40998561048E+02  0.60220485555E+03  0.17299140741E+03 0.  0.
         24    2    3    3    0    0  0.31739399941E+03  0.21467968437E+03  0.83513588296E+02  0.39988903949E+03  0.78169090640E+02 0.  0.
         -6    2    1    2    0  502 -0.44232185344E+03 -0.36796080903E+03  0.18223628212E+04  0.19199200138E+04  0.18450698657E+03 0.  0.
        -24    2    5    5    0    0 -0.21948768947E+03 -0.19512228739E+03  0.11795290462E+04  0.12179331396E+04  0.76320435341E+02 0.  0.
          5    1    3    3  501    0  0.12492785403E+03  0.15328112466E+03 -0.42515027248E+02  0.20231581607E+03  0.47000000000E+01 0. -1.
        -13    1    4    4    0    0  0.50929941978E+02  0.27900005600E+02 -0.14850762793E+02  0.59940090573E+02  0.00000000000E+00 0.  1.
         14    1    4    4    0    0  0.26646405743E+03  0.18677967877E+03  0.98364351089E+02  0.33994894891E+03  0.00000000000E+00 0. -1.
         -5    1    5    5    0  502 -0.22283416396E+03 -0.17283852164E+03  0.64283377501E+03  0.70198687416E+03  0.47000000000E+01 0.  1.
         13    1    6    6    0    0 -0.72487105940E+02 -0.11519638335E+03  0.53263953397E+03  0.54975399990E+03  0.00000000000E+00 0. -1.
        -14    1    6    6    0    0 -0.14700058353E+03 -0.79925904043E+02  0.64688951224E+03  0.66817913971E+03  0.00000000000E+00 0.  1.
</event>
<event>
12    1  0.1046899E+000  0.1965005E+03  0.7818608E-02  0.1155094E+00
         21   -1    0    0  503  502  0.00000000000E+00  0.00000000000E+00  0.42808047798E+03  0.42808047798E+03  0.00000000000E+00 0. -1.
         21   -1    0    0  501  503 -0.00000000000E+00 -0.00000000000E+00 -0.88590521537E+02  0.88590521537E+02  0.00000000000E+00 0. -1.
          6    2    1    2  501    0  0.46553436302E+02  0.20884099121E+02  0.22349038927E+03  0.29759098392E+03  0.18976056383E+03 0.  0.
         24    2    3    3    0    0  0.30607976134E+01  0.86827687450E+02  0.12957063300E+03  0.17477739721E+03  0.78804656274E+02 0.  0.
         -6    2    1    2    0  502 -0.46553436302E+02 -0.20884099121E+02  0.11599956717E+03  0.21908001559E+03  0.17870866129E+03 0.  0.
        -24    2    5    5    0    0  0.42988139997E+02  0.38076157570E+01  0.76228181636E+02  0.11793048383E+03  0.78958123216E+02 0.  0.
          5    1    3    3  501    0  0.43492638689E+02 -0.65943588329E+02  0.93919756270E+02  0.12281358671E+03  0.47000000000E+01 0. -1.
        -11    1    4    4    0    0 -0.47241307394E+01  0.89681343721E+02  0.67986444675E+02  0.11263754917E+03  0.00000000000E+00 0.  1.
         12    1    4    4    0    0  0.77849283529E+01 -0.28536562702E+01  0.61584188325E+02  0.62139848046E+02  0.00000000000E+00 0. -1.
         -5    1    5    5    0  502 -0.89541576299E+02 -0.24691714878E+02  0.39771385533E+02  0.10114953177E+03  0.47000000000E+01 0.  1.
         11    1    6    6    0    0  0.49944098533E+02  0.31733077839E+02  0.38971874264E+02  0.70853427518E+02  0.00000000000E+00 0. -1.
        -12    1    6    6    0    0 -0.69559585364E+01 -0.27925462082E+02  0.37256307372E+02  0.47077056308E+02  0.00000000000E+00 0.  1.
</event>
<event>
12    1  0.1046899E+000  0.1742206E+03  0.7818608E-02  0.1173618E+00
         21   -1    0    0  501  502  0.00000000000E+00  0.00000000000E+00  0.53566136058E+02  0.53566136058E+02  0.00000000000E+00 0. -1.
         21   -1    0    0  502  503 -0.00000000000E+00 -0.00000000000E+00 -0.64706061036E+03  0.64706061036E+03  0.00000000000E+00 0. -1.
         -6    2    1    2    0  503 -0.65683276857E+01 -0.23677551490E+02 -0.17195404696E+03  0.24450269519E+03  0.17207441506E+03 0.  0.
        -24    2    3    3    0    0 -0.18319759214E+02 -0.15184983648E+02 -0.19768702345E+03  0.21459457037E+03  0.80027951888E+02 0.  0.
          6    2    1    2  501    0  0.65683276857E+01  0.23677551490E+02 -0.42154042734E+03  0.45612405122E+03  0.17247912583E+03 0.  0.
         24    2    5    5    0    0 -0.57045831377E+02 -0.14791010778E+01 -0.31182064844E+03  0.32674036491E+03  0.79187970367E+02 0.  0.
          5    1    5    5  501    0  0.63614159062E+02  0.25156652568E+02 -0.10971977890E+03  0.12938368631E+03  0.47000000000E+01 0. -1.
        -13    1    6    6    0    0 -0.32485300637E+02 -0.38656927282E+02 -0.12807733851E+03  0.13767155634E+03  0.00000000000E+00 0.  1.
         14    1    6    6    0    0 -0.24560530740E+02  0.37177826204E+02 -0.18374330994E+03  0.18906880858E+03  0.00000000000E+00 0. -1.
         -5    1    3    3    0  503  0.11751431528E+02 -0.84925678427E+01  0.25732976492E+02  0.29908124827E+02  0.47000000000E+01 0.  1.
         11    1    4    4    0    0 -0.22162747700E+02 -0.40653675400E+02 -0.67311501767E+02  0.81699124716E+02  0.00000000000E+00 0. -1.
        -12    1    4    4    0    0  0.38429884860E+01  0.25468691753E+02 -0.13037552168E+03  0.13289544565E+03  0.00000000000E+00 0.  1.
</event>
<event>
12    1  0.1046899E+000  0.1803848E+03  0.7818608E-02  0.1168344E+00
         21   -1    0    0  501  502  0.00000000000E+00  0.00000000000E+00  0.16579351622E+04  0.16579351622E+04  0.00000000000E+00 0.  1.
         21   -1    0    0  502  503 -0.00000000000E+00 -0.00000000000E+00 -0.19325618232E+02  0.19325618232E+02  0.00000000000E+00 0.  1.
         -6    2    1    2    0  503 -0.44336910796E+02  0.12009882973E+02  0.76612909447E+03  0.78707844372E+03  0.17443820751E+03 0.  0.
        -24    2    3    3    0    0  0.22681697821E+02  0.41627481415E+02  0.26439340337E+03  0.27999907147E+03  0.79046199515E+02 0.  0.
          6    2    1    2  501    0  0.44336910796E+02 -0.12009882973E+02  0.87248044949E+03  0.89018233669E+03  0.17056511623E+03 0.  0.
         24    2    5    5    0    0 -0.25055841204E+02  0.52108622441E+01  0.25046373672E+03  0.26405232698E+03  0.79602761948E+02 0.  0.
          5    1    5    5  501    0  0.69392752001E+02 -0.17220745217E+02  0.62201671277E+03  0.62613000971E+03  0.47000000000E+01 0. -1.
        -11    1    6    6    0    0 -0.18710464773E+02 -0.36705245660E+02  0.12652652117E+03  0.13306508599E+03  0.00000000000E+00 0.  1.
         12    1    6    6    0    0 -0.63453764319E+01  0.41916107905E+02  0.12393721555E+03  0.13098724099E+03  0.00000000000E+00 0. -1.
         -5    1    3    3    0  503 -0.67018608618E+02 -0.29617598442E+02  0.50173569110E+03  0.50707937225E+03  0.47000000000E+01 0.  1.
         11    1    4    4    0    0  0.36898270108E+01  0.56825471662E+02  0.23522271223E+03  0.24201750640E+03  0.00000000000E+00 0. -1.
        -12    1    4    4    0    0  0.18991870811E+02 -0.15197990247E+02  0.29170691134E+02  0.37981565077E+02  0.00000000000E+00 0.  1.
</event>
<event>
12    1  0.1046899E+000  0.2006716E+03  0.7818608E-02  0.1149925E+00
         21   -1    0    0  501  502  0.00000000000E+00  0.00000000000E+00  0.12005285932E+04  0.12005285932E+04  0.00000000000E+00 0. -1.
         21   -1    0    0  502  503 -0.00000000000E+00 -0.00000000000E+00 -0.33292516795E+02  0.33292516795E+02  0.00000000000E+00 0. -1.
         -6    2    1    2    0  503  0.57748407341E+02 -0.78172652491E+02  0.65102738940E+03  0.68125306822E+03  0.17556548365E+03 0.  0.
        -24    2    3    3    0    0 -0.30548070648E+02 -0.37973139629E+01  0.26801194018E+03  0.28118946908E+03  0.79306451380E+02 0.  0.
          6    2    1    2  501    0 -0.57748407341E+02  0.78172652491E+02  0.51620868697E+03  0.55256804174E+03  0.17150565621E+03 0.  0.
         24    2    5    5    0    0 -0.60384475932E+02  0.11857055908E+03  0.40578598233E+03  0.43486416155E+03  0.82093319639E+02 0.  0.
          5    1    5    5  501    0  0.26360685917E+01 -0.40397906587E+02  0.11042270463E+03  0.11770388020E+03  0.47000000000E+01 0. -1.
        -13    1    6    6    0    0 -0.91193755927E+01  0.10118577520E+03  0.24582415666E+03  0.26599105269E+03  0.00000000000E+00 0.  1.
         14    1    6    6    0    0 -0.51265100340E+02  0.17384783879E+02  0.15996182567E+03  0.16887310886E+03  0.00000000000E+00 0. -1.
         -5    1    3    3    0  503  0.88296477988E+02 -0.74375338528E+02  0.38301544922E+03  0.40006359913E+03  0.47000000000E+01 0.  1.
         11    1    4    4    0    0 -0.25132446957E+02 -0.28070364593E+01  0.17819085943E+02  0.30936049644E+02  0.00000000000E+00 0. -1.
        -12    1    4    4    0    0 -0.54156236905E+01 -0.99027750363E+00  0.25019285424E+03  0.25025341944E+03  0.00000000000E+00 0.  1.
</event>
<event>
12    1  0.1046899E+000  0.2073270E+03  0.7818608E-02  0.1143741E+00
         21   -1    0    0  503  502  0.00000000000E+00  0.00000000000E+00  0.10455246685E+03  0.10455246685E+03  0.00000000000E+00 0.  1.
         21   -1    0    0  501  503 -0.00000000000E+00 -0.00000000000E+00 -0.71323156203E+03  0.71323156203E+03  0.00000000000E+00 0.  1.
          6    2    1    2  501    0 -0.10471281785E+03 -0.52225281317E+02 -0.57071512803E+03  0.60720692974E+03  0.17114977048E+03 0.  0.
         24    2    3    3    0    0 -0.35186330155E+02 -0.75845121173E+02 -0.22159955671E+03  0.25042183831E+03  0.81327568125E+02 0.  0.
         -6    2    1    2    0  502  0.10471281785E+03  0.52225281317E+02 -0.37963967156E+02  0.21057709914E+03  0.17090698538E+03 0.  0.
        -24    2    5    5    0    0  0.92354826948E+02  0.66772087088E+02  0.27690098327E+02  0.14204334241E+03  0.80135160223E+02 0.  0.
          5    1    3    3  501    0 -0.69526487694E+02  0.23619839856E+02 -0.34911557132E+03  0.35678509143E+03  0.47000000000E+01 0. -1.
        -13    1    4    4    0    0  0.20069442715E+02 -0.19322254552E+02 -0.11123536792E+03  0.11467100387E+03  0.00000000000E+00 0.  1.
         14    1    4    4    0    0 -0.55255772870E+02 -0.56522866621E+02 -0.11036418878E+03  0.13575083445E+03  0.00000000000E+00 0. -1.
         -5    1    5    5    0  502  0.12357990902E+02 -0.14546805772E+02 -0.65654065483E+02  0.68533756731E+02  0.47000000000E+01 0.  1.
         13    1    6    6    0    0  0.76582028578E+02  0.24021634954E+02 -0.12568524776E+02  0.81239238438E+02  0.00000000000E+00 0. -1.
        -14    1    6    6    0    0  0.15772798370E+02  0.42750452134E+02  0.40258623103E+02  0.60804103975E+02  0.00000000000E+00 0.  1.
</event>
<event>
12    1  0.1046899E+000  0.2088173E+03  0.7818608E-02  0.1142751E+00
         21   -1    0    0  503  502  0.00000000000E+00  0.00000000000E+00  0.23370800078E+03  0.23370800078E+03  0.00000000000E+00 0. -1.
         21   -1    0    0  501  503 -0.00000000000E+00 -0.00000000000E+00 -0.28823440617E+03  0.28823440617E+03  0.00000000000E+00 0. -1.
          6    2    1    2  501    0  0.57691989254E+02  0.10422058960E+03  0.12860408508E+03  0.24419888968E+03  0.17001114699E+03 0.  0.
         24    2    3    3    0    0  0.74362329632E+02  0.13003509719E+03  0.82088571601E+02  0.18825184289E+03  0.79128630684E+02 0.  0.
         -6    2    1    2    0  502 -0.57691989254E+02 -0.10422058960E+03 -0.18313049047E+03  0.27774351727E+03  0.17150623290E+03 0.  0.
        -24    2    5    5    0    0  0.28514219761E+02 -0.64182019403E+02 -0.13058180652E+03  0.16903265415E+03  0.81166727357E+02 0.  0.
          5    1    3    3  501    0 -0.16670340378E+02 -0.25814507594E+02  0.46515513480E+02  0.55947046793E+02  0.47000000000E+01 0. -1.
        -11    1    4    4    0    0  0.53158955559E+02  0.54807957463E+02  0.79242794432E+02  0.11004184307E+03  0.00000000000E+00 0.  1.
         12    1    4    4    0    0  0.21203374073E+02  0.75227139726E+02  0.28457771697E+01  0.78209999816E+02  0.00000000000E+00 0. -1.
         -5    1    5    5    0  502 -0.86206209015E+02 -0.40038570192E+02 -0.52548683943E+02  0.10871086312E+03  0.47000000000E+01 0.  1.
         11    1    6    6    0    0  0.46771421482E+02 -0.57203822038E+02 -0.58201691077E+02  0.94059980691E+02  0.00000000000E+00 0. -1.
        -12    1    6    6    0    0 -0.18257201721E+02 -0.69781973642E+01 -0.72380115448E+02  0.74972673457E+02  0.00000000000E+00 0.  1.
</event>
<event>
12    1  0.1046899E+000  0.2103315E+03  0.7818608E-02  0.1141417E+00
         21   -1    0    0  503  502  0.00000000000E+00  0.00000000000E+00  0.11278349425E+03  0.11278349425E+03  0.00000000000E+00 0.  1.
         21   -1    0    0  501  503 -0.00000000000E+00 -0.00000000000E+00 -0.41264663278E+03  0.41264663278E+03  0.00000000000E+00 0.  1.
          6    2    1    2  501    0  0.33604246157E+02 -0.11574173469E+03 -0.20965050414E+03  0.29656848607E+03  0.17168033822E+03 0.  0.
         24    2    3    3    0    0  0.81893101175E+01 -0.14203947239E+03 -0.20008459287E+03  0.25847535492E+03  0.80829377595E+02 0.  0.
         -6    2    1    2    0  502 -0.33604246157E+02  0.11574173469E+03 -0.90212634388E+02  0.22886164096E+03  0.17237730939E+03 0.  0.
        -24    2    5    5    0    0 -0.38292838978E+02  0.11708738088E+03 -0.12540290559E+03  0.19302536250E+03  0.79731459039E+02 0.  0.
          5    1    3    3  501    0  0.25414936039E+02  0.26297737700E+02 -0.95659112745E+01  0.38093131146E+02  0.47000000000E+01 0. -1.
        -13    1    4    4    0    0  0.20409940383E+01 -0.41930390184E+02 -0.12868521583E+03  0.13535955102E+03  0.00000000000E+00 0.  1.
         14    1    4    4    0    0  0.61483160793E+01 -0.10010908220E+03 -0.71399377038E+02  0.12311580391E+03  0.00000000000E+00 0. -1.
         -5    1    5    5    0  502  0.46885928214E+01 -0.13456461886E+01  0.35190271204E+02  0.35836278458E+02  0.47000000000E+01 0.  1.
         11    1    6    6    0    0 -0.44039597728E+02  0.48376021939E+02 -0.22546311612E+02  0.69195822374E+02  0.00000000000E+00 0. -1.
        -12    1    6    6    0    0  0.57467587496E+01  0.68711358936E+02 -0.10285659398E+03  0.12382954013E+03  0.00000000000E+00 0.  1.
</event>
<event>
12    1  0.1046899E+000  0.1951915E+03  0.7818608E-02  0.1154019E+00
         21   -1    0    0  501  502  0.00000000000E+00  0.00000000000E+00  0.46732334607E+03  0.46732334607E+03  0.00000000000E+00 0.  1.
         21   -1    0    0  502  503 -0.00000000000E+00 -0.00000000000E+00 -0.11570838940E+03  0.11570838940E+03  0.00000000000E+00 0.  1.
         -6    2    1    2    0  503  0.83344447626E+02  0.40750723159E+02  0.16436376422E+02  0.19516009262E+03  0.17091047040E+03 0.  0.
        -24    2    3    3    0    0  0.51274756116E+02 -0.40412715831E+02  0.30429437966E+02  0.10665097041E+03  0.78652339946E+02 0.  0.
          6    2    1    2  501    0 -0.83344447626E+02 -0.40750723159E+02  0.33517858024E+03  0.38787164285E+03  0.17173471485E+03 0.  0.
         24    2    5    5    0    0  0.96664867379E+01 -0.50172486684E+02  0.21802859310E+03  0.23791827334E+03  0.80361172181E+02 0.  0.
          5    1    5    5  501    0 -0.93010934364E+02  0.94217635246E+01  0.11714998714E+03  0.14995336950E+03  0.47000000000E+01 0. -1.
        -11    1    6    6    0    0 -0.35376600887E+01 -0.54913265539E+02  0.21698099261E+03  0.22384979993E+03  0.00000000000E+00 0.  1.
         12    1    6    6    0    0  0.13204146827E+02  0.47407788547E+01  0.10476004910E+01  0.14068473420E+02  0.00000000000E+00 0. -1.
         -5    1    3    3    0  503  0.32069691510E+02  0.81163438991E+02 -0.13993061544E+02  0.88509122206E+02  0.47000000000E+01 0.  1.
         11    1    4    4    0    0 -0.16838544554E+02 -0.23219688644E+02  0.21478781146E+02  0.35833344289E+02  0.00000000000E+00 0. -1.
        -12    1    4    4    0    0  0.68113300670E+02 -0.17193027188E+02  0.89506568202E+01  0.70817626122E+02  0.00000000000E+00 0.  1.
</event>
<event>
12    1  0.1046899E+000  0.2161403E+03  0.7818608E-02  0.1136878E+00
         21   -1    0    0  503  502  0.00000000000E+00  0.00000000000E+00  0.96502588374E+02  0.96502588374E+02  0.00000000000E+00 0.  1.
         21   -1    0    0  501  503 -0.00000000000E+00 -0.00000000000E+00 -0.96532610406E+03  0.96532610406E+03  0.00000000000E+00 0.  1.
          6    2    1    2  501    0  0.23954096036E+02 -0.12824035919E+03 -0.58950808062E+02  0.22361007520E+03  0.17177566626E+03 0.  0.
         24    2    3    3    0    0  0.15112419166E+02 -0.16095755396E+03 -0.57999269837E+02  0.18938164391E+03  0.79785790468E+02 0.  0.
         -6    2    1    2    0  502 -0.23954096036E+02  0.12824035919E+03 -0.80987270762E+03  0.83821861723E+03  0.17232892757E+03 0.  0.
        -24    2    5    5    0    0 -0.36602237458E+01  0.68180649757E+02 -0.20588486480E+03  0.23089463925E+03  0.79131274745E+02 0.  0.
          5    1    3    3  501    0  0.88416768705E+01  0.32717194768E+02 -0.95153822508E+00  0.34228431287E+02  0.47000000000E+01 0. -1.
        -11    1    4    4    0    0 -0.18828894779E+01 -0.14311791680E+03 -0.72860001071E+02  0.16060779289E+03  0.00000000000E+00 0.  1.
         12    1    4    4    0    0  0.16995308644E+02 -0.17839637162E+02  0.14860731233E+02  0.28773851024E+02  0.00000000000E+00 0. -1.
         -5    1    5    5    0  502 -0.20293872290E+02  0.60059709434E+02 -0.60398784282E+03  0.60732397798E+03  0.47000000000E+01 0.  1.
         13    1    6    6    0    0 -0.12312224153E+02  0.81130880186E+01 -0.14206004211E+03  0.14282320759E+03  0.00000000000E+00 0. -1.
        -14    1    6    6    0    0  0.86520004074E+01  0.60067561739E+02 -0.63824822686E+02  0.88071431663E+02  0.00000000000E+00 0.  1.
</event>
<event>
12    1  0.1046899E+000  0.2614191E+03  0.7818608E-02  0.1106405E+00
         21   -1    0    0  503  502  0.00000000000E+00  0.00000000000E+00  0.10761893586E+03  0.10761893586E+03  0.00000000000E+00 0. -1.
         21   -1    0    0  501  503 -0.00000000000E+00 -0.00000000000E+00 -0.69437653803E+03  0.69437653803E+03  0.00000000000E+00 0. -1.
          6    2    1    2  501    0 -0.88818232480E+00  0.19618551811E+03 -0.41277938745E+03  0.48859675705E+03  0.17277274643E+03 0.  0.
         24    2    3    3    0    0  0.50552179773E+02  0.12479550105E+03 -0.34088771607E+03  0.37487275869E+03  0.78712834269E+02 0.  0.
         -6    2    1    2    0  502  0.88818232480E+00 -0.19618551811E+03 -0.17397821472E+03  0.31339871684E+03  0.17164145810E+03 0.  0.
        -24    2    5    5    0    0 -0.94558666993E+01 -0.17351499295E+03 -0.65566334060E+02  0.20206059251E+03  0.79578091780E+02 0.  0.
          5    1    3    3  501    0 -0.51440362097E+02  0.71390017061E+02 -0.71891671379E+02  0.11372399836E+03  0.47000000000E+01 0. -1.
        -13    1    4    4    0    0 -0.50314671346E+01  0.88326371952E+02 -0.17317194120E+03  0.19446178252E+03  0.00000000000E+00 0.  1.
         14    1    4    4    0    0  0.55583646907E+02  0.36469129098E+02 -0.16771577488E+03  0.18041097617E+03  0.00000000000E+00 0. -1.
         -5    1    5    5    0  502  0.10344049024E+02 -0.22670525160E+02 -0.10841188066E+03  0.11133812433E+03  0.47000000000E+01 0.  1.
         13    1    6    6    0    0  0.21407663664E+02 -0.25574162301E+02 -0.34090582663E+02  0.47691651966E+02  0.00000000000E+00 0. -1.
        -14    1    6    6    0    0 -0.30863530363E+02 -0.14794083065E+03 -0.31475751397E+02  0.15436894055E+03  0.00000000000E+00 0.  1.
</event>
<event>
12    1  0.1046899E+000  0.4500913E+03  0.7818608E-02  0.1027700E+00
         21   -1    0    0  503  502  0.00000000000E+00  0.00000000000E+00  0.74515737091E+03  0.74515737091E+03  0.00000000000E+00 0. -1.
         21   -1    0    0  501  503 -0.00000000000E+00 -0.00000000000E+00 -0.33315560550E+03  0.33315560550E+03  0.00000000000E+00 0.  1.
          6    2    1    2  501    0  0.37736151269E+03  0.17438633549E+03  0.43731475522E+03  0.62751047704E+03  0.17237429739E+03 0.  0.
         24    2    3    3    0    0  0.17763802347E+03  0.14632307399E+03  0.19563611118E+03  0.31269676105E+03  0.80870680780E+02 0.  0.
         -6    2    1    2    0  502 -0.37736151269E+03 -0.17438633549E+03 -0.25312989809E+02  0.45080249938E+03  0.17253938893E+03 0.  0.
        -24    2    5    5    0    0 -0.32353184780E+03 -0.85905358796E+02 -0.39313128930E+02  0.34618600950E+03  0.79035712564E+02 0.  0.
          5    1    3    3  501    0  0.19972348921E+03  0.28063261501E+02  0.24167864404E+03  0.31481371599E+03  0.47000000000E+01 0. -1.
        -13    1    4    4    0    0  0.17512776677E+03  0.15360771118E+03  0.17710664290E+03  0.29262916223E+03  0.00000000000E+00 0.  1.
         14    1    4    4    0    0  0.25102567036E+01 -0.72846371927E+01  0.18529468281E+02  0.20067598823E+02  0.00000000000E+00 0. -1.
         -5    1    5    5    0  502 -0.53829664889E+02 -0.88480976692E+02  0.14000139120E+02  0.10461648988E+03  0.47000000000E+01 0.  1.
         13    1    6    6    0    0 -0.88546909845E+02  0.68219051314E+01  0.80212550254E+01  0.89170814536E+02  0.00000000000E+00 0. -1.
        -14    1    6    6    0    0 -0.23498493795E+03 -0.92727263928E+02 -0.47334383955E+02  0.25701519497E+03  0.00000000000E+00 0.  1.
</event>
<event>
12    1  0.1046899E+000  0.1758035E+03  0.7818608E-02  0.1172013E+00
         21   -1    0    0  503  502  0.00000000000E+00  0.00000000000E+00  0.11678065135E+04  0.11678065135E+04  0.00000000000E+00 0.  1.
         21   -1    0    0  501  503 -0.00000000000E+00 -0.00000000000E+00 -0.26509368698E+02  0.26509368698E+02  0.00000000000E+00 0.  1.
          6    2    1    2  501    0 -0.31573930537E+02  0.18105940496E+02  0.53436022766E+03  0.56243038798E+03  0.17164600273E+03 0.  0.
         24    2    3    3    0    0 -0.29610362662E+01  0.22327851000E+02  0.52537381447E+03  0.53178127920E+03  0.79160490876E+02 0.  0.
         -6    2    1    2    0  502  0.31573930537E+02 -0.18105940496E+02  0.60693691719E+03  0.63188549426E+03  0.17199452967E+03 0.  0.
        -24    2    5    5    0    0  0.80707052024E+02 -0.42457118063E+02  0.44429384551E+03  0.46018254658E+03  0.77812080680E+02 0.  0.
          5    1    3    3  501    0 -0.28612894271E+02 -0.42219105045E+01  0.89864131865E+01  0.30649108777E+02  0.47000000000E+01 0. -1.
        -11    1    4    4    0    0  0.20176498897E+02  0.45197381398E+02  0.33784575546E+03  0.34145226442E+03  0.00000000000E+00 0.  1.
         12    1    4    4    0    0 -0.23137535163E+02 -0.22869530398E+02  0.18752805901E+03  0.19032901479E+03  0.00000000000E+00 0. -1.
         -5    1    5    5    0  502 -0.49133121486E+02  0.24351177568E+02  0.16264307168E+03  0.17170294767E+03  0.47000000000E+01 0.  1.
         11    1    6    6    0    0  0.67389203261E+02 -0.60811920799E+02  0.28037422875E+03  0.29470171797E+03  0.00000000000E+00 0. -1.
        -12    1    6    6    0    0  0.13317848762E+02  0.18354802736E+02  0.16391961677E+03  0.16548082862E+03  0.00000000000E+00 0.  1.
</event>
<event>
12    1  0.1046899E+000  0.2114100E+03  0.7818608E-02  0.1141699E+00
         21   -1    0    0  501  502  0.00000000000E+00  0.00000000000E+00  0.18268103054E+03  0.18268103054E+03  0.00000000000E+00 0. -1.
         21   -1    0    0  502  503 -0.00000000000E+00 -0.00000000000E+00 -0.23825296345E+03  0.23825296345E+03  0.00000000000E+00 0. -1.
         -6    2    1    2    0  503  0.70576790462E+02 -0.84545234544E+02 -0.16285458262E+02  0.21203634216E+03  0.18045834481E+03 0.  0.
        -24    2    3    3    0    0 -0.16606850175E+02  0.29982380369E+01 -0.28347607347E+02  0.87809001265E+02  0.81376022002E+02 0.  0.
          6    2    1    2  501    0 -0.70576790462E+02  0.84545234544E+02 -0.39286474644E+02  0.20889765183E+03  0.17310638871E+03 0.  0.
         24    2    5    5    0    0 -0.41721035760E+02 -0.72494767370E+01  0.26752451452E+02  0.92098022727E+02  0.77286172073E+02 0.  0.
          5    1    5    5  501    0 -0.28855754702E+02  0.91794711281E+02 -0.66038926096E+02  0.11679962910E+03  0.47000000000E+01 0. -1.
        -13    1    6    6    0    0  0.37891183361E+01  0.29309383247E+02  0.11925941181E+02  0.31868878818E+02  0.00000000000E+00 0.  1.
         14    1    6    6    0    0 -0.45510154096E+02 -0.36558859984E+02  0.14826510271E+02  0.60229143909E+02  0.00000000000E+00 0. -1.
         -5    1    3    3    0  503  0.87183640638E+02 -0.87543472581E+02  0.12062149085E+02  0.12422734090E+03  0.47000000000E+01 0.  1.
         13    1    4    4    0    0 -0.32313743034E+02 -0.12484516691E+02  0.16092551950E+02  0.38197007397E+02  0.00000000000E+00 0. -1.
        -14    1    4    4    0    0  0.15706892858E+02  0.15482754728E+02 -0.44440159297E+02  0.49611993868E+02  0.00000000000E+00 0.  1.
</event>
<event>
12    1  0.1046899E+000  0.3272970E+03  0.7818608E-02  0.1072505E+00
         21   -1    0    0  503  502  0.00000000000E+00  0.00000000000E+00  0.25964285850E+04  0.25964285850E+04  0.00000000000E+00 0. -1.
         21   -1    0    0  501  503 -0.00000000000E+00 -0.00000000000E+00 -0.46073891704E+02  0.46073891704E+02  0.00000000000E+00 0. -1.
          6    2    1    2  501    0  0.58777703965E+02  0.27105698189E+03  0.17131124706E+04  0.17440979472E+04  0.17377170873E+03 0.  0.
         24    2    3    3    0    0  0.10420254941E+03  0.23423442651E+03  0.14426692207E+04  0.14673652990E+04  0.78374119472E+02 0.  0.
         -6    2    1    2    0  502 -0.58777703965E+02 -0.27105698189E+03  0.83724222272E+03  0.89840452948E+03  0.17096623401E+03 0.  0.
        -24    2    5    5    0    0 -0.62626788242E+01 -0.11972119435E+03  0.22014786757E+03  0.26084050790E+03  0.72113115609E+02 0.  0.
          5    1    3    3  501    0 -0.45424845442E+02  0.36822555378E+02  0.27044324989E+03  0.27673264820E+03  0.47000000000E+01 0. -1.
        -13    1    4    4    0    0  0.80698314058E+02  0.17547550033E+03  0.12427337335E+04  0.12576529734E+04  0.00000000000E+00 0.  1.
         14    1    4    4    0    0  0.23504235350E+02  0.58758926178E+02  0.19993548716E+03  0.20971232561E+03  0.00000000000E+00 0. -1.
         -5    1    5    5    0  502 -0.52515025141E+02 -0.15133578753E+03  0.61709435516E+03  0.63756402159E+03  0.47000000000E+01 0.  1.
         11    1    6    6    0    0  0.32263260163E+02 -0.68266025192E+02  0.11359248946E+03  0.13639802716E+03  0.00000000000E+00 0. -1.
        -12    1    6    6    0    0 -0.38525938988E+02 -0.51455169159E+02  0.10655537810E+03  0.12444248073E+03  0.00000000000E+00 0.  1.
</event>
<event>
12    1  0.1046899E+000  0.4315687E+03  0.7818608E-02  0.1033369E+00
         21   -1    0    0  501  502  0.00000000000E+00  0.00000000000E+00  0.92720840184E+03  0.92720840184E+03  0.00000000000E+00 0.  1.
         21   -1    0    0  502  503 -0.00000000000E+00 -0.00000000000E+00 -0.22367926221E+03  0.22367926221E+03  0.00000000000E+00 0.  1.
         -6    2    1    2    0  503 -0.18650408312E+03  0.34927380606E+03  0.16792984619E+03  0.46305182253E+03  0.17158261126E+03 0.  0.
        -24    2    3    3    0    0 -0.10069499918E+03  0.88454480762E+02  0.53559818967E+02  0.16557491172E+03  0.81133958106E+02 0.  0.
          6    2    1    2  501    0  0.18650408312E+03 -0.34927380606E+03  0.53559929345E+03  0.68783584152E+03  0.17168452792E+03 0.  0.
         24    2    5    5    0    0  0.14951279051E+02 -0.11859807653E+03  0.18835273122E+03  0.23701001956E+03  0.80049693996E+02 0.  0.
          5    1    5    5  501    0  0.17155280407E+03 -0.23067572953E+03  0.34724656222E+03  0.45082582197E+03  0.47000000000E+01 0. -1.
        -11    1    6    6    0    0 -0.21568544649E+02 -0.19065202167E+02  0.81712902101E+02  0.86635341644E+02  0.00000000000E+00 0.  1.
         12    1    6    6    0    0  0.36519823701E+02 -0.99532874362E+02  0.10663982912E+03  0.15037467791E+03  0.00000000000E+00 0. -1.
         -5    1    3    3    0  503 -0.85809083941E+02  0.26081932530E+03  0.11437002722E+03  0.29747691080E+03  0.47000000000E+01 0.  1.
         11    1    4    4    0    0 -0.77421488419E+02  0.92427030073E+02  0.67478727838E+02  0.13816736759E+03  0.00000000000E+00 0. -1.
        -12    1    4    4    0    0 -0.23273510758E+02 -0.39725493105E+01 -0.13918908871E+02  0.27407544129E+02  0.00000000000E+00 0.  1.
</event>
<event>
12    1  0.1046899E+000  0.2074152E+03  0.7818608E-02  0.1144062E+00
         21   -1    0    0  503  502  0.00000000000E+00  0.00000000000E+00  0.86202344708E+02  0.86202344708E+02  0.00000000000E+00 0.  1.
         21   -1    0    0  501  503 -0.00000000000E+00 -0.00000000000E+00 -0.50496684257E+03  0.50496684257E+03  0.00000000000E+00 0.  1.
          6    2    1    2  501    0  0.94550079147E+02 -0.66013618439E+02 -0.25200083784E+03  0.32502790685E+03  0.16982697864E+03 0.  0.
         24    2    3    3    0    0  0.11403408953E+03 -0.85589145763E+02 -0.16516469384E+03  0.23378409152E+03  0.83942539333E+02 0.  0.
         -6    2    1    2    0  502 -0.94550079147E+02  0.66013618439E+02 -0.16676366003E+03  0.26614128043E+03  0.17240518426E+03 0.  0.
        -24    2    5    5    0    0 -0.18199069069E+02 -0.27683471248E+02 -0.72674567820E+02  0.11289811214E+03  0.79792294251E+02 0.  0.
          5    1    3    3  501    0 -0.19484010386E+02  0.19575527324E+02 -0.86836143998E+02  0.91243815326E+02  0.47000000000E+01 0. -1.
        -11    1    4    4    0    0  0.20705979325E+02  0.16968138896E+02 -0.28073672836E+02  0.38791576714E+02  0.00000000000E+00 0.  1.
         12    1    4    4    0    0  0.93328110208E+02 -0.10255728466E+03 -0.13709102100E+03  0.19499251481E+03  0.00000000000E+00 0. -1.
         -5    1    5    5    0  502 -0.76351010078E+02  0.93697089686E+02 -0.94089092207E+02  0.15324316829E+03  0.47000000000E+01 0.  1.
         11    1    6    6    0    0 -0.36515904798E+02 -0.34176337325E+02 -0.15270310371E+02  0.52293553283E+02  0.00000000000E+00 0. -1.
        -12    1    6    6    0    0  0.18316835729E+02  0.64928660774E+01 -0.57404257450E+02  0.60604558858E+02  0.00000000000E+00 0.  1.
</event>
<event>
12    1  0.1046899E+000  0.2024147E+03  0.7818608E-02  0.1148135E+00
         21   -1    0    0  503  502  0.00000000000E+00  0.00000000000E+00  0.43011347691E+03  0.43011347691E+03  0.00000000000E+00 0.  1.
         21   -1    0    0  501  503 -0.00000000000E+00 -0.00000000000E+00 -0.23205177815E+03  0.23205177815E+03  0.00000000000E+00 0.  1.
          6    2    1    2  501    0  0.91143166936E+01 -0.10426035774E+03  0.35390177675E+03  0.40670910739E+03  0.17091675600E+03 0.  0.
         24    2    3    3    0    0  0.43501078574E+01 -0.67272507552E+01  0.68041695790E+02  0.10459409530E+03  0.79032101480E+02 0.  0.
         -6    2    1    2    0  502 -0.91143166936E+01  0.10426035774E+03 -0.15584007798E+03  0.25545614767E+03  0.17325824802E+03 0.  0.
        -24    2    5    5    0    0 -0.43788098231E+02  0.32710194164E+02 -0.19867744274E+02  0.97873589720E+02  0.78722029656E+02 0.  0.
          5    1    3    3  501    0  0.47642088363E+01 -0.97533106990E+02  0.28586008096E+03  0.30211501209E+03  0.47000000000E+01 0. -1.
        -13    1    4    4    0    0 -0.18322749409E+02  0.30640208219E+02  0.31983089655E+02  0.47931863405E+02  0.00000000000E+00 0.  1.
         14    1    4    4    0    0  0.22672857266E+02 -0.37367458974E+02  0.36058606135E+02  0.56662231894E+02  0.00000000000E+00 0. -1.
         -5    1    5    5    0  502  0.34673781538E+02  0.71550163581E+02 -0.13597233371E+03  0.15758255795E+03  0.47000000000E+01 0.  1.
         11    1    6    6    0    0 -0.18508927435E+02  0.49641354671E+02  0.11457809044E+02  0.54204482070E+02  0.00000000000E+00 0. -1.
        -12    1    6    6    0    0 -0.25279170796E+02 -0.16931160507E+02 -0.31325553319E+02  0.43669107650E+02  0.00000000000E+00 0.  1.
</event>
<event>
12    1  0.1046899E+000  0.1904146E+03  0.7818608E-02  0.1159789E+00
         21   -1    0    0  501  502  0.00000000000E+00  0.00000000000E+00  0.51974971572E+03  0.51974971572E+03  0.00000000000E+00 0.  1.
         21   -1    0    0  502  503 -0.00000000000E+00 -0.00000000000E+00 -0.71308266430E+02  0.71308266430E+02  0.00000000000E+00 0.  1.
         -6    2    1    2    0  503 -0.28942361750E+02  0.61463321510E+02  0.29204488586E+03  0.34464856600E+03  0.16993239388E+03 0.  0.
        -24    2    3    3    0    0  0.32366085766E+02  0.47078949447E+02  0.24375657634E+03  0.26515336657E+03  0.87321522554E+02 0.  0.
          6    2    1    2  501    0  0.28942361750E+02 -0.61463321510E+02  0.15639656343E+03  0.24640941615E+03  0.17788286911E+03 0.  0.
         24    2    5    5    0    0  0.18960597491E+01  0.14614839948E+02  0.14253119632E+03  0.16435012352E+03  0.80489953329E+02 0.  0.
          5    1    5    5  501    0  0.27046302001E+02 -0.76078161458E+02  0.13865367109E+02  0.82059292635E+02  0.47000000000E+01 0. -1.
        -11    1    6    6    0    0  0.39162689415E+02  0.20247585800E+02  0.79722409493E+02  0.91100732973E+02  0.00000000000E+00 0.  1.
         12    1    6    6    0    0 -0.37266629666E+02 -0.56327458519E+01  0.62808786824E+02  0.73249390542E+02  0.00000000000E+00 0. -1.
         -5    1    3    3    0  503 -0.61308447516E+02  0.14384372063E+02  0.48288309519E+02  0.79495199431E+02  0.47000000000E+01 0.  1.
         11    1    4    4    0    0  0.54977317242E+02  0.57116949621E+02  0.19441266676E+03  0.20995508173E+03  0.00000000000E+00 0. -1.
        -12    1    4    4    0    0 -0.22611231476E+02 -0.10038000174E+02  0.49343909583E+02  0.55198284840E+02  0.00000000000E+00 0.  1.
</event>
<event>
12    1  0.1046899E+000  0.2434924E+03  0.7818608E-02  0.1117789E+00
         21   -1    0    0  501  502  0.00000000000E+00  0.00000000000E+00  0.78664586115E+02  0.78664586115E+02  0.00000000000E+00 0. -1.
         21   -1    0    0  502  503 -0.00000000000E+00 -0.00000000000E+00 -0.10641409355E+04  0.10641409355E+04  0.00000000000E+00 0. -1.
         -6    2    1    2    0  503 -0.88790723175E+02  0.14796810738E+03 -0.18261199136E+03  0.30436111573E+03  0.17178531969E+03 0.  0.
        -24    2    3    3    0    0 -0.91318240687E+01  0.87970547304E+02 -0.16385934482E+03  0.20277864099E+03  0.80293741690E+02 0.  0.
          6    2    1    2  501    0  0.88790723175E+02 -0.14796810738E+03 -0.80286435806E+03  0.83844440592E+03  0.16917296191E+03 0.  0.
         24    2    5    5    0    0  0.11580731403E+03 -0.11732926154E+03 -0.49174064768E+03  0.52461533107E+03  0.78961328628E+02 0.  0.
          5    1    5    5  501    0 -0.27016590850E+02 -0.30638845837E+02 -0.31112371039E+03  0.31382907485E+03  0.47000000000E+01 0. -1.
        -11    1    6    6    0    0  0.77498283995E+02 -0.27782336477E+02 -0.27361584441E+03  0.28573321920E+03  0.00000000000E+00 0.  1.
         12    1    6    6    0    0  0.38309030031E+02 -0.89546925065E+02 -0.21812480326E+03  0.23888211187E+03  0.00000000000E+00 0. -1.
         -5    1    3    3    0  503 -0.79658899107E+02  0.59997560076E+02 -0.18752646537E+02  0.10158247474E+03  0.47000000000E+01 0.  1.
         11    1    4    4    0    0  0.21109829741E+02 -0.43126000510E+01 -0.39498672298E+02  0.44992983277E+02  0.00000000000E+00 0. -1.
        -12    1    4    4    0    0 -0.30241653810E+02  0.92283147355E+02 -0.12436067252E+03  0.15778565772E+03  0.00000000000E+00 0.  1.
</event>
<event>
12    1  0.1046899E+000  0.6006790E+03  0.7818608E-02  0.9904216E-01
         21   -1    0    0  503  502  0.00000000000E+00  0.00000000000E+00  0.64005368265E+03  0.64005368265E+03  0.00000000000E+00 0. -1.
         21   -1    0    0  501  503 -0.00000000000E+00 -0.00000000000E+00 -0.56714731617E+03  0.56714731617E+03  0.00000000000E+00 0.  1.
          6    2    1    2  501    0 -0.36969005307E+03  0.44063160095E+03  0.85975130868E+02  0.60680056754E+03  0.17317119434E+03 0.  0.
         24    2    3    3    0    0 -0.11796522314E+03  0.94479488630E+02  0.15281405082E+02  0.17297298920E+03  0.82728266085E+02 0.  0.
         -6    2    1    2    0  502  0.36969005307E+03 -0.44063160095E+03 -0.13068764392E+02  0.60040043128E+03  0.17170597600E+03 0.  0.
        -24    2    5    5    0    0  0.19586141002E+03 -0.23559611486E+03 -0.73445511289E+02  0.32485843945E+03  0.79193063343E+02 0.  0.
          5    1    3    3  501    0 -0.25172482993E+03  0.34615211232E+03  0.70693725786E+02  0.43382757834E+03  0.47000000000E+01 0. -1.
        -11    1    4    4    0    0 -0.81407832745E+02  0.92116092613E+02 -0.17053016845E+02  0.12411049566E+03  0.00000000000E+00 0.  1.
         12    1    4    4    0    0 -0.36557390394E+02  0.23633960171E+01  0.32334421927E+02  0.48862493535E+02  0.00000000000E+00 0. -1.
         -5    1    5    5    0  502  0.17382864305E+03 -0.20503548608E+03  0.60376746897E+02  0.27554199183E+03  0.47000000000E+01 0.  1.
         13    1    6    6    0    0  0.13030874488E+03 -0.16214110550E+03 -0.11067596058E+02  0.20830890228E+03  0.00000000000E+00 0. -1.
        -14    1    6    6    0    0  0.65552665137E+02 -0.73455009363E+02 -0.62377915231E+02  0.11654953717E+03  0.00000000000E+00 0.  1.
</event>
<event>
12    1  0.1046899E+000  0.1757603E+03  0.7818608E-02  0.1172080E+00
         21   -1    0    0  501  502  0.00000000000E+00  0.00000000000E+00  0.37368035520E+02  0.37368035520E+02  0.00000000000E+00 0.  1.
         21   -1    0    0  502  503 -0.00000000000E+00 -0.00000000000E+00 -0.84571139183E+03  0.84571139183E+03  0.00000000000E+00 0.  1.
         -6    2    1    2    0  503  0.42065168187E+01  0.29834830591E+02 -0.47438249914E+03  0.50589567727E+03  0.17315850799E+03 0.  0.
        -24    2    3    3    0    0 -0.35746206652E+02  0.69936774362E+02 -0.37181693038E+03  0.38865160747E+03  0.81445064774E+02 0.  0.
          6    2    1    2  501    0 -0.42065168187E+01 -0.29834830591E+02 -0.33396085717E+03  0.37718375008E+03  0.17271339063E+03 0.  0.
         24    2    5    5    0    0  0.34222874325E+02 -0.22977367230E+02 -0.32464122290E+03  0.33677597249E+03  0.79542237247E+02 0.  0.
          5    1    5    5  501    0 -0.38429391143E+02 -0.68574633606E+01 -0.93196342710E+01  0.40407777597E+02  0.47000000000E+01 0. -1.
        -11    1    6    6    0    0  0.29652762383E+01 -0.48786499128E+02 -0.16688775480E+03  0.17389778050E+03  0.00000000000E+00 0.  1.
         12    1    6    6    0    0  0.31257598086E+02  0.25809131898E+02 -0.15775346810E+03  0.16287819199E+03  0.00000000000E+00 0. -1.
         -5    1    3    3    0  503  0.39952723471E+02 -0.40101943771E+02 -0.10256556876E+03  0.11724406979E+03  0.47000000000E+01 0.  1.
         13    1    4    4    0    0 -0.16550599945E+02  0.17205701928E+02 -0.28019606805E+03  0.28121129971E+03  0.00000000000E+00 0. -1.
        -14    1    4    4    0    0 -0.19195606707E+02  0.52731072434E+02 -0.91620862334E+02  0.10744030776E+03  0.00000000000E+00 0.  1.
</event>
<event>
12    1  0.1046899E+000  0.3201221E+03  0.7818608E-02  0.1076191E+00
         21   -1    0    0  503  502  0.00000000000E+00  0.00000000000E+00  0.90522068676E+03  0.90522068676E+03  0.00000000000E+00 0.  1.
         21   -1    0    0  501  503 -0.00000000000E+00 -0.00000000000E+00 -0.11598985762E+03  0.11598985762E+03  0.00000000000E+00 0.  1.
          6    2    1    2  501    0 -0.25793723951E+03 -0.76319372355E+02  0.49934826186E+03  0.59314993796E+03  0.17355660793E+03 0.  0.
         24    2    3    3    0    0 -0.17262884345E+03 -0.17481586165E+02  0.20311942194E+03  0.27928209456E+03  0.81453454966E+02 0.  0.
         -6    2    1    2    0  502  0.25793723951E+03  0.76319372355E+02  0.28988256728E+03  0.42806060641E+03  0.16385271992E+03 0.  0.
        -24    2    5    5    0    0  0.13783074388E+03  0.10255594490E+03  0.20071655149E+03  0.27611786587E+03  0.80242794168E+02 0.  0.
          5    1    3    3  501    0 -0.85308396070E+02 -0.58837786190E+02  0.29622883992E+03  0.31386784341E+03  0.47000000000E+01 0. -1.
        -13    1    4    4    0    0 -0.26700473616E+02  0.12252516629E+02  0.82696274129E+02  0.87759405250E+02  0.00000000000E+00 0.  1.
         14    1    4    4    0    0 -0.14592836983E+03 -0.29734102795E+02  0.12042314781E+03  0.19152268931E+03  0.00000000000E+00 0. -1.
         -5    1    5    5    0  502  0.12010649563E+03 -0.26236572546E+02  0.89166015788E+02  0.15194274054E+03  0.47000000000E+01 0.  1.
         13    1    6    6    0    0  0.41136204533E+02  0.28721552766E+02  0.12002664630E+02  0.51586615269E+02  0.00000000000E+00 0. -1.
        -14    1    6    6    0    0  0.96694539348E+02  0.73834392135E+02  0.18871388686E+03  0.22453125060E+03  0.00000000000E+00 0.  1.
</event>
<event>
12    1  0.1046899E+000  0.1793807E+03  0.7818608E-02  0.1168445E+00
         21   -1    0    0  503  502  0.00000000000E+00  0.00000000000E+00  0.85687108969E+03  0.85687108969E+03  0.00000000000E+00 0. -1.
         21   -1    0    0  501  503 -0.00000000000E+00 -0.00000000000E+00 -0.43197485592E+02  0.43197485592E+02  0.00000000000E+00 0. -1.
          6    2    1    2  501    0 -0.52236068224E+02 -0.84341475939E+01  0.24380286965E+03  0.30268343371E+03  0.17139918355E+03 0.  0.
         24    2    3    3    0    0  0.25427692459E+02  0.11078548078E+01  0.60680952241E+02  0.10348896549E+03  0.79874859165E+02 0.  0.
         -6    2    1    2    0  502  0.52236068224E+02  0.84341475939E+01  0.56987073445E+03  0.59738514158E+03  0.17122094418E+03 0.  0.
        -24    2    5    5    0    0 -0.24049207592E+02 -0.28165451497E+02  0.22934990736E+03  0.24647846218E+03  0.82332224991E+02 0.  0.
          5    1    3    3  501    0 -0.77663760683E+02 -0.95420024017E+01  0.18312191741E+03  0.19919446822E+03  0.47000000000E+01 0. -1.
        -11    1    4    4    0    0  0.32326820815E+02  0.26537509822E+02  0.64491208965E+02  0.76865979506E+02  0.00000000000E+00 0.  1.
         12    1    4    4    0    0 -0.68991283563E+01 -0.25429655015E+02 -0.38102567243E+01  0.26622985981E+02  0.00000000000E+00 0. -1.
         -5    1    5    5    0  502  0.76285275816E+02  0.36599599091E+02  0.34052082709E+03  0.35090667939E+03  0.47000000000E+01 0.  1.
         11    1    6    6    0    0 -0.53245968565E+01  0.23139227597E+02  0.13815350612E+03  0.14017905135E+03  0.00000000000E+00 0. -1.
        -12    1    6    6    0    0 -0.18724610735E+02 -0.51304679094E+02  0.91196401240E+02  0.10629941083E+03  0.00000000000E+00 0.  1.
</event>
<event>
12    1  0.1046899E+000  0.2115979E+03  0.7818608E-02  0.1140989E+00
         21   -1    0    0  503  502  0.00000000000E+00  0.00000000000E+00  0.27070807646E+04  0.27070807646E+04  0.00000000000E+00 0. -1.
         21   -1    0    0  501  503 -0.00000000000E+00 -0.00000000000E+00 -0.25641471376E+02  0.25641471376E+02  0.00000000000E+00 0. -1.
          6    2    1    2  501    0  0.29687928477E+02 -0.11302192064E+03  0.50775794671E+03  0.54876612943E+03  0.17225215446E+03 0.  0.
         24    2    3    3    0    0  0.37554008674E+02 -0.13585366740E+03  0.49553299992E+03  0.52129426743E+03  0.79550215138E+02 0.  0.
         -6    2    1    2    0  502 -0.29687928477E+02  0.11302192064E+03  0.21736813465E+04  0.21839561066E+04  0.17640394416E+03 0.  0.
        -24    2    5    5    0    0 -0.67196948732E+02  0.89857272791E+02  0.98519865687E+03  0.99464676029E+03  0.78205018205E+02 0.  0.
          5    1    3    3  501    0 -0.78660801971E+01  0.22831746760E+02  0.12224946793E+02  0.27471862002E+02  0.47000000000E+01 0. -1.
        -11    1    4    4    0    0  0.89753420829E+01 -0.16282092956E+02  0.20472520563E+03  0.20556768505E+03  0.00000000000E+00 0.  1.
         12    1    4    4    0    0  0.28578666591E+02 -0.11957157445E+03  0.29080779429E+03  0.31572658237E+03  0.00000000000E+00 0. -1.
         -5    1    5    5    0  502  0.37509020255E+02  0.23164647850E+02  0.11884826897E+04  0.11893093463E+04  0.47000000000E+01 0.  1.
         11    1    6    6    0    0 -0.86649444456E+01 -0.14951796272E+01  0.95399135787E+01  0.12974080910E+02  0.00000000000E+00 0. -1.
        -12    1    6    6    0    0 -0.58532004286E+02  0.91352452419E+02  0.97565874329E+03  0.98167267939E+03  0.00000000000E+00 0.  1.
</event>
<event>
12    1  0.1046899E+000  0.2252913E+03  0.7818608E-02  0.1130268E+00
         21   -1    0    0  501  502  0.00000000000E+00  0.00000000000E+00  0.25411802754E+03  0.25411802754E+03  0.00000000000E+00 0.  1.
         21   -1    0    0  502  503 -0.00000000000E+00 -0.00000000000E+00 -0.29608090366E+03  0.29608090366E+03  0.00000000000E+00 0.  1.
         -6    2    1    2    0  503 -0.14270111879E+03 -0.33552604439E+02 -0.17902393033E+03  0.28775989807E+03  0.17107543581E+03 0.  0.
        -24    2    3    3    0    0 -0.25589250346E+02 -0.66990131211E+02 -0.75210312035E+02  0.12765800779E+03  0.74145050433E+02 0.  0.
          6    2    1    2  501    0  0.14270111879E+03  0.33552604439E+02  0.13706105421E+03  0.26243903313E+03  0.16911276405E+03 0.  0.
         24    2    5    5    0    0  0.84478807589E+02 -0.48631930779E+02  0.76802036587E+02  0.14497680706E+03  0.74953239673E+02 0.  0.
          5    1    5    5  501    0  0.58222311198E+02  0.82184535218E+02  0.60259017620E+02  0.11746222608E+03  0.47000000000E+01 0. -1.
        -11    1    6    6    0    0  0.29132877805E+02  0.12216075030E+01  0.62723110802E+02  0.69169397299E+02  0.00000000000E+00 0.  1.
         12    1    6    6    0    0  0.55345929784E+02 -0.49853538282E+02  0.14078925785E+02  0.75807409758E+02  0.00000000000E+00 0. -1.
         -5    1    3    3    0  503 -0.11711186844E+03  0.33437526772E+02 -0.10381361830E+03  0.16010189028E+03  0.47000000000E+01 0.  1.
         11    1    4    4    0    0 -0.32113452422E+02 -0.24856164662E+02 -0.74693309025E+02  0.85018781227E+02  0.00000000000E+00 0. -1.
        -12    1    4    4    0    0  0.65242020757E+01 -0.42133966549E+02 -0.51700301021E+00  0.42639226564E+02  0.00000000000E+00 0.  1.
</event>
<event>
12    1  0.1046899E+000  0.1887208E+03  0.7818608E-02  0.1160208E+00
         21   -1    0    0  503  502  0.00000000000E+00  0.00000000000E+00  0.62187393112E+03  0.62187393112E+03  0.00000000000E+00 0. -1.
         21   -1    0    0  501  503 -0.00000000000E+00 -0.00000000000E+00 -0.58381161367E+02  0.58381161367E+02  0.00000000000E+00 0. -1.
          6    2    1    2  501    0  0.99005065469E+01 -0.78046820396E+02  0.34099791147E+03  0.38850264450E+03  0.16871693144E+03 0.  0.
         24    2    3    3    0    0 -0.18073194025E+02 -0.11410349321E+03  0.25143510586E+03  0.28787363414E+03  0.79406355341E+02 0.  0.
         -6    2    1    2    0  502 -0.99005065469E+01  0.78046820396E+02  0.22249485828E+03  0.29175244798E+03  0.17154067371E+03 0.  0.
        -24    2    5    5    0    0  0.47798983444E+02  0.16414258288E+02  0.16311492254E+03  0.18842834321E+03  0.79652946453E+02 0.  0.
          5    1    3    3  501    0  0.27973700572E+02  0.36056672814E+02  0.89562805608E+02  0.10062901036E+03  0.47000000000E+01 0. -1.
        -11    1    4    4    0    0  0.15315267395E+02 -0.35335929245E+02  0.15151163649E+03  0.15632965587E+03  0.00000000000E+00 0.  1.
         12    1    4    4    0    0 -0.33388461420E+02 -0.78767563965E+02  0.99923469365E+02  0.13154397827E+03  0.00000000000E+00 0. -1.
         -5    1    5    5    0  502 -0.57699489991E+02  0.61632562108E+02  0.59379935747E+02  0.10332410477E+03  0.47000000000E+01 0.  1.
         13    1    6    6    0    0  0.96233469819E+01 -0.75178944624E+01 -0.58631280925E+01  0.13546358009E+02  0.00000000000E+00 0. -1.
        -14    1    6    6    0    0  0.38175636462E+02  0.23932152750E+02  0.16897805063E+03  0.17488198521E+03  0.00000000000E+00 0.  1.
</event>
<event>
12    1  0.1046899E+000  0.1984745E+03  0.7818608E-02  0.1151098E+00
         21   -1    0    0  503  502  0.00000000000E+00  0.00000000000E+00  0.51344992663E+03  0.51344992663E+03  0.00000000000E+00 0. -1.
         21   -1    0    0  501  503 -0.00000000000E+00 -0.00000000000E+00 -0.91067396034E+02  0.91067396034E+02  0.00000000000E+00 0. -1.
          6    2    1    2  501    0 -0.56572058989E+02 -0.82105554388E+02  0.33152244128E+03  0.38623379976E+03  0.17125331845E+03 0.  0.
         24    2    3    3    0    0 -0.42465050442E+00 -0.10085634122E+03  0.27500599361E+03  0.30425622756E+03  0.82288356356E+02 0.  0.
         -6    2    1    2    0  502  0.56572058989E+02  0.82105554388E+02  0.90860089308E+02  0.21828352290E+03  0.17161124853E+03 0.  0.
        -24    2    5    5    0    0  0.30590265082E+02  0.81786134603E+02  0.12716305945E+03  0.17339308645E+03  0.79183221772E+02 0.  0.
          5    1    3    3  501    0 -0.56147408484E+02  0.18750786835E+02  0.56516447672E+02  0.81977572201E+02  0.47000000000E+01 0. -1.
        -13    1    4    4    0    0 -0.38150771915E+02 -0.25643642636E+02  0.10142814719E+03  0.11135864066E+03  0.00000000000E+00 0.  1.
         14    1    4    4    0    0  0.37726121410E+02 -0.75212698587E+02  0.17357784642E+03  0.19289758690E+03  0.00000000000E+00 0. -1.
         -5    1    5    5    0  502  0.25981793907E+02  0.31941978509E+00 -0.36302970141E+02  0.44890436450E+02  0.47000000000E+01 0.  1.
         13    1    6    6    0    0 -0.39238303736E+01 -0.10921277431E+02  0.39658064079E+02  0.41321093791E+02  0.00000000000E+00 0. -1.
        -14    1    6    6    0    0  0.34514095456E+02  0.92707412034E+02  0.87504995369E+02  0.13207199266E+03  0.00000000000E+00 0.  1.
</event>
<event>
12    1  0.1046899E+000  0.2020727E+03  0.7818608E-02  0.1149398E+00
         21   -1    0    0  501  502  0.00000000000E+00  0.00000000000E+00  0.28780056032E+03  0.28780056032E+03  0.00000000000E+00 0. -1.
         21   -1    0    0  502  503 -0.00000000000E+00 -0.00000000000E+00 -0.14523548491E+03  0.14523548491E+03  0.00000000000E+00 0. -1.
         -6    2    1    2    0  503 -0.22619449163E+02  0.10303919475E+03  0.12079289784E+03  0.22979377767E+03  0.16457685424E+03 0.  0.
        -24    2    3    3    0    0  0.33624262132E+01 -0.83644739151E+01  0.42203986328E+02  0.90926422782E+02  0.80032290758E+02 0.  0.
          6    2    1    2  501    0  0.22619449163E+02 -0.10303919475E+03  0.21772177577E+02  0.20324226756E+03  0.17235044668E+03 0.  0.
         24    2    5    5    0    0  0.83657114052E+02 -0.64144465495E+02  0.18815496503E+02  0.13065281611E+03  0.74853926172E+02 0.  0.
          5    1    5    5  501    0 -0.61037664890E+02 -0.38894729257E+02  0.29566810736E+01  0.72589451452E+02  0.47000000000E+01 0. -1.
        -11    1    6    6    0    0  0.45921812211E+02  0.22769410119E+01  0.27807688990E+02  0.53733275204E+02  0.00000000000E+00 0.  1.
         12    1    6    6    0    0  0.37735301841E+02 -0.66421406507E+02 -0.89921924873E+01  0.76919540905E+02  0.00000000000E+00 0. -1.
         -5    1    3    3    0  503 -0.25981875376E+02  0.11140366867E+03  0.78588911514E+02  0.13886735489E+03  0.47000000000E+01 0.  1.
         11    1    4    4    0    0 -0.21315568556E+02 -0.42287915860E+01  0.57589144927E+02  0.61552788358E+02  0.00000000000E+00 0. -1.
        -12    1    4    4    0    0  0.24677994769E+02 -0.41356823291E+01 -0.15385158599E+02  0.29373634424E+02  0.00000000000E+00 0.  1.
</event>
<event>
12    1  0.1046899E+000  0.1786108E+03  0.7818608E-02  0.1169281E+00
         21   -1    0    0  503  502  0.00000000000E+00  0.00000000000E+00  0.25101011664E+04  0.25101011664E+04  0.00000000000E+00 0. -1.
         21   -1    0    0  501  503 -0.00000000000E+00 -0.00000000000E+00 -0.14665307304E+02  0.14665307304E+02  0.00000000000E+00 0. -1.
          6    2    1    2  501    0  0.10577344299E+01 -0.47572702967E+02  0.17114879924E+04  0.17207291215E+04  0.17161958125E+03 0.  0.
         24    2    3    3    0    0 -0.11448848426E+02 -0.80190408114E+02  0.15942558981E+04  0.15983126879E+04  0.79937486645E+02 0.  0.
         -6    2    1    2    0  502 -0.10577344299E+01  0.47572702967E+02  0.78394786672E+03  0.80403735221E+03  0.17215552600E+03 0.  0.
        -24    2    5    5    0    0 -0.38403622580E+02  0.48275860606E+02  0.23214154052E+03  0.25094828033E+03  0.72663248072E+02 0.  0.
          5    1    3    3  501    0  0.12506582856E+02  0.32617705146E+02  0.11723209421E+03  0.12241643360E+03  0.47000000000E+01 0. -1.
        -13    1    4    4    0    0  0.78666705116E+01  0.11896030119E+02  0.43896460351E+03  0.43919622400E+03  0.00000000000E+00 0.  1.
         14    1    4    4    0    0 -0.19315518938E+02 -0.92086438233E+02  0.11552912946E+04  0.11591164639E+04  0.00000000000E+00 0. -1.
         -5    1    5    5    0  502  0.37345888150E+02 -0.70315763925E+00  0.55180632620E+03  0.55308907187E+03  0.47000000000E+01 0.  1.
         11    1    6    6    0    0  0.15088741775E+02 -0.65431216873E+01  0.65727740214E+02  0.67754102484E+02  0.00000000000E+00 0. -1.
        -12    1    6    6    0    0 -0.53492364355E+02  0.54818982294E+02  0.16641380031E+03  0.18319417785E+03  0.00000000000E+00 0.  1.
</event>
<event>
12    1  0.1046899E+000  0.3303209E+03  0.7818608E-02  0.1071083E+00
         21   -1    0    0  503  502  0.00000000000E+00  0.00000000000E+00  0.10077328428E+03  0.10077328428E+03  0.00000000000E+00 0.  1.
         21   -1    0    0  501  503 -0.00000000000E+00 -0.00000000000E+00 -0.10855410068E+04  0.10855410068E+04  0.00000000000E+00 0.  1.
          6    2    1    2  501    0 -0.64403007603E+02  0.27453768530E+03 -0.45108054554E+03  0.55909350505E+03  0.17202674440E+03 0.  0.
         24    2    3    3    0    0 -0.77495008655E+01  0.25664430139E+03 -0.34764543333E+03  0.43971718642E+03  0.81040141358E+02 0.  0.
         -6    2    1    2    0  502  0.64403007603E+02 -0.27453768530E+03 -0.53368717696E+03  0.62722078600E+03  0.17048525892E+03 0.  0.
        -24    2    5    5    0    0 -0.58978990466E+01 -0.22396723606E+03 -0.34207649778E+03  0.41689644079E+03  0.81180071277E+02 0.  0.
          5    1    3    3  501    0 -0.56653506738E+02  0.17893383905E+02 -0.10343511221E+03  0.11937631864E+03  0.47000000000E+01 0. -1.
        -11    1    4    4    0    0 -0.25722194340E+02  0.15523936556E+03 -0.26268549927E+03  0.30620999891E+03  0.00000000000E+00 0.  1.
         12    1    4    4    0    0  0.17972693475E+02  0.10140493583E+03 -0.84959934061E+02  0.13350718751E+03  0.00000000000E+00 0. -1.
         -5    1    5    5    0  502  0.70300906650E+02 -0.50570449233E+02 -0.19161067918E+03  0.21032434521E+03  0.47000000000E+01 0.  1.
         11    1    6    6    0    0  0.36771644353E+02 -0.83994454988E+02 -0.12210582419E+03  0.15269922920E+03  0.00000000000E+00 0. -1.
        -12    1    6    6    0    0 -0.42669543400E+02 -0.13997278108E+03 -0.21997067358E+03  0.26419721159E+03  0.00000000000E+00 0.  1.
</event>
<event>
12    1  0.1073930E+000  0.4882071E+03  0.7818608E-02  0.1016923E+00
         21   -1    0    0  503  502  0.00000000000E+00  0.00000000000E+00  0.94770736159E+03  0.94770736159E+03  0.00000000000E+00 0.  1.
         21   -1    0    0  501  503 -0.00000000000E+00 -0.00000000000E+00 -0.45170656970E+03  0.45170656970E+03  0.00000000000E+00 0. -1.
          6    2    1    2  501    0 -0.15365063927E+03  0.43031316809E+03  0.71396402865E+03  0.86476061875E+03  0.17113839997E+03 0.  0.
         24    2    3    3    0    0 -0.16578578079E+03  0.32161415941E+03  0.47894485451E+03  0.60549465807E+03  0.79467066464E+02 0.  0.
         -6    2    1    2    0  502  0.15365063927E+03 -0.43031316809E+03 -0.21796323676E+03  0.53465331254E+03  0.17195421032E+03 0.  0.
        -24    2    5    5    0    0  0.49483435004E+02 -0.15915311555E+03 -0.14359261077E+03  0.23476723326E+03  0.81966404159E+02 0.  0.
          5    1    3    3  501    0  0.12135141520E+02  0.10869900869E+03  0.23501917414E+03  0.25926596067E+03  0.47000000000E+01 0. -1.
        -13    1    4    4    0    0 -0.56945243047E+02  0.18097560453E+03  0.20934523373E+03  0.28252496708E+03  0.00000000000E+00 0.  1.
         14    1    4    4    0    0 -0.10884053774E+03  0.14063855488E+03  0.26959962078E+03  0.32296969099E+03  0.00000000000E+00 0. -1.
         -5    1    5    5    0  502  0.10416720427E+03 -0.27116005254E+03 -0.74370625984E+02  0.29988607928E+03  0.47000000000E+01 0.  1.
         11    1    6    6    0    0 -0.76950862858E+01 -0.93089983090E+02 -0.47150007447E+02  0.10463308514E+03  0.00000000000E+00 0. -1.
        -12    1    6    6    0    0  0.57178521290E+02 -0.66063132465E+02 -0.96442603327E+02  0.13013414811E+03  0.00000000000E+00 0.  1.
</event>
<event>
12    1  0.1046899E+000  0.4264186E+03  0.7818608E-02  0.1035059E+00
         21   -1    0    0  501  502  0.00000000000E+00  0.00000000000E+00  0.17928893936E+04  0.17928893936E+04  0.00000000000E+00 0.  1.
         21   -1    0    0  502  503 -0.00000000000E+00 -0.00000000000E+00 -0.18794428156E+03  0.18794428156E+03  0.00000000000E+00 0.  1.
         -6    2    1    2    0  503 -0.40557905378E+02  0.38773854624E+03  0.14755885870E+04  0.15359669582E+04  0.17276195896E+03 0.  0.
        -24    2    3    3    0    0  0.40797543735E+02  0.17406351266E+03  0.59950348803E+03  0.63052622583E+03  0.78716855155E+02 0.  0.
          6    2    1    2  501    0  0.40557905378E+02 -0.38773854624E+03  0.12935652502E+03  0.44486671700E+03  0.17084250468E+03 0.  0.
         24    2    5    5    0    0  0.11742865321E+02 -0.11116510676E+03  0.91871314182E+02  0.16424169141E+03  0.77713698794E+02 0.  0.
          5    1    5    5  501    0  0.28815040057E+02 -0.27657343948E+03  0.37485210843E+02  0.28062502560E+03  0.47000000000E+01 0. -1.
        -13    1    6    6    0    0  0.20928757057E+00 -0.54042099828E+01 -0.13475828618E+02  0.14520580008E+02  0.00000000000E+00 0.  1.
         14    1    6    6    0    0  0.11533577751E+02 -0.10576089677E+03  0.10534714280E+03  0.14972111140E+03  0.00000000000E+00 0. -1.
         -5    1    3    3    0  503 -0.81355449113E+02  0.21367503357E+03  0.87608509900E+03  0.90544073233E+03  0.47000000000E+01 0.  1.
         11    1    4    4    0    0  0.21959641518E+02  0.16493468574E+03  0.57346693878E+03  0.59711808405E+03  0.00000000000E+00 0. -1.
        -12    1    4    4    0    0  0.18837902217E+02  0.91288269254E+01  0.26036549243E+02  0.33408141784E+02  0.00000000000E+00 0.  1.
</event>
<event>
12    1  0.1046899E+000  0.1767947E+03  0.7818608E-02  0.1171074E+00
         21   -1    0    0  501  502  0.00000000000E+00  0.00000000000E+00  0.31995098597E+03  0.31995098597E+03  0.00000000000E+00 0.  1.
         21   -1    0    0  502  503 -0.00000000000E+00 -0.00000000000E+00 -0.99766212282E+02  0.99766212282E+02  0.00000000000E+00 0.  1.
         -6    2    1    2    0  503 -0.69025493240E+01  0.43319948720E+02  0.14259093227E+03  0.22713113895E+03  0.17126621725E+03 0.  0.
        -24    2    3    3    0    0  0.18580006812E+02  0.24777077598E+02  0.16684470565E+03  0.18708698507E+03  0.78773497764E+02 0.  0.
          6    2    1    2  501    0  0.69025493240E+01 -0.43319948720E+02  0.77593841418E+02  0.19258605931E+03  0.17071708429E+03 0.  0.
         24    2    5    5    0    0  0.55309399477E+02  0.15911971712E+02  0.54949078705E+02  0.11267036111E+03  0.79767715949E+02 0.  0.
          5    1    5    5  501    0 -0.48406850153E+02 -0.59231920432E+02  0.22644762713E+02  0.79915698196E+02  0.47000000000E+01 0. -1.
        -13    1    6    6    0    0  0.46927248267E+02 -0.27234316962E+02  0.33463752742E+02  0.63747136390E+02  0.00000000000E+00 0.  1.
         14    1    6    6    0    0  0.83821512107E+01  0.43146288674E+02  0.21485325962E+02  0.48923224720E+02  0.00000000000E+00 0. -1.
         -5    1    3    3    0  503 -0.25482556136E+02  0.18542871122E+02 -0.24253773383E+02  0.40044153880E+02  0.47000000000E+01 0.  1.
         11    1    4    4    0    0  0.14936183132E+02  0.46839188502E+02  0.15319210625E+03  0.16088760227E+03  0.00000000000E+00 0. -1.
        -12    1    4    4    0    0  0.36438236792E+01 -0.22062110905E+02  0.13652599400E+02  0.26199382797E+02  0.00000000000E+00 0.  1.
</event>
<event>
12    1  0.1046899E+000  0.3592042E+03  0.7818608E-02  0.1059004E+00
         21   -1    0    0  501  502  0.00000000000E+00  0.00000000000E+00  0.58557819252E+03  0.58557819252E+03  0.00000000000E+00 0.  1.
         21   -1    0    0  502  503 -0.00000000000E+00 -0.00000000000E+00 -0.30105386291E+03  0.30105386291E+03  0.00000000000E+00 0.  1.
         -6    2    1    2    0  503  0.48755315581E+02  0.31185298028E+03  0.37256824699E+03  0.51679509389E+03  0.16923565908E+03 0.  0.
        -24    2    3    3    0    0  0.14613572666E+02  0.25016758900E+03  0.36058363601E+03  0.44512594428E+03  0.72932630702E+02 0.  0.
          6    2    1    2  501    0 -0.48755315581E+02 -0.31185298028E+03 -0.88043917370E+02  0.36983696154E+03  0.17145927979E+03 0.  0.
         24    2    5    5    0    0 -0.62451066446E+02 -0.17908063043E+03  0.49978009859E+01  0.20706435379E+03  0.82949748057E+02 0.  0.
          5    1    5    5  501    0  0.13695750865E+02 -0.13277234985E+03 -0.93041718356E+02  0.16277260774E+03  0.47000000000E+01 0. -1.
        -11    1    6    6    0    0 -0.62852616490E+02 -0.14951242721E+03 -0.25962273245E+02  0.16425120067E+03  0.00000000000E+00 0.  1.
         12    1    6    6    0    0  0.40155004386E+00 -0.29568203220E+02  0.30960074231E+02  0.42813153125E+02  0.00000000000E+00 0. -1.
         -5    1    3    3    0  503  0.34141742915E+02  0.61685391279E+02  0.11984610982E+02  0.71669149618E+02  0.47000000000E+01 0.  1.
         11    1    4    4    0    0  0.59553466702E+01  0.90607678299E+02  0.74559765590E+02  0.11749202597E+03  0.00000000000E+00 0. -1.
        -12    1    4    4    0    0  0.86582259959E+01  0.15955991070E+03  0.28602387042E+03  0.32763391831E+03  0.00000000000E+00 0.  1.
</event>
<event>
12    1  0.1046899E+000  0.5536295E+03  0.7818608E-02  0.1000757E+00
         21   -1    0    0  503  502  0.00000000000E+00  0.00000000000E+00  0.22406305555E+04  0.22406305555E+04  0.00000000000E+00 0. -1.
         21   -1    0    0  501  503 -0.00000000000E+00 -0.00000000000E+00 -0.13639333376E+03  0.13639333376E+03  0.00000000000E+00 0. -1.
          6    2    1    2  501    0  0.27814541716E+03  0.44457567816E+03  0.10700814530E+04  0.12048153330E+04  0.17746341546E+03 0.  0.
         24    2    3    3    0    0  0.88782419402E+02  0.10452331379E+03  0.39695381594E+03  0.42724420362E+03  0.78471882978E+02 0.  0.
         -6    2    1    2    0  502 -0.27814541716E+03 -0.44457567816E+03  0.10341557687E+04  0.11722085563E+04  0.17199517050E+03 0.  0.
        -24    2    5    5    0    0 -0.12204987201E+03 -0.13452714533E+03  0.29750441436E+03  0.35785407582E+03  0.80974927767E+02 0.  0.
          5    1    3    3  501    0  0.18936299776E+03  0.34005236437E+03  0.67312763703E+03  0.77757112933E+03  0.47000000000E+01 0. -1.
        -11    1    4    4    0    0 -0.78682952664E+01  0.27986433089E+02  0.12979912621E+03  0.13301490019E+03  0.00000000000E+00 0.  1.
         12    1    4    4    0    0  0.96650714668E+02  0.76536880697E+02  0.26715468973E+03  0.29422930343E+03  0.00000000000E+00 0. -1.
         -5    1    5    5    0  502 -0.15609554515E+03 -0.31004853283E+03  0.73665135437E+03  0.81435448044E+03  0.47000000000E+01 0.  1.
         13    1    6    6    0    0 -0.86485925660E+02 -0.13274540524E+03  0.20755952676E+03  0.26111705249E+03  0.00000000000E+00 0. -1.
        -14    1    6    6    0    0 -0.35563946345E+02 -0.17817400899E+01  0.89944887598E+02  0.96737023329E+02  0.00000000000E+00 0.  1.
</event>
<event>
12    1  0.1046899E+000  0.2485804E+03  0.7818608E-02  0.1114299E+00
         21   -1    0    0  501  502  0.00000000000E+00  0.00000000000E+00  0.53670667888E+03  0.53670667888E+03  0.00000000000E+00 0.  1.
         21   -1    0    0  502  503 -0.00000000000E+00 -0.00000000000E+00 -0.11506067899E+03  0.11506067899E+03  0.00000000000E+00 0.  1.
         -6    2    1    2    0  503 -0.17917747801E+03  0.55813444226E+01  0.22423091402E+03  0.33433246855E+03  0.17135628583E+03 0.  0.
        -24    2    3    3    0    0 -0.15574621130E+03  0.60939059766E+02  0.18157813615E+03  0.26047550972E+03  0.83104875281E+02 0.  0.
          6    2    1    2  501    0  0.17917747801E+03 -0.55813444226E+01  0.19741508587E+03  0.31743488932E+03  0.17221054787E+03 0.  0.
         24    2    5    5    0    0  0.72783836762E+02  0.44927418193E+02  0.15031371022E+03  0.19050431150E+03  0.79885677187E+02 0.  0.
          5    1    5    5  501    0  0.10639364124E+03 -0.50508762615E+02  0.47101375642E+02  0.12693057782E+03  0.47000000000E+01 0. -1.
        -11    1    6    6    0    0  0.49883991602E+02  0.66123957574E+02  0.88217609814E+02  0.12100883052E+03  0.00000000000E+00 0.  1.
         12    1    6    6    0    0  0.22899845161E+02 -0.21196539381E+02  0.62096100409E+02  0.69495480976E+02  0.00000000000E+00 0. -1.
         -5    1    3    3    0  503 -0.23431266703E+02 -0.55357715343E+02  0.42652777868E+02  0.73856958827E+02  0.47000000000E+01 0.  1.
         13    1    4    4    0    0 -0.23158255973E+02 -0.92096304109E+01 -0.39278316273E-01  0.24922352514E+02  0.00000000000E+00 0. -1.
        -14    1    4    4    0    0 -0.13258795533E+03  0.70148690176E+02  0.18161741447E+03  0.23555315721E+03  0.00000000000E+00 0.  1.
</event>
<event>
12    1  0.1046899E+000  0.2477509E+03  0.7818608E-02  0.1114765E+00
         21   -1    0    0  501  502  0.00000000000E+00  0.00000000000E+00  0.89684385885E+02  0.89684385885E+02  0.00000000000E+00 0.  1.
         21   -1    0    0  502  503 -0.00000000000E+00 -0.00000000000E+00 -0.68388880279E+03  0.68388880279E+03  0.00000000000E+00 0.  1.
         -6    2    1    2    0  503 -0.63523690783E+02  0.16605884505E+03 -0.29595361296E+03  0.38584383401E+03  0.17226759390E+03 0.  0.
        -24    2    3    3    0    0  0.22421160501E+02  0.93353068500E+02 -0.95206876854E+02  0.15563959976E+03  0.77083278198E+02 0.  0.
          6    2    1    2  501    0  0.63523690783E+02 -0.16605884505E+03 -0.29825080394E+03  0.38772935467E+03  0.17253901329E+03 0.  0.
         24    2    5    5    0    0 -0.32363048919E+02 -0.97235485101E+02 -0.15216294505E+03  0.19986058600E+03  0.79300602084E+02 0.  0.
          5    1    5    5  501    0  0.95886739702E+02 -0.68823359949E+02 -0.14608785890E+03  0.18786876867E+03  0.47000000000E+01 0. -1.
        -13    1    6    6    0    0  0.13019125188E+02 -0.97439448177E+01 -0.69034627005E+02  0.70924056616E+02  0.00000000000E+00 0.  1.
         14    1    6    6    0    0 -0.45382174107E+02 -0.87491540283E+02 -0.83128318043E+02  0.12893652938E+03  0.00000000000E+00 0. -1.
         -5    1    3    3    0  503 -0.85944851284E+02  0.72705776550E+02 -0.20074673611E+03  0.23020423425E+03  0.47000000000E+01 0.  1.
         13    1    4    4    0    0  0.43366827092E+01 -0.13751014538E+02 -0.13063034760E+02  0.19456106879E+02  0.00000000000E+00 0. -1.
        -14    1    4    4    0    0  0.18084477792E+02  0.10710408304E+03 -0.82143842094E+02  0.13618349288E+03  0.00000000000E+00 0.  1.
</event>
<event>
12    1  0.1046899E+000  0.2189457E+03  0.7818608E-02  0.1134769E+00
         21   -1    0    0  501  502  0.00000000000E+00  0.00000000000E+00  0.17751157388E+03  0.17751157388E+03  0.00000000000E+00 0. -1.
         21   -1    0    0  502  503 -0.00000000000E+00 -0.00000000000E+00 -0.48825156656E+03  0.48825156656E+03  0.00000000000E+00 0. -1.
         -6    2    1    2    0  503  0.78993278324E+02 -0.10927660221E+03 -0.37812778802E+03  0.43668160780E+03  0.17183971806E+03 0.  0.
        -24    2    3    3    0    0 -0.23055974338E+02 -0.48798924215E+02 -0.14011110133E+03  0.17070109602E+03  0.81208561786E+02 0.  0.
          6    2    1    2  501    0 -0.78993278324E+02  0.10927660221E+03  0.67387795338E+02  0.22908153264E+03  0.17249904296E+03 0.  0.
         24    2    5    5    0    0 -0.64333425644E+02  0.99777934606E+02 -0.16051706056E+02  0.14370368797E+03  0.79364140389E+02 0.  0.
          5    1    5    5  501    0 -0.14659852680E+02  0.94986676051E+01  0.83439501394E+02  0.85377844666E+02  0.47000000000E+01 0. -1.
        -11    1    6    6    0    0 -0.32110196249E+02  0.76552611066E+02  0.24884757893E+02  0.86663822553E+02  0.00000000000E+00 0.  1.
         12    1    6    6    0    0 -0.32223229396E+02  0.23225323541E+02 -0.40936463949E+02  0.57039865418E+02  0.00000000000E+00 0. -1.
         -5    1    3    3    0  503  0.10204925266E+03 -0.60477677996E+02 -0.23801668669E+03  0.26598051178E+03  0.47000000000E+01 0.  1.
         11    1    4    4    0    0  0.16775016273E+01  0.20628734201E+02 -0.15241686271E+02  0.25703456710E+02  0.00000000000E+00 0. -1.
        -12    1    4    4    0    0 -0.24733475965E+02 -0.69427658417E+02 -0.12486941506E+03  0.14499763931E+03  0.00000000000E+00 0.  1.
</event>
<event>
12    1  0.1046899E+000  0.3672724E+03  0.7818608E-02  0.1055890E+00
         21   -1    0    0  501  502  0.00000000000E+00  0.00000000000E+00  0.18995800044E+03  0.18995800044E+03  0.00000000000E+00 0.  1.
         21   -1    0    0  502  503 -0.00000000000E+00 -0.00000000000E+00 -0.75293060207E+03  0.75293060207E+03  0.00000000000E+00 0. -1.
         -6    2    1    2    0  503 -0.27881886075E+03 -0.16614787133E+03 -0.16462965527E+03  0.40107116121E+03  0.16855290181E+03 0.  0.
        -24    2    3    3    0    0 -0.23597776057E+03 -0.17650818551E+03 -0.17941780999E+03  0.35434348746E+03  0.80795504394E+02 0.  0.
          6    2    1    2  501    0  0.27881886075E+03  0.16614787133E+03 -0.39834294636E+03  0.54181744130E+03  0.17188357841E+03 0.  0.
         24    2    5    5    0    0  0.29220392002E+03  0.16002561058E+03 -0.34740168721E+03  0.48858452129E+03  0.83878336023E+02 0.  0.
          5    1    5    5  501    0 -0.13385059275E+02  0.61222607481E+01 -0.50941259149E+02  0.53232920004E+02  0.47000000000E+01 0. -1.
        -11    1    6    6    0    0  0.39475417253E+02 -0.82178815651E+00 -0.18187283407E+02  0.43471383470E+02  0.00000000000E+00 0.  1.
         12    1    6    6    0    0  0.25272850277E+03  0.16084739874E+03 -0.32921440380E+03  0.44511313782E+03  0.00000000000E+00 0. -1.
         -5    1    3    3    0  503 -0.42841100175E+02  0.10360314180E+02  0.14788154719E+02  0.46727673751E+02  0.47000000000E+01 0.  1.
         11    1    4    4    0    0 -0.61660692564E+02 -0.65871858841E+01 -0.32501409613E+02  0.70012667798E+02  0.00000000000E+00 0. -1.
        -12    1    4    4    0    0 -0.17431706801E+03 -0.16992099962E+03 -0.14691640037E+03  0.28433081966E+03  0.00000000000E+00 0.  1.
</event>
<event>
12    1  0.1046899E+000  0.1915091E+03  0.7818608E-02  0.1159840E+00
         21   -1    0    0  501  502  0.00000000000E+00  0.00000000000E+00  0.10548125909E+04  0.10548125909E+04  0.00000000000E+00 0. -1.
         21   -1    0    0  502  503 -0.00000000000E+00 -0.00000000000E+00 -0.47327228111E+02  0.47327228111E+02  0.00000000000E+00 0. -1.
         -6    2    1    2    0  503  0.29211286599E+01  0.68148131775E+02  0.82154900457E+03  0.84357483126E+03  0.17894979232E+03 0.  0.
        -24    2    3    3    0    0  0.35620299879E+02 -0.94322549985E+01  0.60218282291E+03  0.60856086600E+03  0.79777203675E+02 0.  0.
          6    2    1    2  501    0 -0.29211286599E+01 -0.68148131775E+02  0.18593635827E+03  0.25856498780E+03  0.16622521689E+03 0.  0.
         24    2    5    5    0    0 -0.45818548845E+01  0.20169143692E+02  0.81041853529E+02  0.12135111721E+03  0.87923397756E+02 0.  0.
          5    1    5    5  501    0  0.16607262246E+01 -0.88317275467E+02  0.10489450474E+03  0.13721387059E+03  0.47000000000E+01 0. -1.
        -11    1    6    6    0    0 -0.20965442982E+02  0.17464531216E+02  0.95507270097E+02  0.99328738497E+02  0.00000000000E+00 0.  1.
         12    1    6    6    0    0  0.16383588098E+02  0.27046124763E+01 -0.14465416568E+02  0.22022378711E+02  0.00000000000E+00 0. -1.
         -5    1    3    3    0  503 -0.32699171219E+02  0.77580386773E+02  0.21936618166E+03  0.23501396526E+03  0.47000000000E+01 0.  1.
         13    1    4    4    0    0  0.51326111812E+02  0.69124683151E+01  0.23315955051E+03  0.23884205653E+03  0.00000000000E+00 0. -1.
        -14    1    4    4    0    0 -0.15705811933E+02 -0.16344723314E+02  0.36902327240E+03  0.36971880947E+03  0.00000000000E+00 0.  1.
</event>
<event>
12    1  0.1046899E+000  0.1938562E+03  0.7818608E-02  0.1156629E+00
         21   -1    0    0  503  502  0.00000000000E+00  0.00000000000E+00  0.40661286462E+02  0.40661286462E+02  0.00000000000E+00 0.  1.
         21   -1    0    0  501  503 -0.00000000000E+00 -0.00000000000E+00 -0.11260417806E+04  0.11260417806E+04  0.00000000000E+00 0.  1.
          6    2    1    2  501    0  0.71923618562E+02  0.13313646920E+02 -0.28397800833E+03  0.34383676156E+03  0.17952701547E+03 0.  0.
         24    2    3    3    0    0 -0.87674811806E+01 -0.45866783107E+02 -0.14600228388E+03  0.17332937928E+03  0.80905971992E+02 0.  0.
         -6    2    1    2    0  502 -0.71923618562E+02 -0.13313646920E+02 -0.80140248580E+03  0.82286630549E+03  0.17179275993E+03 0.  0.
        -24    2    5    5    0    0 -0.38311115209E+02 -0.70399399640E+02 -0.31205765219E+03  0.32903532253E+03  0.66786586739E+02 0.  0.
          5    1    3    3  501    0  0.80691099743E+02  0.59180430027E+02 -0.13797572444E+03  0.17050738228E+03  0.47000000000E+01 0. -1.
        -11    1    4    4    0    0  0.34690916001E+01 -0.71427123107E+01 -0.12909521362E+03  0.12933919404E+03  0.00000000000E+00 0.  1.
         12    1    4    4    0    0 -0.12236572781E+02 -0.38724070796E+02 -0.16907070262E+02  0.43990185239E+02  0.00000000000E+00 0. -1.
         -5    1    5    5    0  502 -0.33612503354E+02  0.57085752720E+02 -0.48934483362E+03  0.49383098296E+03  0.47000000000E+01 0.  1.
         13    1    6    6    0    0  0.73935020469E+01 -0.30519430292E+02 -0.19171808963E+03  0.19427281176E+03  0.00000000000E+00 0. -1.
        -14    1    6    6    0    0 -0.45704617255E+02 -0.39879969348E+02 -0.12033956256E+03  0.13476251078E+03  0.00000000000E+00 0.  1.
</event>
<event>
12    1  0.1046899E+000  0.2611185E+03  0.7818608E-02  0.1106504E+00
         21   -1    0    0  503  502  0.00000000000E+00  0.00000000000E+00  0.45279706498E+03  0.45279706498E+03  0.00000000000E+00 0. -1.
         21   -1    0    0  501  503 -0.00000000000E+00 -0.00000000000E+00 -0.17104517706E+03  0.17104517706E+03  0.00000000000E+00 0. -1.
          6    2    1    2  501    0  0.83197736847E+02  0.17766243931E+03  0.24902861573E+03  0.36068134181E+03  0.17201736284E+03 0.  0.
         24    2    3    3    0    0  0.83076816365E+02  0.97147495757E+02  0.23419429009E+03  0.27867635431E+03  0.80462112793E+02 0.  0.
         -6    2    1    2    0  502 -0.83197736847E+02 -0.17766243931E+03  0.32723272184E+02  0.26316090023E+03  0.17232829457E+03 0.  0.
        -24    2    5    5    0    0 -0.41756340606E+02 -0.16584459389E+03  0.74696542640E+02  0.20282106077E+03  0.79427878656E+02 0.  0.
          5    1    3    3  501    0  0.12092048193E+00  0.80514943555E+02  0.14834325647E+02  0.82004987500E+02  0.47000000000E+01 0. -1.
        -11    1    4    4    0    0  0.47565337238E+02  0.10409601880E+03  0.18636384303E+03  0.21870053596E+03  0.00000000000E+00 0.  1.
         12    1    4    4    0    0  0.35511479127E+02 -0.69485230466E+01  0.47830447054E+02  0.59975818358E+02  0.00000000000E+00 0. -1.
         -5    1    5    5    0  502 -0.41441396241E+02 -0.11817845422E+02 -0.41973270457E+02  0.60339839457E+02  0.47000000000E+01 0.  1.
         11    1    6    6    0    0 -0.57218846003E+02 -0.14509686784E+03  0.42777824722E+02  0.16173138125E+03  0.00000000000E+00 0. -1.
        -12    1    6    6    0    0  0.15462505398E+02 -0.20747726051E+02  0.31918717918E+02  0.41089679519E+02  0.00000000000E+00 0.  1.
</event>
<event>
12    1  0.1046899E+000  0.1747849E+03  0.7818608E-02  0.1172986E+00
         21   -1    0    0  503  502  0.00000000000E+00  0.00000000000E+00  0.23462907650E+03  0.23462907650E+03  0.00000000000E+00 0. -1.
         21   -1    0    0  501  503 -0.00000000000E+00 -0.00000000000E+00 -0.16591055362E+03  0.16591055362E+03  0.00000000000E+00 0. -1.
          6    2    1    2  501    0 -0.30284104679E+02  0.14794253579E+02  0.12740212082E+03  0.21616633212E+03  0.17134930936E+03 0.  0.
         24    2    3    3    0    0 -0.42368429700E+02 -0.43909012000E+02  0.11639740176E+03  0.15504924660E+03  0.82272890827E+02 0.  0.
         -6    2    1    2    0  502  0.30284104679E+02 -0.14794253579E+02 -0.58683597948E+02  0.18437329800E+03  0.17150437724E+03 0.  0.
        -24    2    5    5    0    0  0.69903045922E+02  0.34466794663E+02 -0.38146391917E+02  0.11773863577E+03  0.79579164190E+02 0.  0.
          5    1    3    3  501    0  0.12084325021E+02  0.58703265579E+02  0.11004719063E+02  0.61117085521E+02  0.47000000000E+01 0. -1.
        -11    1    4    4    0    0 -0.28166882121E+02  0.18962618861E+02  0.21020820240E+02  0.39935310767E+02  0.00000000000E+00 0.  1.
         12    1    4    4    0    0 -0.14201547580E+02 -0.62871630861E+02  0.95376581521E+02  0.11511393583E+03  0.00000000000E+00 0. -1.
         -5    1    5    5    0  502 -0.39618941243E+02 -0.49261048243E+02 -0.20537206031E+02  0.66634662232E+02  0.47000000000E+01 0.  1.
         11    1    6    6    0    0 -0.94941178618E+01  0.29042387704E+02 -0.18671491143E+02  0.35808143474E+02  0.00000000000E+00 0. -1.
        -12    1    6    6    0    0  0.79397163784E+02  0.54244069597E+01 -0.19474900774E+02  0.81930492296E+02  0.00000000000E+00 0.  1.
</event>
<event>
12    1  0.1046899E+000  0.2567493E+03  0.7818608E-02  0.1109623E+00
         21   -1    0    0  501  502  0.00000000000E+00  0.00000000000E+00  0.30107936168E+03  0.30107936168E+03  0.00000000000E+00 0.  1.
         21   -1    0    0  502  503 -0.00000000000E+00 -0.00000000000E+00 -0.37993846837E+03  0.37993846837E+03  0.00000000000E+00 0.  1.
         -6    2    1    2    0  503 -0.18578997915E+03 -0.10860621378E+02  0.18400966181E+03  0.31587931506E+03  0.17687373064E+03 0.  0.
        -24    2    3    3    0    0 -0.13703221947E+03 -0.35306810550E+02  0.20128378795E+03  0.25847355987E+03  0.79177129375E+02 0.  0.
          6    2    1    2  501    0  0.18578997915E+03  0.10860621378E+02 -0.26286876851E+03  0.36513851499E+03  0.17201824387E+03 0.  0.
         24    2    5    5    0    0  0.16761739058E+03 -0.33943160509E+02 -0.14591742358E+03  0.23849993901E+03  0.79640433409E+02 0.  0.
          5    1    5    5  501    0  0.18172588577E+02  0.44803781887E+02 -0.11695134492E+03  0.12663857598E+03  0.47000000000E+01 0. -1.
        -13    1    6    6    0    0  0.11819976545E+03  0.13141522515E+02 -0.78097494852E+02  0.14227825860E+03  0.00000000000E+00 0.  1.
         14    1    6    6    0    0  0.49417625121E+02 -0.47084683024E+02 -0.67819928731E+02  0.96221680411E+02  0.00000000000E+00 0. -1.
         -5    1    3    3    0  503 -0.48757759683E+02  0.24446189172E+02 -0.17274126144E+02  0.57405755185E+02  0.47000000000E+01 0.  1.
         13    1    4    4    0    0 -0.43450234888E+02  0.17358720345E+02  0.27742932019E+02  0.54395940665E+02  0.00000000000E+00 0. -1.
        -14    1    4    4    0    0 -0.93581984582E+02 -0.52665530894E+02  0.17354085594E+03  0.20407761921E+03  0.00000000000E+00 0.  1.
</event>
<event>
12    1  0.1046899E+000  0.2958851E+03  0.7818608E-02  0.1087431E+00
         21   -1    0    0  501  502  0.00000000000E+00  0.00000000000E+00  0.47410923341E+03  0.47410923341E+03  0.00000000000E+00 0. -1.
         21   -1    0    0  502  503 -0.00000000000E+00 -0.00000000000E+00 -0.20389460905E+03  0.20389460905E+03  0.00000000000E+00 0.  1.
         -6    2    1    2    0  503  0.19249990047E+03 -0.14457995300E+03  0.29649344727E+02  0.29736687494E+03  0.17201279074E+03 0.  0.
        -24    2    3    3    0    0  0.59286794827E+02 -0.12205504852E+03  0.39362877830E+02  0.16183257831E+03  0.78917604764E+02 0.  0.
          6    2    1    2  501    0 -0.19249990047E+03  0.14457995300E+03  0.24056527963E+03  0.38063696752E+03  0.17045020617E+03 0.  0.
         24    2    5    5    0    0 -0.90926389428E+02  0.60733239981E+02  0.41661825435E+02  0.14203243378E+03  0.80506955059E+02 0.  0.
          5    1    5    5  501    0 -0.10157351104E+03  0.83846713024E+02  0.19890345420E+03  0.23860453374E+03  0.47000000000E+01 0. -1.
        -13    1    6    6    0    0 -0.34356586073E+02  0.61753649752E+02 -0.17953179658E+01  0.70690249899E+02  0.00000000000E+00 0.  1.
         14    1    6    6    0    0 -0.56569803355E+02 -0.10204097708E+01  0.43457143401E+02  0.71342183877E+02  0.00000000000E+00 0. -1.
         -5    1    3    3    0  503  0.13321310564E+03 -0.22524904480E+02 -0.97135331024E+01  0.13553429663E+03  0.47000000000E+01 0.  1.
         11    1    4    4    0    0 -0.11706633386E+02 -0.52481852045E+02 -0.28336670591E+01  0.53846260115E+02  0.00000000000E+00 0. -1.
        -12    1    4    4    0    0  0.70993428213E+02 -0.69573196479E+02  0.42196544889E+02  0.10798631820E+03  0.00000000000E+00 0.  1.
</event>
<event>
12    1  0.1046899E+000  0.2069490E+03  0.7818608E-02  0.1146066E+00
         21   -1    0    0  501  502  0.00000000000E+00  0.00000000000E+00  0.67850359043E+03  0.67850359043E+03  0.00000000000E+00 0. -1.
         21   -1    0    0  502  503 -0.00000000000E+00 -0.00000000000E+00 -0.60228412764E+02  0.60228412764E+02  0.00000000000E+00 0. -1.
         -6    2    1    2    0  503  0.34400236031E+01 -0.10780788944E+03  0.30134283385E+03  0.36556173100E+03  0.17661681933E+03 0.  0.
        -24    2    3    3    0    0 -0.51624197698E+02 -0.11208226430E+02  0.11871831504E+03  0.15169876499E+03  0.78280232788E+02 0.  0.
          6    2    1    2  501    0 -0.34400236031E+01  0.10780788944E+03  0.31693234382E+03  0.37317027219E+03  0.16485013407E+03 0.  0.
         24    2    5    5    0    0  0.51845286657E+02  0.85604025226E+02  0.26436868712E+03  0.29358066783E+03  0.79264259993E+02 0.  0.
          5    1    5    5  501    0 -0.55285310260E+02  0.22203864218E+02  0.52563656698E+02  0.79589604360E+02  0.47000000000E+01 0. -1.
        -11    1    6    6    0    0  0.95453955181E+00  0.12762475654E+02 -0.18434827330E+01  0.12930211103E+02  0.00000000000E+00 0.  1.
         12    1    6    6    0    0  0.50890747105E+02  0.72841549572E+02  0.26621216985E+03  0.28065045673E+03  0.00000000000E+00 0. -1.
         -5    1    3    3    0  503  0.55064221301E+02 -0.96599663014E+02  0.18262451880E+03  0.21386296601E+03  0.47000000000E+01 0.  1.
         13    1    4    4    0    0 -0.67597833287E+02 -0.16602014391E+02  0.11501380463E+03  0.13443685954E+03  0.00000000000E+00 0. -1.
        -14    1    4    4    0    0  0.15973635589E+02  0.53937879605E+01  0.37045104147E+01  0.17261905454E+02  0.00000000000E+00 0.  1.
</event>
<event>
12    1  0.1046899E+000  0.1937246E+03  0.7818608E-02  0.1155405E+00
         21   -1    0    0  503  502  0.00000000000E+00  0.00000000000E+00  0.18945529096E+03  0.18945529096E+03  0.00000000000E+00 0.  1.
         21   -1    0    0  501  503 -0.00000000000E+00 -0.00000000000E+00 -0.19881011276E+03  0.19881011276E+03  0.00000000000E+00 0.  1.
          6    2    1    2  501    0  0.83619933358E+02  0.26882284105E+02  0.14420069709E+02  0.19426057944E+03  0.17266813216E+03 0.  0.
         24    2    3    3    0    0 -0.10235930282E+02 -0.26912418781E+02  0.97918071915E+01  0.85880212163E+02  0.80314872842E+02 0.  0.
         -6    2    1    2    0  502 -0.83619933358E+02 -0.26882284105E+02 -0.23774891508E+02  0.19400482428E+03  0.17134081804E+03 0.  0.
        -24    2    5    5    0    0 -0.74621185757E+02 -0.54958739156E+02  0.36160559709E+02  0.12704503710E+03  0.79019434323E+02 0.  0.
          5    1    3    3  501    0  0.93855863640E+02  0.53794702886E+02  0.46282625176E+01  0.10838036728E+03  0.47000000000E+01 0. -1.
        -13    1    4    4    0    0  0.27256804081E+02 -0.61629590714E+01  0.27782512248E+02  0.39405372984E+02  0.00000000000E+00 0.  1.
         14    1    4    4    0    0 -0.37492734363E+02 -0.20749459710E+02 -0.17990705057E+02  0.46474839179E+02  0.00000000000E+00 0. -1.
         -5    1    5    5    0  502 -0.89987476007E+01  0.28076455051E+02 -0.59935451217E+02  0.66959787180E+02  0.47000000000E+01 0.  1.
         13    1    6    6    0    0  0.53730430107E+01 -0.39789055138E+02  0.83729850452E+01  0.41013965652E+02  0.00000000000E+00 0. -1.
        -14    1    6    6    0    0 -0.79994228768E+02 -0.15169684018E+02  0.27787574664E+02  0.86031071451E+02  0.00000000000E+00 0.  1.
</event>
<event>
12    1  0.1046899E+000  0.1896205E+03  0.7818608E-02  0.1159609E+00
         21   -1    0    0  503  502  0.00000000000E+00  0.00000000000E+00  0.22049631179E+02  0.22049631179E+02  0.00000000000E+00 0.  1.
         21   -1    0    0  501  503 -0.00000000000E+00 -0.00000000000E+00 -0.16735417851E+04  0.16735417851E+04  0.00000000000E+00 0.  1.
          6    2    1    2  501    0 -0.39578857769E+00  0.67831167234E+02 -0.10102705731E+04  0.10279117443E+04  0.17707258196E+03 0.  0.
         24    2    3    3    0    0 -0.12249329960E+02  0.41351674952E+02 -0.98483886583E+03  0.98904618514E+03  0.80279247482E+02 0.  0.
         -6    2    1    2    0  502  0.39578857769E+00 -0.67831167234E+02 -0.64122158078E+03  0.66767967195E+03  0.17329109838E+03 0.  0.
        -24    2    5    5    0    0  0.39574221164E+02 -0.84328583853E+02 -0.30572627608E+03  0.32946922887E+03  0.80024920171E+02 0.  0.
          5    1    3    3  501    0  0.11853541382E+02  0.26479492282E+02 -0.25431707311E+02  0.38865559196E+02  0.47000000000E+01 0. -1.
        -11    1    4    4    0    0 -0.21215725868E+02 -0.19846308690E+02 -0.28303075422E+03  0.28451782163E+03  0.00000000000E+00 0.  1.
         12    1    4    4    0    0  0.89663959082E+01  0.61197983642E+02 -0.70180811161E+03  0.70452836351E+03  0.00000000000E+00 0. -1.
         -5    1    5    5    0  502 -0.39178432586E+02  0.16497416618E+02 -0.33549530469E+03  0.33821044308E+03  0.47000000000E+01 0.  1.
         11    1    6    6    0    0  0.73782163366E+01 -0.26618085941E+02 -0.15211888239E+02  0.31533507881E+02  0.00000000000E+00 0. -1.
        -12    1    6    6    0    0  0.32196004827E+02 -0.57710497912E+02 -0.29051438785E+03  0.29793572099E+03  0.00000000000E+00 0.  1.
</event>
<event>
12    1  0.1046899E+000  0.1734759E+03  0.7818608E-02  0.1174450E+00
         21   -1    0    0  501  502  0.00000000000E+00  0.00000000000E+00  0.12668004977E+03  0.12668004977E+03  0.00000000000E+00 0.  1.
         21   -1    0    0  502  503 -0.00000000000E+00 -0.00000000000E+00 -0.26326741145E+03  0.26326741145E+03  0.00000000000E+00 0.  1.
         -6    2    1    2    0  503  0.84726312793E+01  0.92634200070E+01 -0.63563960059E+01  0.17359233942E+03  0.17302109728E+03 0.  0.
        -24    2    3    3    0    0 -0.27061285881E+02  0.92864988973E+01  0.54917238509E+02  0.10260495964E+03  0.81812727625E+02 0.  0.
          6    2    1    2  501    0 -0.84726312793E+01 -0.92634200070E+01 -0.13023096568E+03  0.21635512180E+03  0.17231319705E+03 0.  0.
         24    2    5    5    0    0 -0.52330751829E+02  0.90774272261E+01 -0.13788281620E+03  0.16797576430E+03  0.79895426145E+02 0.  0.
          5    1    5    5  501    0  0.43858120550E+02 -0.18340847233E+02  0.76518505173E+01  0.48379357496E+02  0.47000000000E+01 0. -1.
        -11    1    6    6    0    0  0.16044260473E+01 -0.62077063736E+01  0.88329888263E+01  0.10914737421E+02  0.00000000000E+00 0.  1.
         12    1    6    6    0    0 -0.53935177877E+02  0.15285133600E+02 -0.14671580502E+03  0.15706102688E+03  0.00000000000E+00 0. -1.
         -5    1    3    3    0  503  0.35533917160E+02 -0.23078890300E-01 -0.61273634515E+02  0.70987379780E+02  0.47000000000E+01 0.  1.
         11    1    4    4    0    0 -0.55943825080E+02  0.12071360516E+02  0.31565975440E+02  0.65359315440E+02  0.00000000000E+00 0. -1.
        -12    1    4    4    0    0  0.28882539199E+02 -0.27848616191E+01  0.23351263068E+02  0.37245644198E+02  0.00000000000E+00 0.  1.
</event>
<event>
12    1  0.1046899E+000  0.2050581E+03  0.7818608E-02  0.1145728E+00
         21   -1    0    0  503  502  0.00000000000E+00  0.00000000000E+00  0.89675001060E+02  0.89675001060E+02  0.00000000000E+00 0. -1.
         21   -1    0    0  501  503 -0.00000000000E+00 -0.00000000000E+00 -0.46695935030E+03  0.46695935030E+03  0.00000000000E+00 0.  1.
          6    2    1    2  501    0  0.64707014816E+02  0.90164248418E+02 -0.18413945539E+03  0.27560144639E+03  0.17243035917E+03 0.  0.
         24    2    3    3    0    0  0.17355236833E+02 -0.17514996125E+02 -0.53523328345E+02  0.99761538443E+02  0.80496202026E+02 0.  0.
         -6    2    1    2    0  502 -0.64707014816E+02 -0.90164248418E+02 -0.19314489385E+03  0.28103290497E+03  0.17134163007E+03 0.  0.
        -24    2    5    5    0    0  0.12422737090E+02 -0.12863361854E+02 -0.13224162061E+03  0.15591006779E+03  0.80624515753E+02 0.  0.
          5    1    3    3  501    0  0.47351777983E+02  0.10767924454E+03 -0.13061612704E+03  0.17583990795E+03  0.47000000000E+01 0. -1.
        -11    1    4    4    0    0 -0.27201784370E+02  0.12922890623E+02 -0.16729922978E+02  0.34450377325E+02  0.00000000000E+00 0.  1.
         12    1    4    4    0    0  0.44557021203E+02 -0.30437886748E+02 -0.36793405367E+02  0.65311161118E+02  0.00000000000E+00 0. -1.
         -5    1    5    5    0  502 -0.77129751906E+02 -0.77300886564E+02 -0.60903273238E+02  0.12512283718E+03  0.47000000000E+01 0.  1.
         13    1    6    6    0    0  0.46166567876E+02 -0.12470049663E+02 -0.89267511454E+02  0.10126965355E+03  0.00000000000E+00 0. -1.
        -14    1    6    6    0    0 -0.33743830786E+02 -0.39331219095E+00 -0.42974109158E+02  0.54640414242E+02  0.00000000000E+00 0.  1.
</event>
<event>
12    1  0.1046899E+000  0.2922779E+03  0.7818608E-02  0.1089524E+00
         21   -1    0    0  501  502  0.00000000000E+00  0.00000000000E+00  0.39918027931E+03  0.39918027931E+03  0.00000000000E+00 0. -1.
         21   -1    0    0  502  503 -0.00000000000E+00 -0.00000000000E+00 -0.22428768137E+03  0.22428768137E+03  0.00000000000E+00 0. -1.
         -6    2    1    2    0  503  0.22165611358E+02 -0.23429834142E+03  0.16004340229E+03  0.33081313163E+03  0.16863098862E+03 0.  0.
        -24    2    3    3    0    0 -0.18976098444E+02 -0.10184701035E+03  0.13590077888E+03  0.18995521864E+03  0.82952140166E+02 0.  0.
          6    2    1    2  501    0 -0.22165611358E+02  0.23429834142E+03  0.14849195650E+02  0.29265482906E+03  0.17331856001E+03 0.  0.
         24    2    5    5    0    0 -0.15909306902E+02  0.25403940278E+03  0.26949281392E+02  0.26821402457E+03  0.80145960576E+02 0.  0.
          5    1    5    5  501    0 -0.62563044560E+01 -0.19741061364E+02 -0.12100085742E+02  0.24440804491E+02  0.47000000000E+01 0. -1.
        -13    1    6    6    0    0  0.11511476076E+02  0.22470073112E+03  0.11836524151E+02  0.22530653775E+03  0.00000000000E+00 0.  1.
         14    1    6    6    0    0 -0.27420782977E+02  0.29338671658E+02  0.15112757241E+02  0.42907486819E+02  0.00000000000E+00 0. -1.
         -5    1    3    3    0  503  0.41141709802E+02 -0.13245133106E+03  0.24142623409E+02  0.14085791299E+03  0.47000000000E+01 0.  1.
         13    1    4    4    0    0 -0.39452342220E+02 -0.10278093383E+03  0.10059175797E+03  0.14912782918E+03  0.00000000000E+00 0. -1.
        -14    1    4    4    0    0  0.20476243776E+02  0.93392347438E+00  0.35309020912E+02  0.40827389458E+02  0.00000000000E+00 0.  1.
</event>
<event>
12    1  0.1046899E+000  0.2609114E+03  0.7818608E-02  0.1106734E+00
         21   -1    0    0  503  502  0.00000000000E+00  0.00000000000E+00  0.74793754443E+03  0.74793754443E+03  0.00000000000E+00 0.  1.
         21   -1    0    0  501  503 -0.00000000000E+00 -0.00000000000E+00 -0.21120761399E+03  0.21120761399E+03  0.00000000000E+00 0.  1.
          6    2    1    2  501    0  0.17885710193E+03  0.81866624712E+02  0.63081899278E+03  0.68264731030E+03  0.17141394769E+03 0.  0.
         24    2    3    3    0    0  0.54463331505E+02  0.77495924708E+01  0.29530444257E+03  0.31718972317E+03  0.10187392220E+03 0.  0.
         -6    2    1    2    0  502 -0.17885710193E+03 -0.81866624712E+02 -0.94089062334E+02  0.27649784813E+03  0.17001853198E+03 0.  0.
        -24    2    5    5    0    0 -0.18224728891E+03 -0.34090474250E+02 -0.10301017305E+03  0.22755165178E+03  0.82416161804E+02 0.  0.
          5    1    3    3  501    0  0.12439377042E+03  0.74117032242E+02  0.33551455021E+03  0.36545758713E+03  0.47000000000E+01 0. -1.
        -13    1    4    4    0    0 -0.29488565643E+02  0.11587115217E+02  0.85286519142E+02  0.90981465640E+02  0.00000000000E+00 0.  1.
         14    1    4    4    0    0  0.83951897148E+02 -0.38375227459E+01  0.21001792343E+03  0.22620825753E+03  0.00000000000E+00 0. -1.
         -5    1    5    5    0  502  0.33901869791E+01 -0.47776150462E+02  0.89211107153E+01  0.48946196350E+02  0.47000000000E+01 0.  1.
         11    1    6    6    0    0 -0.14687608656E+03 -0.18459172824E+02 -0.11457108156E+03  0.18718936560E+03  0.00000000000E+00 0. -1.
        -12    1    6    6    0    0 -0.35371202346E+02 -0.15631301426E+02  0.11560908511E+02  0.40362286175E+02  0.00000000000E+00 0.  1.
</event>
<event>
12    1  0.1046899E+000  0.2283010E+03  0.7818608E-02  0.1127843E+00
         21   -1    0    0  503  502  0.00000000000E+00  0.00000000000E+00  0.15800133316E+03  0.15800133316E+03  0.00000000000E+00 0.  1.
         21   -1    0    0  501  503 -0.00000000000E+00 -0.00000000000E+00 -0.50198965781E+03  0.50198965781E+03  0.00000000000E+00 0.  1.
          6    2    1    2  501    0  0.10976902814E+03  0.10212914630E+03  0.21241385308E+02  0.22927753347E+03  0.17215513016E+03 0.  0.
         24    2    3    3    0    0  0.97838302607E+02  0.10184627582E+02 -0.20219949540E+02  0.12760517232E+03  0.78728479898E+02 0.  0.
         -6    2    1    2    0  502 -0.10976902814E+03 -0.10212914630E+03 -0.36522970996E+03  0.43071345751E+03  0.17216776521E+03 0.  0.
        -24    2    5    5    0    0 -0.14496428023E+03 -0.89387421456E+02 -0.30457176412E+03  0.35928143587E+03  0.85524481890E+02 0.  0.
          5    1    3    3  501    0  0.11930725530E+02  0.91944518721E+02  0.41461334847E+02  0.10167236115E+03  0.47000000000E+01 0. -1.
        -11    1    4    4    0    0 -0.41006723813E+01 -0.19119431802E+02 -0.67472795859E+01  0.20685598087E+02  0.00000000000E+00 0.  1.
         12    1    4    4    0    0  0.10193897499E+03  0.29304059385E+02 -0.13472669954E+02  0.10691957423E+03  0.00000000000E+00 0. -1.
         -5    1    5    5    0  502  0.35195252095E+02 -0.12741724848E+02 -0.60657945837E+02  0.71432021638E+02  0.47000000000E+01 0.  1.
         13    1    6    6    0    0 -0.10285384218E+03 -0.10285878265E+03 -0.24760140911E+03  0.28716772070E+03  0.00000000000E+00 0. -1.
        -14    1    6    6    0    0 -0.42110438050E+02  0.13471361193E+02 -0.56970355012E+02  0.72113715168E+02  0.00000000000E+00 0.  1.
</event>
<event>
12    1  0.1046899E+000  0.2105674E+03  0.7818608E-02  0.1141384E+00
         21   -1    0    0  501  502  0.00000000000E+00  0.00000000000E+00  0.16578556260E+03  0.16578556260E+03  0.00000000000E+00 0. -1.
         21   -1    0    0  502  503 -0.00000000000E+00 -0.00000000000E+00 -0.31332796337E+03  0.31332796337E+03  0.00000000000E+00 0. -1.
         -6    2    1    2    0  503 -0.25574239035E+02  0.11687303388E+03 -0.16733086690E+03  0.26895773927E+03  0.17327809655E+03 0.  0.
        -24    2    3    3    0    0 -0.63050479339E+02  0.13156947170E+03 -0.15331779914E+03  0.22607522604E+03  0.79484410234E+02 0.  0.
          6    2    1    2  501    0  0.25574239035E+02 -0.11687303388E+03  0.19788466130E+02  0.21015578670E+03  0.17164068149E+03 0.  0.
         24    2    5    5    0    0 -0.36727392549E+02 -0.58553594849E+02 -0.28856539907E+02  0.11181415320E+03  0.83019757455E+02 0.  0.
          5    1    5    5  501    0  0.62301631583E+02 -0.58319439028E+02  0.48645006037E+02  0.98341633497E+02  0.47000000000E+01 0. -1.
        -11    1    6    6    0    0 -0.20691076226E+02  0.16112849871E+02  0.74379271278E+01  0.27259261294E+02  0.00000000000E+00 0.  1.
         12    1    6    6    0    0 -0.16036316322E+02 -0.74666444720E+02 -0.36294467035E+02  0.84554891908E+02  0.00000000000E+00 0. -1.
         -5    1    3    3    0  503  0.37476240304E+02 -0.14696437826E+02 -0.14013067763E+02  0.42882513222E+02  0.47000000000E+01 0.  1.
         11    1    4    4    0    0 -0.36250435088E+02  0.11275489375E+02 -0.61952616596E+02  0.72659186672E+02  0.00000000000E+00 0. -1.
        -12    1    4    4    0    0 -0.26800044251E+02  0.12029398233E+03 -0.91365182539E+02  0.15341603937E+03  0.00000000000E+00 0.  1.
</event>
<event>
12    1  0.1046899E+000  0.1796128E+03  0.7818608E-02  0.1171546E+00
         21   -1    0    0  501  502  0.00000000000E+00  0.00000000000E+00  0.22991752989E+03  0.22991752989E+03  0.00000000000E+00 0. -1.
         21   -1    0    0  502  503 -0.00000000000E+00 -0.00000000000E+00 -0.13154857083E+03  0.13154857083E+03  0.00000000000E+00 0. -1.
         -6    2    1    2    0  503 -0.12872579368E+02  0.23424478293E+02  0.32112439946E+02  0.18246089796E+03  0.17761295280E+03 0.  0.
        -24    2    3    3    0    0  0.50356295212E+01  0.41159850223E+02 -0.45338254471E+02  0.10087690793E+03  0.80006889706E+02 0.  0.
          6    2    1    2  501    0  0.12872579368E+02 -0.23424478293E+02  0.66256519108E+02  0.17900520276E+03  0.16412960369E+03 0.  0.
         24    2    5    5    0    0 -0.21362445016E+02  0.25483478733E+02 -0.69798263197E+01  0.84402467882E+02  0.77261224840E+02 0.  0.
          5    1    5    5  501    0  0.34235024384E+02 -0.48907957026E+02  0.73236345427E+02  0.94602734879E+02  0.47000000000E+01 0. -1.
        -13    1    6    6    0    0 -0.48259173270E+02  0.16096625732E+02  0.91143873074E+01  0.51682890985E+02  0.00000000000E+00 0.  1.
         14    1    6    6    0    0  0.26896728254E+02  0.93868530016E+01 -0.16094213627E+02  0.32719576897E+02  0.00000000000E+00 0. -1.
         -5    1    3    3    0  503 -0.17908208889E+02 -0.17735371930E+02  0.77450694417E+02  0.81583990027E+02  0.47000000000E+01 0.  1.
         13    1    4    4    0    0  0.21605063750E+02 -0.17181849732E+02 -0.50405932920E+01  0.28060689953E+02  0.00000000000E+00 0. -1.
        -14    1    4    4    0    0 -0.16569434229E+02  0.58341699955E+02 -0.40297661179E+02  0.72816217979E+02  0.00000000000E+00 0.  1.
</event>
<event>
12    1  0.1046899E+000  0.2403983E+03  0.7818608E-02  0.1119692E+00
         21   -1    0    0  501  502  0.00000000000E+00  0.00000000000E+00  0.39427943296E+03  0.39427943296E+03  0.00000000000E+00 0. -1.
         21   -1    0    0  502  503 -0.00000000000E+00 -0.00000000000E+00 -0.15146623703E+03  0.15146623703E+03  0.00000000000E+00 0. -1.
         -6    2    1    2    0  503  0.37384490098E+02  0.16659311593E+03  0.69683510213E+02  0.25029411400E+03  0.16923500091E+03 0.  0.
        -24    2    3    3    0    0  0.74325568764E+02  0.10307527843E+03 -0.39987534006E+00  0.14864309382E+03  0.77109054229E+02 0.  0.
          6    2    1    2  501    0 -0.37384490098E+02 -0.16659311593E+03  0.17312968572E+03  0.29545155598E+03  0.16782987660E+03 0.  0.
         24    2    5    5    0    0 -0.79987090392E+02 -0.94273012458E+02  0.71080376827E+02  0.16323457385E+03  0.79421474570E+02 0.  0.
          5    1    5    5  501    0  0.42602600294E+02 -0.72320103475E+02  0.10204930889E+03  0.13221698213E+03  0.47000000000E+01 0. -1.
        -13    1    6    6    0    0  0.54962841210E+01  0.23166044499E+01  0.25881891607E+02  0.26560273125E+02  0.00000000000E+00 0.  1.
         14    1    6    6    0    0 -0.85483374513E+02 -0.96589616907E+02  0.45198485220E+02  0.13667430073E+03  0.00000000000E+00 0. -1.
         -5    1    3    3    0  503 -0.36941078666E+02  0.63517837499E+02  0.70083385553E+02  0.10165102018E+03  0.47000000000E+01 0.  1.
         11    1    4    4    0    0  0.35575284072E+02  0.87743679671E+01 -0.24248969026E+02  0.43938626160E+02  0.00000000000E+00 0. -1.
        -12    1    4    4    0    0  0.38750284692E+02  0.94300910466E+02  0.23849093686E+02  0.10470446766E+03  0.00000000000E+00 0.  1.
</event>
<event>
12    1  0.1046899E+000  0.1841000E+03  0.7818608E-02  0.1165043E+00
         21   -1    0    0  503  502  0.00000000000E+00  0.00000000000E+00  0.23761805604E+04  0.23761805604E+04  0.00000000000E+00 0.  1.
         21   -1    0    0  501  503 -0.00000000000E+00 -0.00000000000E+00 -0.13912790231E+02  0.13912790231E+02  0.00000000000E+00 0.  1.
          6    2    1    2  501    0 -0.43232208676E+02 -0.31941613562E+02  0.12427777209E+04  0.12563396299E+04  0.17607814052E+03 0.  0.
         24    2    3    3    0    0 -0.52645946875E+02 -0.83858283830E+02  0.74920246089E+03  0.75992993377E+03  0.79908506177E+02 0.  0.
         -6    2    1    2    0  502  0.43232208676E+02  0.31941613562E+02  0.11194900494E+04  0.11337537208E+04  0.17102701043E+03 0.  0.
        -24    2    5    5    0    0  0.68671041381E+02  0.69191306136E+02  0.63141783380E+03  0.64357900563E+03  0.77474556295E+02 0.  0.
          5    1    3    3  501    0  0.94137381991E+01  0.51916670269E+02  0.49357525998E+03  0.49640969610E+03  0.47000000000E+01 0. -1.
        -13    1    4    4    0    0  0.61237453305E+01 -0.38907970568E+02  0.44978226383E+03  0.45150350529E+03  0.00000000000E+00 0.  1.
         14    1    4    4    0    0 -0.58769692205E+02 -0.44950313262E+02  0.29942019706E+03  0.30842642849E+03  0.00000000000E+00 0. -1.
         -5    1    5    5    0  502 -0.25438832705E+02 -0.37249692574E+02  0.48807221555E+03  0.49017471518E+03  0.47000000000E+01 0.  1.
         11    1    6    6    0    0  0.11290849873E+02 -0.11634097713E+01  0.29225872387E+03  0.29247905650E+03  0.00000000000E+00 0. -1.
        -12    1    6    6    0    0  0.57380191508E+02  0.70354715907E+02  0.33915910993E+03  0.35109994913E+03  0.00000000000E+00 0.  1.
</event>
<event>
12    1  0.1046899E+000  0.2983292E+03  0.7818608E-02  0.1086651E+00
         21   -1    0    0  503  502  0.00000000000E+00  0.00000000000E+00  0.12776605573E+04  0.12776605573E+04  0.00000000000E+00 0.  1.
         21   -1    0    0  501  503 -0.00000000000E+00 -0.00000000000E+00 -0.88666377909E+02  0.88666377909E+02  0.00000000000E+00 0. -1.
          6    2    1    2  501    0 -0.14271688972E+03 -0.19111509938E+03  0.27309426800E+03  0.40445125639E+03  0.17918495404E+03 0.  0.
         24    2    3    3    0    0 -0.14806401907E+03 -0.85991228413E+02  0.20444111389E+03  0.27869368958E+03  0.80972578417E+02 0.  0.
         -6    2    1    2    0  502  0.14271688972E+03  0.19111509938E+03  0.91589991142E+03  0.96187567885E+03  0.17157820958E+03 0.  0.
        -24    2    5    5    0    0  0.84766851854E+01  0.93407259941E+02  0.28244005416E+03  0.30700108386E+03  0.75369164102E+02 0.  0.
          5    1    3    3  501    0  0.53471293532E+01 -0.10512387097E+03  0.68653154112E+02  0.12575756681E+03  0.47000000000E+01 0. -1.
        -11    1    4    4    0    0 -0.10339273465E+03 -0.84748625928E+02  0.18881597586E+03  0.23135224208E+03  0.00000000000E+00 0.  1.
         12    1    4    4    0    0 -0.44671284421E+02 -0.12426024848E+01  0.15625138025E+02  0.47341447497E+02  0.00000000000E+00 0. -1.
         -5    1    5    5    0  502  0.13424020453E+03  0.97707839442E+02  0.63345985726E+03  0.65487459499E+03  0.47000000000E+01 0.  1.
         13    1    6    6    0    0  0.29710070832E+02  0.69670618262E+01  0.88421098510E+02  0.93538863159E+02  0.00000000000E+00 0. -1.
        -14    1    6    6    0    0 -0.21233385647E+02  0.86440198115E+02  0.19401895565E+03  0.21346222070E+03  0.00000000000E+00 0.  1.
</event>
<event>
12    1  0.1046899E+000  0.2482890E+03  0.7818608E-02  0.1114512E+00
         21   -1    0    0  503  502  0.00000000000E+00  0.00000000000E+00  0.26816604921E+04  0.26816604921E+04  0.00000000000E+00 0. -1.
         21   -1    0    0  501  503 -0.00000000000E+00 -0.00000000000E+00 -0.26538965776E+02  0.26538965776E+02  0.00000000000E+00 0. -1.
          6    2    1    2  501    0 -0.18092519391E+01 -0.17867607732E+03  0.18294716091E+04  0.18462431629E+04  0.17239209382E+03 0.  0.
         24    2    3    3    0    0 -0.47129484615E+02 -0.14376578673E+03  0.96653935407E+03  0.98140397630E+03  0.77882295714E+02 0.  0.
         -6    2    1    2    0  502  0.18092519391E+01  0.17867607732E+03  0.82564991715E+03  0.86195629492E+03  0.17129639417E+03 0.  0.
        -24    2    5    5    0    0  0.39193438432E+02  0.53339660080E+02  0.22898685868E+03  0.25110795839E+03  0.78987216485E+02 0.  0.
          5    1    3    3  501    0  0.45320232675E+02 -0.34910290581E+02  0.86293225507E+03  0.86483918662E+03  0.47000000000E+01 0. -1.
        -11    1    4    4    0    0 -0.24067991227E+02 -0.12467250489E+03  0.89333659739E+03  0.90231523201E+03  0.00000000000E+00 0.  1.
         12    1    4    4    0    0 -0.23061493387E+02 -0.19093281843E+02  0.73202756671E+02  0.79088744288E+02  0.00000000000E+00 0. -1.
         -5    1    5    5    0  502 -0.37384186493E+02  0.12533641724E+03  0.59666305848E+03  0.61084833653E+03  0.47000000000E+01 0.  1.
         13    1    6    6    0    0 -0.62998048637E+00 -0.45192558232E+01  0.12808316968E+03  0.12816442136E+03  0.00000000000E+00 0. -1.
        -14    1    6    6    0    0  0.39823418918E+02  0.57858915903E+02  0.10090368900E+03  0.12294353703E+03  0.00000000000E+00 0.  1.
</event>
<event>
12    1  0.1046899E+000  0.2795130E+03  0.7818608E-02  0.1096084E+00
         21   -1    0    0  501  502  0.00000000000E+00  0.00000000000E+00  0.18237769892E+03  0.18237769892E+03  0.00000000000E+00 0. -1.
         21   -1    0    0  502  503 -0.00000000000E+00 -0.00000000000E+00 -0.45453917536E+03  0.45453917536E+03  0.00000000000E+00 0. -1.
         -6    2    1    2    0  503 -0.12620553616E+03 -0.18006343360E+03 -0.57395123358E+02  0.28442276120E+03  0.17103049268E+03 0.  0.
        -24    2    3    3    0    0 -0.13248471506E+03 -0.15169542215E+03 -0.95131600689E+02  0.23656564175E+03  0.79684255518E+02 0.  0.
          6    2    1    2  501    0  0.12620553616E+03  0.18006343360E+03 -0.21476635309E+03  0.35249411308E+03  0.17255965883E+03 0.  0.
         24    2    5    5    0    0  0.41817815483E+02  0.26891862841E+02 -0.54589759456E+02  0.11529915394E+03  0.88554791422E+02 0.  0.
          5    1    5    5  501    0  0.84387720681E+02  0.15317157076E+03 -0.16017659363E+03  0.23719495913E+03  0.47000000000E+01 0. -1.
        -13    1    6    6    0    0  0.46297273431E+02  0.46067620787E+02 -0.65740977490E+02  0.92668977190E+02  0.00000000000E+00 0.  1.
         14    1    6    6    0    0 -0.44794579476E+01 -0.19175757946E+02  0.11151218033E+02  0.22630176754E+02  0.00000000000E+00 0. -1.
         -5    1    3    3    0  503  0.62791788980E+01 -0.28368011449E+02  0.37736477331E+02  0.47857119455E+02  0.47000000000E+01 0.  1.
         11    1    4    4    0    0 -0.99305321960E+01 -0.74421937804E+01 -0.36279617630E+02  0.38343348489E+02  0.00000000000E+00 0. -1.
        -12    1    4    4    0    0 -0.12255418287E+03 -0.14425322837E+03 -0.58851983059E+02  0.19822229326E+03  0.00000000000E+00 0.  1.
</event>
<event>
12    1  0.1046899E+000  0.2030241E+03  0.7818608E-02  0.1147731E+00
         21   -1    0    0  501  502  0.00000000000E+00  0.00000000000E+00  0.45879217501E+03  0.45879217501E+03  0.00000000000E+00 0. -1.
         21   -1    0    0  502  503 -0.00000000000E+00 -0.00000000000E+00 -0.18912199069E+03  0.18912199069E+03  0.00000000000E+00 0. -1.
         -6    2    1    2    0  503 -0.65048693458E+02  0.79948255868E+02  0.37045563863E+03  0.42125031540E+03  0.17202148674E+03 0.  0.
        -24    2    3    3    0    0 -0.72636151256E+02  0.11774452075E+03  0.26886030888E+03  0.31248530181E+03  0.78875950207E+02 0.  0.
          6    2    1    2  501    0  0.65048693458E+02 -0.79948255868E+02 -0.10078545431E+03  0.22666385029E+03  0.17491637171E+03 0.  0.
         24    2    5    5    0    0  0.33446360749E+02 -0.11860803009E+03 -0.10048684665E+03  0.17650944129E+03  0.76625404827E+02 0.  0.
          5    1    5    5  501    0  0.31602332709E+02  0.38659774227E+02 -0.29860766312E+00  0.50154409003E+02  0.47000000000E+01 0. -1.
        -11    1    6    6    0    0  0.45891983373E+02 -0.38648475337E+02 -0.64050491319E+02  0.87762430584E+02  0.00000000000E+00 0.  1.
         12    1    6    6    0    0 -0.12445622624E+02 -0.79959554758E+02 -0.36436355327E+02  0.88747010705E+02  0.00000000000E+00 0. -1.
         -5    1    3    3    0  503  0.75874577981E+01 -0.37796264884E+02  0.10159532975E+03  0.10876501359E+03  0.47000000000E+01 0.  1.
         13    1    4    4    0    0  0.23484992646E+01 -0.46245461207E+01 -0.23107449285E+01  0.56781526699E+01  0.00000000000E+00 0. -1.
        -14    1    4    4    0    0 -0.74984650521E+02  0.12236906687E+03  0.27117105381E+03  0.30680714914E+03  0.00000000000E+00 0.  1.
</event>
<event>
12    1  0.1046899E+000  0.1723902E+03  0.7818608E-02  0.1175583E+00
         21   -1    0    0  503  502  0.00000000000E+00  0.00000000000E+00  0.78431451338E+03  0.78431451338E+03  0.00000000000E+00 0.  1.
         21   -1    0    0  501  503 -0.00000000000E+00 -0.00000000000E+00 -0.38487001775E+02  0.38487001775E+02  0.00000000000E+00 0.  1.
          6    2    1    2  501    0  0.20203654479E+02 -0.21215335142E+02  0.31550627022E+03  0.35953104563E+03  0.16988257157E+03 0.  0.
         24    2    3    3    0    0 -0.14648696909E+02  0.29502947983E+02  0.26612783318E+03  0.28049086164E+03  0.82256255754E+02 0.  0.
         -6    2    1    2    0  502 -0.20203654479E+02  0.21215335142E+02  0.43032124138E+03  0.46327046952E+03  0.16907063331E+03 0.  0.
        -24    2    5    5    0    0 -0.48586390505E+02  0.62906777059E+02  0.35708394498E+03  0.37422246215E+03  0.78839123985E+02 0.  0.
          5    1    3    3  501    0  0.34852351388E+02 -0.50718283124E+02  0.49378437046E+02  0.79040183992E+02  0.47000000000E+01 0. -1.
        -11    1    4    4    0    0  0.32691517266E+02  0.35405451491E+00  0.87320050772E+02  0.93239755055E+02  0.00000000000E+00 0.  1.
         12    1    4    4    0    0 -0.47340214175E+02  0.29148893468E+02  0.17880778240E+03  0.18725110658E+03  0.00000000000E+00 0. -1.
         -5    1    5    5    0  502  0.28382736026E+02 -0.41691441917E+02  0.73237296402E+02  0.89048007377E+02  0.47000000000E+01 0.  1.
         13    1    6    6    0    0  0.15495143292E+02  0.12598347050E+02  0.23525699984E+02  0.30858975579E+02  0.00000000000E+00 0. -1.
        -14    1    6    6    0    0 -0.64081533796E+02  0.50308430008E+02  0.33355824500E+03  0.34336348657E+03  0.00000000000E+00 0.  1.
</event>
<event>
12    1  0.1046899E+000  0.1783664E+03  0.7818608E-02  0.1169515E+00
         21   -1    0    0  501  502  0.00000000000E+00  0.00000000000E+00  0.18370610382E+03  0.18370610382E+03  0.00000000000E+00 0.  1.
         21   -1    0    0  502  503 -0.00000000000E+00 -0.00000000000E+00 -0.21190520383E+03  0.21190520383E+03  0.00000000000E+00 0.  1.
         -6    2    1    2    0  503 -0.44175849371E+02  0.13558121684E+02  0.70996176774E+02  0.19151747322E+03  0.17176483081E+03 0.  0.
        -24    2    3    3    0    0 -0.39666238238E+02 -0.44610956783E+02  0.85941193743E+02  0.13110702864E+03  0.78991241647E+02 0.  0.
          6    2    1    2  501    0  0.44175849371E+02 -0.13558121684E+02 -0.99195276783E+02  0.20409383443E+03  0.17227670180E+03 0.  0.
         24    2    5    5    0    0 -0.15949670027E+02  0.45201822328E+02 -0.44682694011E+02  0.10378670216E+03  0.80483163989E+02 0.  0.
          5    1    5    5  501    0  0.60125519398E+02 -0.58759944011E+02 -0.54512582772E+02  0.10030713227E+03  0.47000000000E+01 0. -1.
        -11    1    6    6    0    0 -0.30389898723E+02 -0.33651148535E+01  0.70462923541E+01  0.31377064527E+02  0.00000000000E+00 0.  1.
         12    1    6    6    0    0  0.14440228697E+02  0.48566937181E+02 -0.51728986365E+02  0.72409637634E+02  0.00000000000E+00 0. -1.
         -5    1    3    3    0  503 -0.45096111333E+01  0.58169078466E+02 -0.14945016969E+02  0.60410444580E+02  0.47000000000E+01 0.  1.
         11    1    4    4    0    0  0.18592494962E+02  0.11184386262E+01  0.39545412172E+02  0.43712371220E+02  0.00000000000E+00 0. -1.
        -12    1    4    4    0    0 -0.58258733201E+02 -0.45729395409E+02  0.46395781571E+02  0.87394657424E+02  0.00000000000E+00 0.  1.
</event>
<event>
12    1  0.1046899E+000  0.2904031E+03  0.7818608E-02  0.1091046E+00
         21   -1    0    0  501  502  0.00000000000E+00  0.00000000000E+00  0.76143195626E+03  0.76143195626E+03  0.00000000000E+00 0.  1.
         21   -1    0    0  502  503 -0.00000000000E+00 -0.00000000000E+00 -0.11470382958E+03  0.11470382958E+03  0.00000000000E+00 0.  1.
         -6    2    1    2    0  503  0.19438167340E+03 -0.11196310101E+03  0.43170838318E+03  0.52029422344E+03  0.18442879355E+03 0.  0.
        -24    2    3    3    0    0  0.19381250783E+03 -0.14036311270E+03  0.33592822432E+03  0.42028015720E+03  0.80762287276E+02 0.  0.
          6    2    1    2  501    0 -0.19438167340E+03  0.11196310101E+03  0.21501974350E+03  0.35584156240E+03  0.17340633350E+03 0.  0.
         24    2    5    5    0    0 -0.53385338414E+02 -0.72378330311E+01  0.56229023710E+02  0.11227347778E+03  0.80877995281E+02 0.  0.
          5    1    5    5  501    0 -0.14099633499E+03  0.11920093404E+03  0.15879071979E+03  0.24356808462E+03  0.47000000000E+01 0. -1.
        -13    1    6    6    0    0 -0.41986512415E+01  0.92726995588E+01  0.59425823718E+02  0.60291294180E+02  0.00000000000E+00 0.  1.
         14    1    6    6    0    0 -0.49186687173E+02 -0.16510532590E+02 -0.31968000081E+01  0.51982183599E+02  0.00000000000E+00 0. -1.
         -5    1    3    3    0  503  0.56916557746E+00  0.28400011690E+02  0.95780158858E+02  0.10001406623E+03  0.47000000000E+01 0.  1.
         11    1    4    4    0    0  0.17557155762E+02 -0.29109811443E+02  0.13991004966E+02  0.36761162395E+02  0.00000000000E+00 0. -1.
        -12    1    4    4    0    0  0.17625535206E+03 -0.11125330126E+03  0.32193721936E+03  0.38351899481E+03  0.00000000000E+00 0.  1.
</event>
<event>
12    1  0.1046899E+000  0.1839798E+03  0.7818608E-02  0.1165245E+00
         21   -1    0    0  501  502  0.00000000000E+00  0.00000000000E+00  0.58556453064E+03  0.58556453064E+03  0.00000000000E+00 0.  1.
         21   -1    0    0  502  503 -0.00000000000E+00 -0.00000000000E+00 -0.56193818322E+02  0.56193818322E+02  0.00000000000E+00 0.  1.
         -6    2    1    2    0  503 -0.38508459285E+02 -0.50129175844E+02  0.27223024788E+03  0.32856941536E+03  0.17277938865E+03 0.  0.
        -24    2    3    3    0    0  0.36961894332E+02 -0.39422115992E+02  0.92119768377E+02  0.13293636541E+03  0.79156431581E+02 0.  0.
          6    2    1    2  501    0  0.38508459285E+02  0.50129175844E+02  0.25714046443E+03  0.31318893360E+03  0.16724309843E+03 0.  0.
         24    2    5    5    0    0  0.50539050665E+02  0.56625847190E+02  0.80450641648E+02  0.13590857557E+03  0.78981978699E+02 0.  0.
          5    1    5    5  501    0 -0.12030591380E+02 -0.64966713459E+01  0.17668982278E+03  0.17728035803E+03  0.47000000000E+01 0. -1.
        -11    1    6    6    0    0  0.32879395495E+02  0.11451370136E+02 -0.73661178495E+01  0.35587191773E+02  0.00000000000E+00 0.  1.
         12    1    6    6    0    0  0.17659655170E+02  0.45174477054E+02  0.87816759497E+02  0.10032138379E+03  0.00000000000E+00 0. -1.
         -5    1    3    3    0  503 -0.75470353617E+02 -0.10707059852E+02  0.18011047951E+03  0.19563304995E+03  0.47000000000E+01 0.  1.
         11    1    4    4    0    0  0.26839867884E+02  0.18046822496E+02  0.13548263518E+02  0.35065962906E+02  0.00000000000E+00 0. -1.
        -12    1    4    4    0    0  0.10122026448E+02 -0.57468938488E+02  0.78571504859E+02  0.97870402503E+02  0.00000000000E+00 0.  1.
</event>
<event>
12    1  0.1046899E+000  0.1745575E+03  0.7818608E-02  0.1173196E+00
         21   -1    0    0  503  502  0.00000000000E+00  0.00000000000E+00  0.28748650812E+02  0.28748650812E+02  0.00000000000E+00 0.  1.
         21   -1    0    0  501  503 -0.00000000000E+00 -0.00000000000E+00 -0.14924482078E+04  0.14924482078E+04  0.00000000000E+00 0.  1.
          6    2    1    2  501    0 -0.28131645546E+02 -0.19086343340E+02 -0.32203260986E+03  0.36626233587E+03  0.17113567389E+03 0.  0.
         24    2    3    3    0    0 -0.41823167623E+01 -0.75846703697E+02 -0.17205735906E+03  0.20405883803E+03  0.79158450831E+02 0.  0.
         -6    2    1    2    0  502  0.28131645546E+02  0.19086343340E+02 -0.11416669471E+04  0.11549345227E+04  0.17121523202E+03 0.  0.
        -24    2    5    5    0    0  0.76190351716E+02  0.16122178751E+02 -0.57333903344E+03  0.58455120165E+03  0.83171904726E+02 0.  0.
          5    1    3    3  501    0 -0.23949328783E+02  0.56760360357E+02 -0.14997525081E+03  0.16220349784E+03  0.47000000000E+01 0. -1.
        -13    1    4    4    0    0 -0.28681406752E+02 -0.38725476531E+02 -0.33901739622E+02  0.58920400331E+02  0.00000000000E+00 0.  1.
         14    1    4    4    0    0  0.24499089990E+02 -0.37121227166E+02 -0.13815561943E+03  0.14513843770E+03  0.00000000000E+00 0. -1.
         -5    1    5    5    0  502 -0.48058706170E+02  0.29641645894E+01 -0.56832791366E+03  0.57038332107E+03  0.47000000000E+01 0.  1.
         13    1    6    6    0    0  0.69062930893E+02  0.16041999775E+02 -0.57304781688E+03  0.57741738336E+03  0.00000000000E+00 0. -1.
        -14    1    6    6    0    0  0.71274208226E+01  0.80178975743E-01 -0.29121656609E+00  0.71338182861E+01  0.00000000000E+00 0.  1.
</event>
<event>
12    1  0.1046899E+000  0.1897760E+03  0.7818608E-02  0.1158701E+00
         21   -1    0    0  501  502  0.00000000000E+00  0.00000000000E+00  0.99142995106E+02  0.99142995106E+02  0.00000000000E+00 0. -1.
         21   -1    0    0  502  503 -0.00000000000E+00 -0.00000000000E+00 -0.36373890963E+03  0.36373890963E+03  0.00000000000E+00 0. -1.
         -6    2    1    2    0  503  0.23229648610E+02  0.76732497634E+02 -0.12151587762E+03  0.22534649190E+03  0.17201000008E+03 0.  0.
        -24    2    3    3    0    0  0.17656471572E+02  0.10467863223E+03 -0.13822776350E+03  0.19197848520E+03  0.80495075283E+02 0.  0.
          6    2    1    2  501    0 -0.23229648610E+02 -0.76732497634E+02 -0.14308003691E+03  0.23753541284E+03  0.17182456933E+03 0.  0.
         24    2    5    5    0    0 -0.65543300945E+02 -0.65351881245E+02 -0.45379859426E+02  0.13035622511E+03  0.79791109167E+02 0.  0.
          5    1    5    5  501    0  0.42313652334E+02 -0.11380616389E+02 -0.97700177483E+02  0.10717918773E+03  0.47000000000E+01 0. -1.
        -11    1    6    6    0    0  0.74977412857E+01 -0.36404242693E+02  0.42734128467E+01  0.37413193766E+02  0.00000000000E+00 0.  1.
         12    1    6    6    0    0 -0.73041042230E+02 -0.28947638552E+02 -0.49653272272E+02  0.92943031343E+02  0.00000000000E+00 0. -1.
         -5    1    3    3    0  503  0.55731770388E+01 -0.27946134599E+02  0.16711885875E+02  0.33368006696E+02  0.47000000000E+01 0.  1.
         13    1    4    4    0    0 -0.77762770341E+01  0.87697661153E+02 -0.56235607851E+02  0.10446910475E+03  0.00000000000E+00 0. -1.
        -14    1    4    4    0    0  0.25432748606E+02  0.16980971080E+02 -0.81992155644E+02  0.87509380455E+02  0.00000000000E+00 0.  1.
</event>
<event>
12    1  0.1046899E+000  0.1824903E+03  0.7818608E-02  0.1165722E+00
         21   -1    0    0  501  502  0.00000000000E+00  0.00000000000E+00  0.41213574151E+02  0.41213574151E+02  0.00000000000E+00 0. -1.
         21   -1    0    0  502  503 -0.00000000000E+00 -0.00000000000E+00 -0.84488623098E+03  0.84488623098E+03  0.00000000000E+00 0. -1.
         -6    2    1    2    0  503 -0.18924459647E+02  0.55936277229E+02 -0.30378378379E+03  0.35438300266E+03  0.17267229945E+03 0.  0.
        -24    2    3    3    0    0 -0.66391718163E+02 -0.26188675723E+01 -0.16797549725E+03  0.19898729388E+03  0.83459311898E+02 0.  0.
          6    2    1    2  501    0  0.18924459647E+02 -0.55936277229E+02 -0.49988887304E+03  0.53171680247E+03  0.17130928275E+03 0.  0.
         24    2    5    5    0    0 -0.13492496698E+02 -0.94577143181E+02 -0.42158794638E+03  0.43845855513E+03  0.73366372131E+02 0.  0.
          5    1    5    5  501    0  0.32416956345E+02  0.38640865952E+02 -0.78300926663E+02  0.93258247337E+02  0.47000000000E+01 0. -1.
        -11    1    6    6    0    0 -0.43681119053E+02 -0.51941434443E+02 -0.22157401090E+03  0.23173475156E+03  0.00000000000E+00 0.  1.
         12    1    6    6    0    0  0.30188622355E+02 -0.42635708738E+02 -0.20001393548E+03  0.20672380358E+03  0.00000000000E+00 0. -1.
         -5    1    3    3    0  503  0.47467258516E+02  0.58555144801E+02 -0.13580828654E+03  0.15539570878E+03  0.47000000000E+01 0.  1.
         13    1    4    4    0    0  0.14095489727E+02  0.18296807867E+02 -0.29589768159E+02  0.37536787136E+02  0.00000000000E+00 0. -1.
        -14    1    4    4    0    0 -0.80487207890E+02 -0.20915675439E+02 -0.13838572909E+03  0.16145050675E+03  0.00000000000E+00 0.  1.
</event>
<event>
12    1  0.1046899E+000  0.2583983E+03  0.7818608E-02  0.1108507E+00
         21   -1    0    0  501  502  0.00000000000E+00  0.00000000000E+00  0.15520932224E+03  0.15520932224E+03  0.00000000000E+00 0. -1.
         21   -1    0    0  502  503 -0.00000000000E+00 -0.00000000000E+00 -0.42789913470E+03  0.42789913470E+03  0.00000000000E+00 0. -1.
         -6    2    1    2    0  503 -0.43130920273E+02  0.18757240828E+03 -0.11552485611E+03  0.28066752939E+03  0.16847725378E+03 0.  0.
        -24    2    3    3    0    0  0.46400307341E+01  0.18671778369E+03 -0.11392228251E+03  0.23263158050E+03  0.79082900588E+02 0.  0.
          6    2    1    2  501    0  0.43130920273E+02 -0.18757240828E+03 -0.15716495635E+03  0.30244092756E+03  0.17241231547E+03 0.  0.
         24    2    5    5    0    0  0.31040790522E+02 -0.18263842901E+03 -0.71003973561E+02  0.21516939529E+03  0.83282519074E+02 0.  0.
          5    1    5    5  501    0  0.12090129751E+02 -0.49339792752E+01 -0.86160982785E+02  0.87271532262E+02  0.47000000000E+01 0. -1.
        -13    1    6    6    0    0 -0.14581267629E+02 -0.78218726849E+01 -0.22811527930E+02  0.28180859896E+02  0.00000000000E+00 0.  1.
         14    1    6    6    0    0  0.45622058151E+02 -0.17481655632E+03 -0.48192445631E+02  0.18698853540E+03  0.00000000000E+00 0. -1.
         -5    1    3    3    0  503 -0.47770951007E+02  0.85462459673E+00 -0.16025735992E+01  0.48035948886E+02  0.47000000000E+01 0.  1.
         11    1    4    4    0    0  0.30846946376E+02  0.62820821612E+02 -0.14125795263E+02  0.71396973469E+02  0.00000000000E+00 0. -1.
        -12    1    4    4    0    0 -0.26206915642E+02  0.12389696207E+03 -0.99796487250E+02  0.16123460704E+03  0.00000000000E+00 0.  1.
</event>
<event>
12    1  0.1046899E+000  0.3029712E+03  0.7818608E-02  0.1083835E+00
         21   -1    0    0  503  502  0.00000000000E+00  0.00000000000E+00  0.51903277466E+03  0.51903277466E+03  0.00000000000E+00 0.  1.
         21   -1    0    0  501  503 -0.00000000000E+00 -0.00000000000E+00 -0.22338347894E+03  0.22338347894E+03  0.00000000000E+00 0. -1.
          6    2    1    2  501    0 -0.13596637204E+03 -0.20893121625E+03  0.31796443564E+03  0.43919574606E+03  0.17219876183E+03 0.  0.
         24    2    3    3    0    0 -0.30962038566E+02 -0.74514153919E+02  0.20522183601E+03  0.23467963309E+03  0.80296458481E+02 0.  0.
         -6    2    1    2    0  502  0.13596637204E+03  0.20893121625E+03 -0.22315139912E+02  0.30322050754E+03  0.17118879425E+03 0.  0.
        -24    2    5    5    0    0  0.90722811942E+02  0.50339839137E+02  0.22564121450E+02  0.13223968193E+03  0.78825540851E+02 0.  0.
          5    1    3    3  501    0 -0.10500433347E+03 -0.13441706233E+03  0.11274259963E+03  0.20451611297E+03  0.47000000000E+01 0. -1.
        -13    1    4    4    0    0 -0.51760479183E+02 -0.77018975375E+02  0.16368430913E+03  0.18815850454E+03  0.00000000000E+00 0.  1.
         14    1    4    4    0    0  0.20798440617E+02  0.25048214567E+01  0.41537526879E+02  0.46521128553E+02  0.00000000000E+00 0. -1.
         -5    1    5    5    0  502  0.45243560096E+02  0.15859137712E+03 -0.44879261361E+02  0.17098082561E+03  0.47000000000E+01 0.  1.
         11    1    6    6    0    0  0.99117880068E+02  0.39265415796E+02  0.10374559944E+01  0.10661708748E+03  0.00000000000E+00 0. -1.
        -12    1    6    6    0    0 -0.83950681264E+01  0.11074423341E+02  0.21526665455E+02  0.25622594459E+02  0.00000000000E+00 0.  1.
</event>
<event>
12    1  0.1046899E+000  0.2276283E+03  0.7818608E-02  0.1128391E+00
         21   -1    0    0  503  502  0.00000000000E+00  0.00000000000E+00  0.12260535296E+03  0.12260535296E+03  0.00000000000E+00 0. -1.
         21   -1    0    0  501  503 -0.00000000000E+00 -0.00000000000E+00 -0.63546158977E+03  0.63546158977E+03  0.00000000000E+00 0.  1.
          6    2    1    2  501    0  0.54923812710E+02 -0.13885963455E+03 -0.47602294571E+03  0.52747782340E+03  0.17127867943E+03 0.  0.
         24    2    3    3    0    0 -0.18980095312E+02 -0.12112210905E+02 -0.17757689173E+03  0.19488372520E+03  0.77065973039E+02 0.  0.
         -6    2    1    2    0  502 -0.54923812710E+02  0.13885963455E+03 -0.36833291098E+02  0.23058911934E+03  0.17180229135E+03 0.  0.
        -24    2    5    5    0    0 -0.29757182332E+02  0.33072245196E+02  0.37508368754E+02  0.98782050402E+02  0.79823257591E+02 0.  0.
          5    1    3    3  501    0  0.73903908022E+02 -0.12674742365E+03 -0.29844605398E+03  0.33259409820E+03  0.47000000000E+01 0. -1.
        -13    1    4    4    0    0  0.97501547745E+01 -0.38981438915E+02 -0.76264619411E+02  0.86202727753E+02  0.00000000000E+00 0.  1.
         14    1    4    4    0    0 -0.28730250086E+02  0.26869228010E+02 -0.10131227232E+03  0.10868099745E+03  0.00000000000E+00 0. -1.
         -5    1    5    5    0  502 -0.25166630378E+02  0.10578738936E+03 -0.74341659852E+02  0.13180706893E+03  0.47000000000E+01 0.  1.
         13    1    6    6    0    0  0.14898224202E+02  0.43082359782E+02  0.17356954067E+02  0.48778178146E+02  0.00000000000E+00 0. -1.
        -14    1    6    6    0    0 -0.44655406534E+02 -0.10010114585E+02  0.20151414687E+02  0.50003872256E+02  0.00000000000E+00 0.  1.
</event>
<event>
12    1  0.1046899E+000  0.1941423E+03  0.7818608E-02  0.1154815E+00
         21   -1    0    0  501  502  0.00000000000E+00  0.00000000000E+00  0.14688506718E+03  0.14688506718E+03  0.00000000000E+00 0. -1.
         21   -1    0    0  502  503 -0.00000000000E+00 -0.00000000000E+00 -0.33612583249E+03  0.33612583249E+03  0.00000000000E+00 0. -1.
         -6    2    1    2    0  503 -0.91041100930E+02  0.74228365501E+01 -0.21222360166E+03  0.28751300023E+03  0.17111775955E+03 0.  0.
        -24    2    3    3    0    0 -0.44075058685E+02  0.23942085048E+02 -0.21748443834E+03  0.23722919470E+03  0.80388902633E+02 0.  0.
          6    2    1    2  501    0  0.91041100930E+02 -0.74228365501E+01  0.22982836353E+02  0.19549789945E+03  0.17131152139E+03 0.  0.
         24    2    5    5    0    0  0.11555574448E+03 -0.15741479871E+02 -0.22686640070E+02  0.14279155588E+03  0.79207452435E+02 0.  0.
          5    1    5    5  501    0 -0.24514643554E+02  0.83186433212E+01  0.45669476423E+02  0.52706343566E+02  0.47000000000E+01 0. -1.
        -11    1    6    6    0    0  0.65630320019E+02 -0.63937970441E+01  0.27446030012E+02  0.71424814384E+02  0.00000000000E+00 0.  1.
         12    1    6    6    0    0  0.49925424465E+02 -0.93476828272E+01 -0.50132670081E+02  0.71366741496E+02  0.00000000000E+00 0. -1.
         -5    1    3    3    0  503 -0.46966042245E+02 -0.16519248498E+02  0.52608366759E+01  0.50283805520E+02  0.47000000000E+01 0.  1.
         13    1    4    4    0    0 -0.14500116003E+01  0.43834611117E+02 -0.13871813771E+03  0.14548641653E+03  0.00000000000E+00 0. -1.
        -14    1    4    4    0    0 -0.42625047084E+02 -0.19892526069E+02 -0.78766300631E+02  0.91742778176E+02  0.00000000000E+00 0.  1.
</event>
<event>
12    1  0.1046899E+000  0.2141049E+03  0.7818608E-02  0.1138456E+00
         21   -1    0    0  501  502  0.00000000000E+00  0.00000000000E+00  0.44430558665E+03  0.44430558665E+03  0.00000000000E+00 0. -1.
         21   -1    0    0  502  503 -0.00000000000E+00 -0.00000000000E+00 -0.11854882069E+03  0.11854882069E+03  0.00000000000E+00 0. -1.
         -6    2    1    2    0  503  0.11185582757E+03 -0.59172200822E+02  0.60880023743E+02  0.22259219490E+03  0.17270736066E+03 0.  0.
        -24    2    3    3    0    0  0.11057741474E+03  0.10872987990E+02  0.66460384350E+02  0.15215645653E+03  0.79931333385E+02 0.  0.
          6    2    1    2  501    0 -0.11185582757E+03  0.59172200822E+02  0.26487674222E+03  0.34026221244E+03  0.17206280579E+03 0.  0.
         24    2    5    5    0    0  0.70653361374E+01  0.34688276448E+01  0.12314645014E+03  0.14698863781E+03  0.79866511889E+02 0.  0.
          5    1    5    5  501    0 -0.11892116371E+03  0.55703373177E+02  0.14173029208E+03  0.19327357464E+03  0.47000000000E+01 0. -1.
        -13    1    6    6    0    0  0.14462338481E+02  0.38178468975E+02  0.88157252092E+02  0.97151715497E+02  0.00000000000E+00 0.  1.
         14    1    6    6    0    0 -0.73970023438E+01 -0.34709641331E+02  0.34989198050E+02  0.49836922308E+02  0.00000000000E+00 0. -1.
         -5    1    3    3    0  503  0.12784128311E+01 -0.70045188812E+02 -0.55803606071E+01  0.70435738369E+02  0.47000000000E+01 0.  1.
         13    1    4    4    0    0  0.11931790772E+03  0.22459627177E+02  0.53422922530E+02  0.13264692460E+03  0.00000000000E+00 0. -1.
        -14    1    4    4    0    0 -0.87404929792E+01 -0.11586639187E+02  0.13037461820E+02  0.19509531923E+02  0.00000000000E+00 0.  1.
</event>
<event>
12    1  0.1046899E+000  0.2145143E+03  0.7818608E-02  0.1138257E+00
         21   -1    0    0  503  502  0.00000000000E+00  0.00000000000E+00  0.47986832863E+02  0.47986832863E+02  0.00000000000E+00 0. -1.
         21   -1    0    0  501  503 -0.00000000000E+00 -0.00000000000E+00 -0.95423097106E+03  0.95423097106E+03  0.00000000000E+00 0. -1.
          6    2    1    2  501    0 -0.17669586113E+02  0.12591551406E+03 -0.44547299399E+03  0.49443157841E+03  0.17276998120E+03 0.  0.
         24    2    3    3    0    0 -0.27923985374E+02  0.15086297171E+03 -0.42692239641E+03  0.46135979258E+03  0.83968687406E+02 0.  0.
         -6    2    1    2    0  502  0.17669586113E+02 -0.12591551406E+03 -0.46077114421E+03  0.50778622551E+03  0.17137640599E+03 0.  0.
        -24    2    5    5    0    0  0.61919871169E+02 -0.74899576876E+02 -0.39031818839E+03  0.41008042959E+03  0.79835164420E+02 0.  0.
          5    1    3    3  501    0  0.10254399261E+02 -0.24947457650E+02 -0.18550597579E+02  0.33071785829E+02  0.47000000000E+01 0. -1.
        -11    1    4    4    0    0 -0.23463817890E+02  0.71429265458E+02 -0.31621566756E+03  0.32503082796E+03  0.00000000000E+00 0.  1.
         12    1    4    4    0    0 -0.44601674844E+01  0.79433706249E+02 -0.11070672884E+03  0.13632896462E+03  0.00000000000E+00 0. -1.
         -5    1    5    5    0  502 -0.44250285056E+02 -0.51015937181E+02 -0.70452955818E+02  0.97705795926E+02  0.47000000000E+01 0.  1.
         11    1    6    6    0    0  0.70672931050E+02 -0.25141506610E+02 -0.24536549036E+03  0.25657549064E+03  0.00000000000E+00 0. -1.
        -12    1    6    6    0    0 -0.87530598810E+01 -0.49758070266E+02 -0.14495269803E+03  0.15350493895E+03  0.00000000000E+00 0.  1.
</event>
<event>
12    1  0.1046899E+000  0.1822133E+03  0.7818608E-02  0.1167036E+00
         21   -1    0    0  503  502  0.00000000000E+00  0.00000000000E+00  0.14013223367E+04  0.14013223367E+04  0.00000000000E+00 0.  1.
         21   -1    0    0  501  503 -0.00000000000E+00 -0.00000000000E+00 -0.26102329077E+02  0.26102329077E+02  0.00000000000E+00 0.  1.
          6    2    1    2  501    0  0.54023806419E+02  0.31102916113E+02  0.43091096250E+03  0.46569639199E+03  0.16523591878E+03 0.  0.
         24    2    3    3    0    0  0.48375679325E+02 -0.33109358478E+02  0.17134639163E+03  0.19820625386E+03  0.80558656725E+02 0.  0.
         -6    2    1    2    0  502 -0.54023806419E+02 -0.31102916113E+02  0.94430904515E+03  0.96172827382E+03  0.17121838937E+03 0.  0.
        -24    2    5    5    0    0  0.19405212703E+02  0.29518868733E+01  0.32630168626E+03  0.33842518856E+03  0.87598754992E+02 0.  0.
          5    1    3    3  501    0  0.56481270947E+01  0.64212274590E+02  0.25956457087E+03  0.26749013813E+03  0.47000000000E+01 0. -1.
        -13    1    4    4    0    0 -0.20487533231E+02 -0.67641937259E+01  0.67376695845E+02  0.70746819558E+02  0.00000000000E+00 0.  1.
         14    1    4    4    0    0  0.68863212556E+02 -0.26345164752E+02  0.10396969579E+03  0.12745943430E+03  0.00000000000E+00 0. -1.
         -5    1    5    5    0  502 -0.73429019123E+02 -0.34054802986E+02  0.61800735889E+03  0.62330308526E+03  0.47000000000E+01 0.  1.
         11    1    6    6    0    0 -0.78610784487E+01 -0.10061007666E+02  0.22457754779E+01  0.12963947590E+02  0.00000000000E+00 0. -1.
        -12    1    6    6    0    0  0.27266291152E+02  0.13012894539E+02  0.32405591078E+03  0.32546124097E+03  0.00000000000E+00 0.  1.
</event>
<event>
12    1  0.1046899E+000  0.3988741E+03  0.7818608E-02  0.1044414E+00
         21   -1    0    0  501  502  0.00000000000E+00  0.00000000000E+00  0.33548384327E+03  0.33548384327E+03  0.00000000000E+00 0. -1.
         21   -1    0    0  502  503 -0.00000000000E+00 -0.00000000000E+00 -0.47098298131E+03  0.47098298131E+03  0.00000000000E+00 0. -1.
         -6    2    1    2    0  503 -0.15388755759E+03 -0.32185731934E+03 -0.63367540407E+02  0.40387622429E+03  0.17840135924E+03 0.  0.
        -24    2    3    3    0    0 -0.11656601004E+03 -0.24715988747E+03 -0.11314528900E+03  0.30654936010E+03  0.80591619173E+02 0.  0.
          6    2    1    2  501    0  0.15388755759E+03  0.32185731934E+03 -0.72131597634E+02  0.40259060029E+03  0.17205438000E+03 0.  0.
         24    2    5    5    0    0  0.62144905351E+02  0.82163380388E+02 -0.67430187723E+02  0.14585320165E+03  0.78188975416E+02 0.  0.
          5    1    5    5  501    0  0.91742652239E+02  0.23969393895E+03 -0.47014099108E+01  0.25673739865E+03  0.47000000000E+01 0. -1.
        -13    1    6    6    0    0  0.58940849577E+02  0.69151356881E+02 -0.15441169499E+02  0.92164871957E+02  0.00000000000E+00 0.  1.
         14    1    6    6    0    0  0.32040557739E+01  0.13012023507E+02 -0.51989018223E+02  0.53688329691E+02  0.00000000000E+00 0. -1.
         -5    1    3    3    0  503 -0.37321547545E+02 -0.74697431869E+02  0.49777748594E+02  0.97326864195E+02  0.47000000000E+01 0.  1.
         13    1    4    4    0    0 -0.13322359205E+02 -0.46056053670E+02 -0.55336453734E+02  0.73217268771E+02  0.00000000000E+00 0. -1.
        -14    1    4    4    0    0 -0.10324365084E+03 -0.20110383380E+03 -0.57808835267E+02  0.23333209132E+03  0.00000000000E+00 0.  1.
</event>
<event>
12    1  0.1046899E+000  0.4254766E+03  0.7818608E-02  0.1035327E+00
         21   -1    0    0  501  502  0.00000000000E+00  0.00000000000E+00  0.19002257429E+03  0.19002257429E+03  0.00000000000E+00 0.  1.
         21   -1    0    0  502  503 -0.00000000000E+00 -0.00000000000E+00 -0.10901993904E+04  0.10901993904E+04  0.00000000000E+00 0. -1.
         -6    2    1    2    0  503 -0.38400271992E+03  0.61878558885E+02 -0.67824743519E+03  0.80065594832E+03  0.17246251564E+03 0.  0.
        -24    2    3    3    0    0 -0.17302777531E+03  0.82574399556E+02 -0.26812394168E+03  0.33896111946E+03  0.79038281326E+02 0.  0.
          6    2    1    2  501    0  0.38400271992E+03 -0.61878558885E+02 -0.22192938094E+03  0.47956601639E+03  0.17159215889E+03 0.  0.
         24    2    5    5    0    0  0.19228022923E+03  0.40297563951E-01 -0.17595527576E+03  0.27286050952E+03  0.80752154230E+02 0.  0.
          5    1    5    5  501    0  0.19172249069E+03 -0.61918856449E+02 -0.45974105180E+02  0.20670550686E+03  0.47000000000E+01 0. -1.
        -11    1    6    6    0    0  0.12090661159E+03 -0.38984742333E+02 -0.10191642696E+03  0.16286551797E+03  0.00000000000E+00 0.  1.
         12    1    6    6    0    0  0.71373617636E+02  0.39025039897E+02 -0.74038848807E+02  0.10999499155E+03  0.00000000000E+00 0. -1.
         -5    1    3    3    0  503 -0.21097494461E+03 -0.20695840671E+02 -0.41012349351E+03  0.46169482886E+03  0.47000000000E+01 0.  1.
         13    1    4    4    0    0 -0.15427070522E+02  0.38915118248E+02 -0.75056824156E+02  0.85941304304E+02  0.00000000000E+00 0. -1.
        -14    1    4    4    0    0 -0.15760070479E+03  0.43659281308E+02 -0.19306711752E+03  0.25301981516E+03  0.00000000000E+00 0.  1.
</event>
<event>
12    1  0.1046899E+000  0.2134284E+03  0.7818608E-02  0.1138886E+00
         21   -1    0    0  501  502  0.00000000000E+00  0.00000000000E+00  0.12684263834E+03  0.12684263834E+03  0.00000000000E+00 0.  1.
         21   -1    0    0  502  503 -0.00000000000E+00 -0.00000000000E+00 -0.35991996630E+03  0.35991996630E+03  0.00000000000E+00 0.  1.
         -6    2    1    2    0  503  0.45159607788E+02 -0.11940309195E+03 -0.10465004806E+03  0.23770426649E+03  0.17104150726E+03 0.  0.
        -24    2    3    3    0    0  0.16272735359E+02 -0.39044745694E+02 -0.11745127039E+03  0.15122955050E+03  0.85359720864E+02 0.  0.
          6    2    1    2  501    0 -0.45159607788E+02  0.11940309195E+03 -0.12842727990E+03  0.24905833815E+03  0.17099707904E+03 0.  0.
         24    2    5    5    0    0  0.26007370023E+02  0.80437787145E+02 -0.11974761715E+03  0.16732425558E+03  0.80692588225E+02 0.  0.
          5    1    5    5  501    0 -0.71166977810E+02  0.38965304804E+02 -0.86796627454E+01  0.81734082576E+02  0.47000000000E+01 0. -1.
        -11    1    6    6    0    0  0.97402127232E+01  0.78830896739E+02 -0.46004277290E+02  0.91790933940E+02  0.00000000000E+00 0.  1.
         12    1    6    6    0    0  0.16267157300E+02  0.16068904060E+01 -0.73743339864E+02  0.75533321638E+02  0.00000000000E+00 0. -1.
         -5    1    3    3    0  503  0.28886872428E+02 -0.80358346256E+02  0.12801222332E+02  0.86474715986E+02  0.47000000000E+01 0.  1.
         13    1    4    4    0    0 -0.30730907802E+02 -0.36657132658E+02 -0.52566823754E+02  0.71073237077E+02  0.00000000000E+00 0. -1.
        -14    1    4    4    0    0  0.47003643161E+02 -0.23876130358E+01 -0.64884446635E+02  0.80156313423E+02  0.00000000000E+00 0.  1.
</event>
<event>
12    1  0.1046899E+000  0.1849529E+03  0.7818608E-02  0.1163926E+00
         21   -1    0    0  503  502  0.00000000000E+00  0.00000000000E+00  0.68552748812E+02  0.68552748812E+02  0.00000000000E+00 0.  1.
         21   -1    0    0  501  503 -0.00000000000E+00 -0.00000000000E+00 -0.51349820029E+03  0.51349820029E+03  0.00000000000E+00 0.  1.
          6    2    1    2  501    0  0.62701764672E+02 -0.14263694976E+02 -0.16163919897E+03  0.24563147255E+03  0.17341460543E+03 0.  0.
         24    2    3    3    0    0  0.22804819469E+02  0.38783942481E+02 -0.38618441055E+02  0.10576719922E+03  0.87584601708E+02 0.  0.
         -6    2    1    2    0  502 -0.62701764672E+02  0.14263694976E+02 -0.28330625251E+03  0.33641947655E+03  0.16964865813E+03 0.  0.
        -24    2    5    5    0    0 -0.84753470010E+02  0.18049632574E+02 -0.28965726765E+03  0.31269108796E+03  0.79783731878E+02 0.  0.
          5    1    3    3  501    0  0.39896945203E+02 -0.53047637457E+02 -0.12302075791E+03  0.13986427333E+03  0.47000000000E+01 0. -1.
        -13    1    4    4    0    0  0.41507354610E+02  0.28727471519E+02  0.11116663803E+02  0.51688570503E+02  0.00000000000E+00 0.  1.
         14    1    4    4    0    0 -0.18702535141E+02  0.10056470963E+02 -0.49735104858E+02  0.54078628719E+02  0.00000000000E+00 0. -1.
         -5    1    5    5    0  502  0.22051705338E+02 -0.37859375987E+01  0.63510151404E+01  0.23728388591E+02  0.47000000000E+01 0.  1.
         11    1    6    6    0    0 -0.56480366242E+02 -0.93301121273E+01 -0.74448557706E+02  0.93913100831E+02  0.00000000000E+00 0. -1.
        -12    1    6    6    0    0 -0.28273103768E+02  0.27379744702E+02 -0.21520870994E+03  0.21877798713E+03  0.00000000000E+00 0.  1.
</event>
<event>
12    1  0.1046899E+000  0.1818067E+03  0.7818608E-02  0.1166158E+00
         21   -1    0    0  503  502  0.00000000000E+00  0.00000000000E+00  0.53449115074E+02  0.53449115074E+02  0.00000000000E+00 0. -1.
         21   -1    0    0  501  503 -0.00000000000E+00 -0.00000000000E+00 -0.65236394218E+03  0.65236394218E+03  0.00000000000E+00 0. -1.
          6    2    1    2  501    0  0.46640196289E+02  0.41588863142E+02 -0.38180642446E+03  0.42288277051E+03  0.17073005120E+03 0.  0.
         24    2    3    3    0    0 -0.23467991900E+02 -0.15390991654E+02 -0.17216421437E+03  0.19455448020E+03  0.86158573493E+02 0.  0.
         -6    2    1    2    0  502 -0.46640196289E+02 -0.41588863142E+02 -0.21710840264E+03  0.28293028675E+03  0.17031895729E+03 0.  0.
        -24    2    5    5    0    0 -0.96494108727E+02 -0.32711271010E+02 -0.14022433522E+03  0.19074854208E+03  0.79630407797E+02 0.  0.
          5    1    3    3  501    0  0.70108188189E+02  0.56979854796E+02 -0.20964221009E+03  0.22832829031E+03  0.47000000000E+01 0. -1.
        -13    1    4    4    0    0 -0.10103304756E+02  0.19038776604E+02 -0.34288531265E+01  0.21824500345E+02  0.00000000000E+00 0.  1.
         14    1    4    4    0    0 -0.13364687144E+02 -0.34429768258E+02 -0.16873536125E+03  0.17272997985E+03  0.00000000000E+00 0. -1.
         -5    1    5    5    0  502  0.49853912438E+02 -0.88775921321E+01 -0.76884067418E+02  0.92181744669E+02  0.47000000000E+01 0.  1.
         11    1    6    6    0    0 -0.11839892026E+02  0.75587079910E+01  0.73980938092E+01  0.15876048050E+02  0.00000000000E+00 0. -1.
        -12    1    6    6    0    0 -0.84654216701E+02 -0.40269979001E+02 -0.14762242903E+03  0.17487249403E+03  0.00000000000E+00 0.  1.
</event>
<event>
12    1  0.1046899E+000  0.3320004E+03  0.7818608E-02  0.1070257E+00
         21   -1    0    0  501  502  0.00000000000E+00  0.00000000000E+00  0.23562473056E+03  0.23562473056E+03  0.00000000000E+00 0.  1.
         21   -1    0    0  502  503 -0.00000000000E+00 -0.00000000000E+00 -0.47313151087E+03  0.47313151087E+03  0.00000000000E+00 0.  1.
         -6    2    1    2    0  503  0.28337478027E+03 -0.21300081713E+02 -0.81052476201E+02  0.34173821681E+03  0.17164074503E+03 0.  0.
        -24    2    3    3    0    0  0.22450036037E+03  0.43723882082E+02 -0.73367366207E+02  0.25355962473E+03  0.81225138947E+02 0.  0.
          6    2    1    2  501    0 -0.28337478027E+03  0.21300081713E+02 -0.15645430411E+03  0.36701802462E+03  0.17166630871E+03 0.  0.
         24    2    5    5    0    0 -0.29418670215E+03  0.42447875005E+02 -0.14350648652E+03  0.33956146263E+03  0.79751096629E+02 0.  0.
          5    1    5    5  501    0  0.10811921882E+02 -0.21147793292E+02 -0.12947817597E+02  0.27456561992E+02  0.47000000000E+01 0. -1.
        -11    1    6    6    0    0 -0.40250450954E+02  0.29847500561E+02 -0.58798667244E+01  0.50453393587E+02  0.00000000000E+00 0.  1.
         12    1    6    6    0    0 -0.25393625120E+03  0.12600374444E+02 -0.13762661979E+03  0.28910806904E+03  0.00000000000E+00 0. -1.
         -5    1    3    3    0  503  0.58874419902E+02 -0.65023963795E+02 -0.76851099944E+01  0.88178592085E+02  0.47000000000E+01 0.  1.
         11    1    4    4    0    0  0.95882801013E+02 -0.67509496064E+01 -0.63163427970E+02  0.11501610967E+03  0.00000000000E+00 0. -1.
        -12    1    4    4    0    0  0.12861755936E+03  0.50474831688E+02 -0.10203938237E+02  0.13854351506E+03  0.00000000000E+00 0.  1.
</event>
<event>
12    1  0.1046899E+000  0.2902447E+03  0.7818608E-02  0.1090264E+00
         21   -1    0    0  503  502  0.00000000000E+00  0.00000000000E+00  0.49931859566E+03  0.49931859566E+03  0.00000000000E+00 0.  1.
         21   -1    0    0  501  503 -0.00000000000E+00 -0.00000000000E+00 -0.19607028401E+03  0.19607028401E+03  0.00000000000E+00 0.  1.
          6    2    1    2  501    0  0.49647133514E+02  0.22839319173E+03  0.21226040761E+02  0.29069322253E+03  0.17153342801E+03 0.  0.
         24    2    3    3    0    0 -0.34481512988E+02  0.85723870320E+02 -0.54121462419E+01  0.12287234350E+03  0.80813147378E+02 0.  0.
         -6    2    1    2    0  502 -0.49647133514E+02 -0.22839319173E+03  0.28202227089E+03  0.40469565714E+03  0.17208639033E+03 0.  0.
        -24    2    5    5    0    0 -0.11158888522E+02 -0.17864097320E+03  0.11647398101E+03  0.22753766400E+03  0.78549870698E+02 0.  0.
          5    1    3    3  501    0  0.84128646502E+02  0.14266932141E+03  0.26638187003E+02  0.16782087903E+03  0.47000000000E+01 0. -1.
        -13    1    4    4    0    0 -0.12510765526E+02  0.16850332947E+02  0.34433877640E+02  0.40325487025E+02  0.00000000000E+00 0.  1.
         14    1    4    4    0    0 -0.21970747461E+02  0.68873537374E+02 -0.39846023882E+02  0.82546856473E+02  0.00000000000E+00 0. -1.
         -5    1    5    5    0  502 -0.38488244992E+02 -0.49752218524E+02  0.16554828988E+03  0.17715799314E+03  0.47000000000E+01 0.  1.
         11    1    6    6    0    0  0.31723383413E+02 -0.11039568091E+03  0.69127836507E+02  0.13406057287E+03  0.00000000000E+00 0. -1.
        -12    1    6    6    0    0 -0.42882271935E+02 -0.68245292291E+02  0.47346144503E+02  0.93477091127E+02  0.00000000000E+00 0.  1.
</event>
<event>
12    1  0.1046899E+000  0.1805993E+03  0.7818608E-02  0.1167784E+00
         21   -1    0    0  503  502  0.00000000000E+00  0.00000000000E+00  0.13493326105E+03  0.13493326105E+03  0.00000000000E+00 0.  1.
         21   -1    0    0  501  503 -0.00000000000E+00 -0.00000000000E+00 -0.32931195337E+03  0.32931195337E+03  0.00000000000E+00 0.  1.
          6    2    1    2  501    0  0.43246873040E+02  0.34200154762E+02 -0.21853506462E+03  0.28203757873E+03  0.16955140440E+03 0.  0.
         24    2    3    3    0    0  0.65678919729E+01  0.23791627782E+02 -0.22743940784E+03  0.24260329905E+03  0.80737213917E+02 0.  0.
         -6    2    1    2    0  502 -0.43246873040E+02 -0.34200154762E+02  0.24156372294E+02  0.18220763569E+03  0.17197717746E+03 0.  0.
        -24    2    5    5    0    0 -0.85377097150E+02  0.81996434759E+00  0.46275572683E+02  0.12293948613E+03  0.75384133369E+02 0.  0.
          5    1    3    3  501    0  0.36678981067E+02  0.10408526981E+02  0.89043432237E+01  0.39434279685E+02  0.47000000000E+01 0. -1.
        -13    1    4    4    0    0  0.42535540885E+02  0.17845662693E+02 -0.10142623110E+03  0.11142270985E+03  0.00000000000E+00 0.  1.
         14    1    4    4    0    0 -0.35967648912E+02  0.59459650886E+01 -0.12601317674E+03  0.13118058919E+03  0.00000000000E+00 0. -1.
         -5    1    5    5    0  502  0.42130224110E+02 -0.35020119110E+02 -0.22119200390E+02  0.59268149557E+02  0.47000000000E+01 0.  1.
         11    1    6    6    0    0  0.88435007682E+01 -0.10295643860E+02 -0.57466623054E+01  0.14738789502E+02  0.00000000000E+00 0. -1.
        -12    1    6    6    0    0 -0.94220597918E+02  0.11115608208E+02  0.52022234989E+02  0.10820069663E+03  0.00000000000E+00 0.  1.
</event>
<event>
12    1  0.1046899E+000  0.2316457E+03  0.7818608E-02  0.1125495E+00
         21   -1    0    0  501  502  0.00000000000E+00  0.00000000000E+00  0.23169013250E+03  0.23169013250E+03  0.00000000000E+00 0.  1.
         21   -1    0    0  502  503 -0.00000000000E+00 -0.00000000000E+00 -0.26873981768E+03  0.26873981768E+03  0.00000000000E+00 0.  1.
         -6    2    1    2    0  503  0.14519462229E+03 -0.51475313824E+02  0.74553353251E+02  0.24330161160E+03  0.17293433855E+03 0.  0.
        -24    2    3    3    0    0  0.66034397727E+02  0.23183708169E+02 -0.86832849293E+01  0.10622229641E+03  0.79433939907E+02 0.  0.
          6    2    1    2  501    0 -0.14519462229E+03  0.51475313824E+02 -0.11160303843E+03  0.25712833859E+03  0.17299872266E+03 0.  0.
         24    2    5    5    0    0 -0.58971025413E+01  0.41278295262E+02 -0.28971052775E+02  0.94777135179E+02  0.80029431934E+02 0.  0.
          5    1    5    5  501    0 -0.13929751975E+03  0.10197018562E+02 -0.82631985652E+02  0.16235120341E+03  0.47000000000E+01 0. -1.
        -13    1    6    6    0    0  0.79228207343E+01  0.77022698832E+01  0.26368146467E+02  0.28589774358E+02  0.00000000000E+00 0.  1.
         14    1    6    6    0    0 -0.13819923276E+02  0.33576025379E+02 -0.55339199242E+02  0.66187360820E+02  0.00000000000E+00 0. -1.
         -5    1    3    3    0  503  0.79160224561E+02 -0.74659021992E+02  0.83236638180E+02  0.13707931519E+03  0.47000000000E+01 0.  1.
         11    1    4    4    0    0 -0.13831262942E+02  0.17937836205E+02  0.87945662677E+01  0.24298440240E+02  0.00000000000E+00 0. -1.
        -12    1    4    4    0    0  0.79865660669E+02  0.52458719642E+01 -0.17477851197E+02  0.81923856167E+02  0.00000000000E+00 0.  1.
</event>
<event>
12    1  0.1270905E+000  0.3678131E+03  0.7818608E-02  0.1055544E+00
         21   -1    0    0  501  502  0.00000000000E+00  0.00000000000E+00  0.86472527482E+03  0.86472527482E+03  0.00000000000E+00 0.  1.
         21   -1    0    0  502  503 -0.00000000000E+00 -0.00000000000E+00 -0.44167595696E+03  0.44167595696E+03  0.00000000000E+00 0.  1.
         -6    2    1    2    0  503 -0.11573894463E+03  0.30333292135E+03  0.73647608132E+03  0.82315922777E+03  0.17259122638E+03 0.  0.
        -24    2    3    3    0    0 -0.12842737676E+03  0.30095355610E+03  0.61747205310E+03  0.70336479375E+03  0.79897826590E+02 0.  0.
          6    2    1    2  501    0  0.11573894463E+03 -0.30333292135E+03 -0.31342676345E+03  0.48324200401E+03  0.17285871083E+03 0.  0.
         24    2    5    5    0    0  0.48842034157E+02 -0.16620189029E+03 -0.84267039002E+02  0.20789425003E+03  0.78169512575E+02 0.  0.
          5    1    5    5  501    0  0.66896910474E+02 -0.13713103106E+03 -0.22915972445E+03  0.27534775398E+03  0.47000000000E+01 0. -1.
        -11    1    6    6    0    0 -0.14476770680E+02 -0.24736368727E+02 -0.35052802543E+02  0.45278734449E+02  0.00000000000E+00 0.  1.
         12    1    6    6    0    0  0.63318804837E+02 -0.14146552157E+03 -0.49214236458E+02  0.16261551558E+03  0.00000000000E+00 0. -1.
         -5    1    3    3    0  503  0.12688432133E+02  0.23793652491E+01  0.11900402822E+03  0.11979443402E+03  0.47000000000E+01 0.  1.
         11    1    4    4    0    0 -0.67266626553E+02  0.24412133108E+03  0.45632979873E+03  0.52187825070E+03  0.00000000000E+00 0. -1.
        -12    1    4    4    0    0 -0.61160750212E+02  0.56832225017E+02  0.16114225437E+03  0.18148654305E+03  0.00000000000E+00 0.  1.
</event>
<event>
12    1  0.1046899E+000  0.1937410E+03  0.7818608E-02  0.1155214E+00
         21   -1    0    0  501  502  0.00000000000E+00  0.00000000000E+00  0.40652213332E+03  0.40652213332E+03  0.00000000000E+00 0.  1.
         21   -1    0    0  502  503 -0.00000000000E+00 -0.00000000000E+00 -0.12187216063E+03  0.12187216063E+03  0.00000000000E+00 0.  1.
         -6    2    1    2    0  503  0.27660816172E+02  0.84559688401E+02  0.11963036493E+02  0.19411001823E+03  0.17210497750E+03 0.  0.
        -24    2    3    3    0    0 -0.50224686986E+02  0.58737001837E+02  0.16756639417E+02  0.11178121784E+03  0.79004437411E+02 0.  0.
          6    2    1    2  501    0 -0.27660816172E+02 -0.84559688401E+02  0.27268693620E+03  0.33428427573E+03  0.17167512974E+03 0.  0.
         24    2    5    5    0    0 -0.41692616488E+02 -0.11295797034E+03  0.15304238298E+03  0.21042846055E+03  0.79752045054E+02 0.  0.
          5    1    5    5  501    0  0.14031800316E+02  0.28398281937E+02  0.11964455322E+03  0.12385581518E+03  0.47000000000E+01 0. -1.
        -11    1    6    6    0    0 -0.14039827194E+02 -0.78668152036E+01  0.74828424940E+02  0.76539510765E+02  0.00000000000E+00 0.  1.
         12    1    6    6    0    0 -0.27652789293E+02 -0.10509115513E+03  0.78213958036E+02  0.13388894979E+03  0.00000000000E+00 0. -1.
         -5    1    3    3    0  503  0.77885503158E+02  0.25822686564E+02 -0.47936029239E+01  0.82328800384E+02  0.47000000000E+01 0.  1.
         13    1    4    4    0    0 -0.36742045506E+02  0.75370276550E+02 -0.11683743929E+01  0.83857149927E+02  0.00000000000E+00 0. -1.
        -14    1    4    4    0    0 -0.13482641481E+02 -0.16633274713E+02  0.17925013810E+02  0.27924067918E+02  0.00000000000E+00 0.  1.
</event>
<event>
12    1  0.1046899E+000  0.1749636E+03  0.7818608E-02  0.1173106E+00
         21   -1    0    0  503  502  0.00000000000E+00  0.00000000000E+00  0.29810232181E+03  0.29810232181E+03  0.00000000000E+00 0.  1.
         21   -1    0    0  501  503 -0.00000000000E+00 -0.00000000000E+00 -0.10207928249E+03  0.10207928249E+03  0.00000000000E+00 0.  1.
          6    2    1    2  501    0  0.18466845767E+02 -0.24856227320E+02  0.89371650131E+02  0.19527480219E+03  0.17083939854E+03 0.  0.
         24    2    3    3    0    0 -0.50890193057E+02 -0.26736595467E+02  0.75323836629E+02  0.12432858536E+03  0.80493847502E+02 0.  0.
         -6    2    1    2    0  502 -0.18466845767E+02  0.24856227320E+02  0.10665138919E+03  0.20490680212E+03  0.17220169078E+03 0.  0.
        -24    2    5    5    0    0 -0.55501486277E+02  0.55708946021E+02  0.11006907587E+03  0.15635553611E+03  0.78408867878E+02 0.  0.
          5    1    3    3  501    0  0.69357038824E+02  0.18803681471E+01  0.14047813502E+02  0.70946216834E+02  0.47000000000E+01 0. -1.
        -11    1    4    4    0    0 -0.46672158344E+02  0.20341850464E+02  0.46594454031E+02  0.69015392423E+02  0.00000000000E+00 0.  1.
         12    1    4    4    0    0 -0.42180347126E+01 -0.47078445931E+02  0.28729382597E+02  0.55313192934E+02  0.00000000000E+00 0. -1.
         -5    1    5    5    0  502  0.37034640509E+02 -0.30852718701E+02 -0.34176866848E+01  0.48551266010E+02  0.47000000000E+01 0.  1.
         11    1    6    6    0    0 -0.55628423872E+02  0.41634153069E+02  0.12032079926E+03  0.13894250242E+03  0.00000000000E+00 0. -1.
        -12    1    6    6    0    0  0.12693759498E+00  0.14074792952E+02 -0.10251723386E+02  0.17413033687E+02  0.00000000000E+00 0.  1.
</event>
<event>
12    1  0.1046899E+000  0.2774864E+03  0.7818608E-02  0.1097084E+00
         21   -1    0    0  501  502  0.00000000000E+00  0.00000000000E+00  0.39329356121E+03  0.39329356121E+03  0.00000000000E+00 0.  1.
         21   -1    0    0  502  503 -0.00000000000E+00 -0.00000000000E+00 -0.97893555719E+03  0.97893555719E+03  0.00000000000E+00 0. -1.
         -6    2    1    2    0  503 -0.13375846609E+03 -0.17152361203E+03  0.32087887807E+03  0.42421920164E+03  0.17229915818E+03 0.  0.
        -24    2    3    3    0    0 -0.10907388358E+03 -0.10726935732E+03  0.11570662775E+03  0.20775747254E+03  0.79820527387E+02 0.  0.
          6    2    1    2  501    0  0.13375846609E+03  0.17152361203E+03 -0.90652087405E+03  0.94800991677E+03  0.17213666217E+03 0.  0.
         24    2    5    5    0    0  0.29562564126E+02  0.93482826322E+02 -0.26978215533E+03  0.29808266227E+03  0.80360924564E+02 0.  0.
          5    1    5    5  501    0  0.10419590196E+03  0.78040785712E+02 -0.63673871872E+03  0.64992725450E+03  0.47000000000E+01 0. -1.
        -13    1    6    6    0    0  0.53567393015E+02  0.38305487679E+02 -0.15700674235E+03  0.17025831294E+03  0.00000000000E+00 0.  1.
         14    1    6    6    0    0 -0.24004828889E+02  0.55177338642E+02 -0.11277541298E+03  0.12782434933E+03  0.00000000000E+00 0. -1.
         -5    1    3    3    0  503 -0.24684582509E+02 -0.64254254714E+02  0.20517225032E+03  0.21646172910E+03  0.47000000000E+01 0.  1.
         11    1    4    4    0    0 -0.47596593535E+02 -0.17171539114E+02  0.26595466037E+01  0.50669227937E+02  0.00000000000E+00 0. -1.
        -12    1    4    4    0    0 -0.61477290046E+02 -0.90097818206E+02  0.11304708115E+03  0.15708824461E+03  0.00000000000E+00 0.  1.
</event>
<event>
12    1  0.1046899E+000  0.1891650E+03  0.7818608E-02  0.1159565E+00
         21   -1    0    0  501  502  0.00000000000E+00  0.00000000000E+00  0.17956188072E+04  0.17956188072E+04  0.00000000000E+00 0. -1.
         21   -1    0    0  502  503 -0.00000000000E+00 -0.00000000000E+00 -0.19768230771E+02  0.19768230771E+02  0.00000000000E+00 0. -1.
         -6    2    1    2    0  503 -0.75680161168E+02  0.12691323151E+02  0.89716265258E+03  0.91688833665E+03  0.17290124417E+03 0.  0.
        -24    2    3    3    0    0 -0.32311888016E+01  0.26928836299E+02  0.71950895829E+03  0.72444487620E+03  0.79947700320E+02 0.  0.
          6    2    1    2  501    0  0.75680161168E+02 -0.12691323151E+02  0.87868792390E+03  0.89849870136E+03  0.17122760370E+03 0.  0.
         24    2    5    5    0    0  0.11536668676E+02 -0.11648575546E+02  0.75713982047E+03  0.76097958851E+03  0.74568373710E+02 0.  0.
          5    1    5    5  501    0  0.64143492492E+02 -0.10427476046E+01  0.12154810343E+03  0.13751911285E+03  0.47000000000E+01 0. -1.
        -11    1    6    6    0    0 -0.23491934888E+02 -0.25133151144E+02  0.49130366828E+03  0.49250669108E+03  0.00000000000E+00 0.  1.
         12    1    6    6    0    0  0.35028603564E+02  0.13484575597E+02  0.26583615218E+03  0.26847289743E+03  0.00000000000E+00 0. -1.
         -5    1    3    3    0  503 -0.72448972366E+02 -0.14237513148E+02  0.17765369428E+03  0.19244346045E+03  0.47000000000E+01 0.  1.
         11    1    4    4    0    0 -0.35277140150E+02  0.29313078542E+02  0.27709346381E+03  0.28086388318E+03  0.00000000000E+00 0. -1.
        -12    1    4    4    0    0  0.32045951348E+02 -0.23842422421E+01  0.44241549449E+03  0.44358099302E+03  0.00000000000E+00 0.  1.
</event>
<event>
12    1  0.1046899E+000  0.2192152E+03  0.7818608E-02  0.1134895E+00
         21   -1    0    0  503  502  0.00000000000E+00  0.00000000000E+00  0.15541762946E+03  0.15541762946E+03  0.00000000000E+00 0. -1.
         21   -1    0    0  501  503 -0.00000000000E+00 -0.00000000000E+00 -0.42337478170E+03  0.42337478170E+03  0.00000000000E+00 0. -1.
          6    2    1    2  501    0 -0.18429662678E+02  0.13122763699E+03 -0.28583658711E+03  0.35884924193E+03  0.17178439605E+03 0.  0.
         24    2    3    3    0    0  0.35681897495E+02  0.30891266396E+02 -0.18363471152E+03  0.20567365124E+03  0.79702417734E+02 0.  0.
         -6    2    1    2    0  502  0.18429662678E+02 -0.13122763699E+03  0.17879434871E+02  0.21994316923E+03  0.17462811435E+03 0.  0.
        -24    2    5    5    0    0  0.33005818174E+02 -0.12162588976E+03  0.70872907484E+02  0.16395159845E+03  0.77297584206E+02 0.  0.
          5    1    3    3  501    0 -0.54111560173E+02  0.10033637059E+03 -0.10220187559E+03  0.15317559069E+03  0.47000000000E+01 0. -1.
        -13    1    4    4    0    0  0.19565605542E+01  0.47706727720E+02 -0.14052224424E+03  0.14841246957E+03  0.00000000000E+00 0.  1.
         14    1    4    4    0    0  0.33725336940E+02 -0.16815461324E+02 -0.43112467281E+02  0.57261181671E+02  0.00000000000E+00 0. -1.
         -5    1    5    5    0  502 -0.14576155495E+02 -0.96017472214E+01 -0.52993472612E+02  0.55991570778E+02  0.47000000000E+01 0.  1.
         13    1    6    6    0    0  0.17439605682E+02 -0.52892290770E+02 -0.10103943968E+02  0.56602331692E+02  0.00000000000E+00 0. -1.
        -14    1    6    6    0    0  0.15566212492E+02 -0.68733598994E+02  0.80976851451E+02  0.10734926676E+03  0.00000000000E+00 0.  1.
</event>
<event>
12    1  0.1046899E+000  0.2600438E+03  0.7818608E-02  0.1107249E+00
         21   -1    0    0  501  502  0.00000000000E+00  0.00000000000E+00  0.23409147693E+03  0.23409147693E+03  0.00000000000E+00 0. -1.
         21   -1    0    0  502  503 -0.00000000000E+00 -0.00000000000E+00 -0.40418656759E+03  0.40418656759E+03  0.00000000000E+00 0. -1.
         -6    2    1    2    0  503  0.17126956873E+03  0.93629351178E+02  0.86239012683E+02  0.27313427570E+03  0.17048590757E+03 0.  0.
        -24    2    3    3    0    0  0.18780962373E+03  0.51345077755E+02  0.84077365425E+02  0.22743639920E+03  0.82155587317E+02 0.  0.
          6    2    1    2  501    0 -0.17126956873E+03 -0.93629351178E+02 -0.25633410335E+03  0.36514376881E+03  0.17182281218E+03 0.  0.
         24    2    5    5    0    0 -0.13691013115E+03  0.17250104263E+01 -0.16151374291E+03  0.22626966762E+03  0.79774141580E+02 0.  0.
          5    1    5    5  501    0 -0.34359437588E+02 -0.95354361604E+02 -0.94820360440E+02  0.13887410119E+03  0.47000000000E+01 0. -1.
        -13    1    6    6    0    0 -0.36919449308E+02  0.29470073628E+02 -0.21262263156E+02  0.51803617744E+02  0.00000000000E+00 0.  1.
         14    1    6    6    0    0 -0.99990681837E+02 -0.27745063201E+02 -0.14025147975E+03  0.17446604987E+03  0.00000000000E+00 0. -1.
         -5    1    3    3    0  503 -0.16540054998E+02  0.42284273423E+02  0.21616472580E+01  0.45697876505E+02  0.47000000000E+01 0.  1.
         13    1    4    4    0    0  0.12186130493E+03 -0.86453755071E+01  0.49437741785E+02  0.13179154173E+03  0.00000000000E+00 0. -1.
        -14    1    4    4    0    0  0.65948318799E+02  0.59990453262E+02  0.34639623641E+02  0.95644857473E+02  0.00000000000E+00 0.  1.
</event>
<event>
12    1  0.1046899E+000  0.5359534E+03  0.7818608E-02  0.1004833E+00
         21   -1    0    0  503  502  0.00000000000E+00  0.00000000000E+00  0.86282794498E+03  0.86282794498E+03  0.00000000000E+00 0. -1.
         21   -1    0    0  501  503 -0.00000000000E+00 -0.00000000000E+00 -0.62573375837E+03  0.62573375837E+03  0.00000000000E+00 0.  1.
          6    2    1    2  501    0  0.30488610089E+03  0.40568934194E+03 -0.39087774415E+03  0.66334866536E+03  0.17235621336E+03 0.  0.
         24    2    3    3    0    0  0.16260940884E+03  0.13314786396E+03 -0.12846554070E+03  0.25911634499E+03  0.80422083839E+02 0.  0.
         -6    2    1    2    0  502 -0.30488610089E+03 -0.40568934194E+03  0.62797193076E+03  0.82521303799E+03  0.17055332175E+03 0.  0.
        -24    2    5    5    0    0 -0.24390925223E+03 -0.34457781009E+03  0.59197529099E+03  0.73156132432E+03  0.80756644102E+02 0.  0.
          5    1    3    3  501    0  0.14227669205E+03  0.27254147798E+03 -0.26241220344E+03  0.40423232038E+03  0.47000000000E+01 0. -1.
        -13    1    4    4    0    0  0.99174020717E+01  0.46836868757E+02 -0.14809175622E+02  0.50113459484E+02  0.00000000000E+00 0.  1.
         14    1    4    4    0    0  0.15269200677E+03  0.86310995206E+02 -0.11365636508E+03  0.20900288550E+03  0.00000000000E+00 0. -1.
         -5    1    5    5    0  502 -0.60976848664E+02 -0.61111531858E+02  0.35996639771E+02  0.93651713673E+02  0.47000000000E+01 0.  1.
         13    1    6    6    0    0 -0.25314836058E+02 -0.73595293616E+02  0.73585266503E+02  0.10710695409E+03  0.00000000000E+00 0. -1.
        -14    1    6    6    0    0 -0.21859441617E+03 -0.27098251647E+03  0.51839002449E+03  0.62445437023E+03  0.00000000000E+00 0.  1.
</event>
<event>
12    1  0.1710120E+000  0.3399193E+03  0.7818608E-02  0.1067135E+00
         21   -1    0    0  501  502  0.00000000000E+00  0.00000000000E+00  0.65686562598E+03  0.65686562598E+03  0.00000000000E+00 0. -1.
         21   -1    0    0  502  503 -0.00000000000E+00 -0.00000000000E+00 -0.72151843010E+03  0.72151843010E+03  0.00000000000E+00 0.  1.
         -6    2    1    2    0  503 -0.69586151392E+02  0.28411193624E+03  0.56783346482E+03  0.66034228057E+03  0.16749704166E+03 0.  0.
        -24    2    3    3    0    0 -0.10015664031E+01  0.21897834001E+03  0.46777922378E+03  0.52257736557E+03  0.79480716382E+02 0.  0.
          6    2    1    2  501    0  0.69586151392E+02 -0.28411193624E+03 -0.63248626894E+03  0.71804177551E+03  0.17315682548E+03 0.  0.
         24    2    5    5    0    0  0.30885538533E+02 -0.27812699819E+03 -0.51985553623E+03  0.59870473655E+03  0.99443649380E+02 0.  0.
          5    1    5    5  501    0  0.38700612859E+02 -0.59849380488E+01 -0.11263073271E+03  0.11933703897E+03  0.47000000000E+01 0. -1.
        -13    1    6    6    0    0  0.48055192648E+02 -0.10715501242E+03 -0.14692751338E+03  0.18809357356E+03  0.00000000000E+00 0.  1.
         14    1    6    6    0    0 -0.17169654116E+02 -0.17097198577E+03 -0.37292802285E+03  0.41061116299E+03  0.00000000000E+00 0. -1.
         -5    1    3    3    0  503 -0.68584584989E+02  0.65133596232E+02  0.10005424104E+03  0.13776491500E+03  0.47000000000E+01 0.  1.
         13    1    4    4    0    0 -0.38396750758E+02  0.76046283289E+02  0.16736340325E+03  0.18779738129E+03  0.00000000000E+00 0. -1.
        -14    1    4    4    0    0  0.37395184355E+02  0.14293205672E+03  0.30041582053E+03  0.33477998428E+03  0.00000000000E+00 0.  1.
</event>
<event>
12    1  0.1046899E+000  0.1901545E+03  0.7818608E-02  0.1158573E+00
         21   -1    0    0  501  502  0.00000000000E+00  0.00000000000E+00  0.29695719232E+03  0.29695719232E+03  0.00000000000E+00 0.  1.
         21   -1    0    0  502  503 -0.00000000000E+00 -0.00000000000E+00 -0.21645320308E+03  0.21645320308E+03  0.00000000000E+00 0.  1.
         -6    2    1    2    0  503  0.15513993223E+02  0.75777583329E+02  0.21074041788E+03  0.28384899409E+03  0.17371183492E+03 0.  0.
        -24    2    3    3    0    0  0.68930815592E+02  0.63549589980E+02  0.18711649272E+03  0.22399032242E+03  0.79806484488E+02 0.  0.
          6    2    1    2  501    0 -0.15513993223E+02 -0.75777583329E+02 -0.13023642864E+03  0.22956140131E+03  0.17249343033E+03 0.  0.
         24    2    5    5    0    0 -0.24790816699E+02 -0.35599310997E+02 -0.15590107851E+03  0.18076470804E+03  0.80553323065E+02 0.  0.
          5    1    5    5  501    0  0.92768234766E+01 -0.40178272332E+02  0.25664649867E+02  0.48796693271E+02  0.47000000000E+01 0. -1.
        -13    1    6    6    0    0 -0.16766355764E+01 -0.44981382085E+02 -0.14785272959E+03  0.15455279191E+03  0.00000000000E+00 0.  1.
         14    1    6    6    0    0 -0.23114181123E+02  0.93820710878E+01 -0.80483489230E+01  0.26211916131E+02  0.00000000000E+00 0. -1.
         -5    1    3    3    0  503 -0.53416822369E+02  0.12227993349E+02  0.23623925167E+02  0.59858671666E+02  0.47000000000E+01 0.  1.
         13    1    4    4    0    0  0.60022453773E+02  0.65997104092E+01  0.63677079011E+02  0.87755464364E+02  0.00000000000E+00 0. -1.
        -14    1    4    4    0    0  0.89083618191E+01  0.56949879571E+02  0.12343941371E+03  0.13623485806E+03  0.00000000000E+00 0.  1.
</event>
<event>
12    1  0.1046899E+000  0.1850873E+03  0.7818608E-02  0.1163457E+00
         21   -1    0    0  501  502  0.00000000000E+00  0.00000000000E+00  0.69079599867E+03  0.69079599867E+03  0.00000000000E+00 0. -1.
         21   -1    0    0  502  503 -0.00000000000E+00 -0.00000000000E+00 -0.71481261248E+02  0.71481261248E+02  0.00000000000E+00 0. -1.
         -6    2    1    2    0  503  0.67224970071E+02  0.25633815008E+00  0.52443230271E+03  0.55613536675E+03  0.17244722011E+03 0.  0.
        -24    2    3    3    0    0  0.67711025956E+02 -0.35208804657E+02  0.16087806723E+03  0.19082483483E+03  0.68614299598E+02 0.  0.
          6    2    1    2  501    0 -0.67224970071E+02 -0.25633815008E+00  0.94882434719E+02  0.20614189317E+03  0.17021322331E+03 0.  0.
         24    2    5    5    0    0 -0.11777320460E+01  0.48424960374E+01  0.11160589412E+03  0.13765831955E+03  0.80430718751E+02 0.  0.
          5    1    5    5  501    0 -0.66047238025E+02 -0.50988341875E+01 -0.16723459401E+02  0.68483573615E+02  0.47000000000E+01 0. -1.
        -11    1    6    6    0    0 -0.29533011763E+02 -0.18425727325E+02  0.86410689113E+02  0.93158539084E+02  0.00000000000E+00 0.  1.
         12    1    6    6    0    0  0.28355279717E+02  0.23268223363E+02  0.25195205007E+02  0.44499780467E+02  0.00000000000E+00 0. -1.
         -5    1    3    3    0  503 -0.48605588486E+00  0.35465142807E+02  0.36355423548E+03  0.36531053193E+03  0.47000000000E+01 0.  1.
         11    1    4    4    0    0  0.32395732842E+01 -0.15132773363E+02  0.95808428650E+02  0.97050248145E+02  0.00000000000E+00 0. -1.
        -12    1    4    4    0    0  0.64471452672E+02 -0.20076031294E+02  0.65069638579E+02  0.93774586680E+02  0.00000000000E+00 0.  1.
</event>
<event>
12    1  0.1046899E+000  0.2546394E+03  0.7818608E-02  0.1110535E+00
         21   -1    0    0  501  502  0.00000000000E+00  0.00000000000E+00  0.69135282393E+02  0.69135282393E+02  0.00000000000E+00 0. -1.
         21   -1    0    0  502  503 -0.00000000000E+00 -0.00000000000E+00 -0.11979999951E+04  0.11979999951E+04  0.00000000000E+00 0. -1.
         -6    2    1    2    0  503 -0.52735189553E+02 -0.17921054975E+03 -0.26820848509E+03  0.36983373968E+03  0.17304271777E+03 0.  0.
        -24    2    3    3    0    0 -0.96234545689E+02 -0.90294178101E+02 -0.17032484991E+03  0.23054407328E+03  0.82011516517E+02 0.  0.
          6    2    1    2  501    0  0.52735189553E+02  0.17921054975E+03 -0.86065622761E+03  0.89730153780E+03  0.17182399793E+03 0.  0.
         24    2    5    5    0    0  0.38288509594E+02  0.18776879157E+03 -0.85361731080E+03  0.87849764420E+03  0.79827742776E+02 0.  0.
          5    1    5    5  501    0  0.14446679960E+02 -0.85582418151E+01 -0.70389168096E+01  0.18803893604E+02  0.47000000000E+01 0. -1.
        -13    1    6    6    0    0  0.34694603740E+02  0.81257401880E+02 -0.24112690296E+03  0.25680472001E+03  0.00000000000E+00 0.  1.
         14    1    6    6    0    0  0.35939058542E+01  0.10651138969E+03 -0.61249040784E+03  0.62169292419E+03  0.00000000000E+00 0. -1.
         -5    1    3    3    0  503  0.43499356136E+02 -0.88916371651E+02 -0.97883635174E+02  0.13928966640E+03  0.47000000000E+01 0.  1.
         13    1    4    4    0    0 -0.37724550104E+02 -0.42518397941E+02 -0.13633806677E+03  0.14771264095E+03  0.00000000000E+00 0. -1.
        -14    1    4    4    0    0 -0.58509995585E+02 -0.47775780160E+02 -0.33986783140E+02  0.82831432328E+02  0.00000000000E+00 0.  1.
</event>
<event>
12    1  0.1046899E+000  0.2009901E+03  0.7818608E-02  0.1149846E+00
         21   -1    0    0  501  502  0.00000000000E+00  0.00000000000E+00  0.14497887708E+03  0.14497887708E+03  0.00000000000E+00 0. -1.
         21   -1    0    0  502  503 -0.00000000000E+00 -0.00000000000E+00 -0.37335907554E+03  0.37335907554E+03  0.00000000000E+00 0. -1.
         -6    2    1    2    0  503  0.79466225590E+02  0.53041219025E+02 -0.24979315173E+03  0.32061446109E+03  0.17682975452E+03 0.  0.
        -24    2    3    3    0    0 -0.93693956245E+01  0.28272929046E+02 -0.45219676779E+02  0.96164839932E+02  0.79471461418E+02 0.  0.
          6    2    1    2  501    0 -0.79466225590E+02 -0.53041219025E+02  0.21412953272E+02  0.19772349153E+03  0.17177838225E+03 0.  0.
         24    2    5    5    0    0 -0.10645252757E+03 -0.12644315509E+02 -0.17865284500E+02  0.13507334970E+03  0.80209862669E+02 0.  0.
          5    1    5    5  501    0  0.26986301978E+02 -0.40396903516E+02  0.39278237772E+02  0.62650141824E+02  0.47000000000E+01 0. -1.
        -13    1    6    6    0    0 -0.32337997022E+02 -0.30185967448E+02 -0.35706134997E+02  0.56849509748E+02  0.00000000000E+00 0.  1.
         14    1    6    6    0    0 -0.74114530547E+02  0.17541651939E+02  0.17840850497E+02  0.78223839955E+02  0.00000000000E+00 0. -1.
         -5    1    3    3    0  503  0.88835621215E+02  0.24768289979E+02 -0.20457347495E+03  0.22444962116E+03  0.47000000000E+01 0.  1.
         11    1    4    4    0    0 -0.34567769490E+02  0.41506041109E+02 -0.40035335653E+02  0.67234739807E+02  0.00000000000E+00 0. -1.
        -12    1    4    4    0    0  0.25198373865E+02 -0.13233112063E+02 -0.51843411252E+01  0.28930100125E+02  0.00000000000E+00 0.  1.
</event>
<event>
12    1  0.1046899E+000  0.3147988E+03  0.7818608E-02  0.1078252E+00
         21   -1    0    0  503  502  0.00000000000E+00  0.00000000000E+00  0.18002862897E+03  0.18002862897E+03  0.00000000000E+00 0.  1.
         21   -1    0    0  501  503 -0.00000000000E+00 -0.00000000000E+00 -0.56488668712E+03  0.56488668712E+03  0.00000000000E+00 0. -1.
          6    2    1    2  501    0  0.16898044992E+03 -0.20039143234E+03 -0.25778214471E+03  0.40687828519E+03  0.17431920782E+03 0.  0.
         24    2    3    3    0    0  0.14406013902E+03 -0.19063405040E+03 -0.27631137499E+03  0.37398982563E+03  0.80160769040E+02 0.  0.
         -6    2    1    2    0  502 -0.16898044992E+03  0.20039143234E+03 -0.12707591344E+03  0.33803703091E+03  0.17149235517E+03 0.  0.
        -24    2    5    5    0    0 -0.11144423306E+03  0.16925923893E+03 -0.32917074442E+02  0.22328683842E+03  0.87777966332E+02 0.  0.
          5    1    3    3  501    0  0.24920310895E+02 -0.97573819419E+01  0.18529230282E+02  0.32888459561E+02  0.47000000000E+01 0. -1.
        -11    1    4    4    0    0  0.53219664838E+02 -0.13387939138E+03 -0.14316191770E+03  0.20310430532E+03  0.00000000000E+00 0.  1.
         12    1    4    4    0    0  0.90840474185E+02 -0.56754659018E+02 -0.13314945730E+03  0.17088552030E+03  0.00000000000E+00 0. -1.
         -5    1    5    5    0  502 -0.57536216854E+02  0.31132193412E+02 -0.94158838997E+02  0.11475019250E+03  0.47000000000E+01 0.  1.
         13    1    6    6    0    0 -0.15273359045E+01  0.50091747561E+02  0.18172521696E+02  0.53308127649E+02  0.00000000000E+00 0. -1.
        -14    1    6    6    0    0 -0.10991689716E+03  0.11916749137E+03 -0.51089596137E+02  0.16997871077E+03  0.00000000000E+00 0.  1.
</event>
<event>
12    1  0.1046899E+000  0.2274192E+03  0.7818608E-02  0.1128671E+00
         21   -1    0    0  501  502  0.00000000000E+00  0.00000000000E+00  0.14276975625E+03  0.14276975625E+03  0.00000000000E+00 0.  1.
         21   -1    0    0  502  503 -0.00000000000E+00 -0.00000000000E+00 -0.46159152598E+03  0.46159152598E+03  0.00000000000E+00 0.  1.
         -6    2    1    2    0  503 -0.13389517498E+03 -0.62146711306E+02 -0.30053943810E+03  0.37620842201E+03  0.17151877836E+03 0.  0.
        -24    2    3    3    0    0 -0.89422642647E+02  0.24207380486E+02 -0.21045131243E+03  0.24364600016E+03  0.80568059434E+02 0.  0.
          6    2    1    2  501    0  0.13389517498E+03  0.62146711306E+02 -0.18282331624E+02  0.22815286022E+03  0.17300101840E+03 0.  0.
         24    2    5    5    0    0  0.69556968839E+02 -0.22886932737E+02  0.24591025164E+02  0.11312964469E+03  0.82653580593E+02 0.  0.
          5    1    5    5  501    0  0.64338206143E+02  0.85033644043E+02 -0.42873356789E+02  0.11502321553E+03  0.47000000000E+01 0. -1.
        -13    1    6    6    0    0  0.12975641064E+02 -0.16114367536E+02  0.47423824031E+02  0.51740305255E+02  0.00000000000E+00 0.  1.
         14    1    6    6    0    0  0.56581327775E+02 -0.67725652007E+01 -0.22832798867E+02  0.61389339435E+02  0.00000000000E+00 0. -1.
         -5    1    3    3    0  503 -0.44472532335E+02 -0.86354091792E+02 -0.90088125670E+02  0.13256242186E+03  0.47000000000E+01 0.  1.
         13    1    4    4    0    0 -0.57969613742E+02 -0.12781879819E+02 -0.55500260093E+02  0.81265807321E+02  0.00000000000E+00 0. -1.
        -14    1    4    4    0    0 -0.31453028905E+02  0.36989260305E+02 -0.15495105234E+03  0.16238019284E+03  0.00000000000E+00 0.  1.
</event>
<event>
12    1  0.1046899E+000  0.6750858E+03  0.7818608E-02  0.9760912E-01
         21   -1    0    0  503  502  0.00000000000E+00  0.00000000000E+00  0.57074178476E+03  0.57074178476E+03  0.00000000000E+00 0. -1.
         21   -1    0    0  501  503 -0.00000000000E+00 -0.00000000000E+00 -0.10652598805E+04  0.10652598805E+04  0.00000000000E+00 0. -1.
          6    2    1    2  501    0 -0.38080688426E+03  0.52999911308E+03  0.16224713761E+03  0.69430901687E+03  0.17270765555E+03 0.  0.
         24    2    3    3    0    0 -0.22890932503E+03  0.21570453028E+03  0.54932604464E+02  0.32907970220E+03  0.79673934862E+02 0.  0.
         -6    2    1    2    0  502  0.38080688426E+03 -0.52999911308E+03 -0.65676523337E+03  0.94169264842E+03  0.17184740135E+03 0.  0.
        -24    2    5    5    0    0  0.13196605796E+03 -0.20542590798E+03 -0.18169265295E+03  0.31480703766E+03  0.80476125045E+02 0.  0.
          5    1    3    3  501    0 -0.15189755924E+03  0.31429458279E+03  0.10731453315E+03  0.36522931468E+03  0.47000000000E+01 0. -1.
        -11    1    4    4    0    0 -0.22516004068E+03  0.18016851618E+03  0.53679793154E+02  0.29332449324E+03  0.00000000000E+00 0.  1.
         12    1    4    4    0    0 -0.37492843482E+01  0.35536014105E+02  0.12528113099E+01  0.35755208960E+02  0.00000000000E+00 0. -1.
         -5    1    5    5    0  502  0.24884082630E+03 -0.32457320509E+03 -0.47507258042E+03  0.62688561075E+03  0.47000000000E+01 0.  1.
         13    1    6    6    0    0  0.89321415854E+02 -0.65818085594E+02 -0.83882941565E+02  0.13909235639E+03  0.00000000000E+00 0. -1.
        -14    1    6    6    0    0  0.42644642103E+02 -0.13960782239E+03 -0.97809711386E+02  0.17571468127E+03  0.00000000000E+00 0.  1.
</event>
<event>
12    1  0.1046899E+000  0.1856919E+03  0.7818608E-02  0.1163160E+00
         21   -1    0    0  501  502  0.00000000000E+00  0.00000000000E+00  0.15388144440E+03  0.15388144440E+03  0.00000000000E+00 0. -1.
         21   -1    0    0  502  503 -0.00000000000E+00 -0.00000000000E+00 -0.45880318614E+03  0.45880318614E+03  0.00000000000E+00 0. -1.
         -6    2    1    2    0  503  0.62232602274E+02 -0.15700714191E+02  0.67808684778E+02  0.19768530807E+03  0.17424710638E+03 0.  0.
        -24    2    3    3    0    0  0.73606638900E+01  0.15586352880E+01 -0.29617293325E+02  0.84447832045E+02  0.78725113886E+02 0.  0.
          6    2    1    2  501    0 -0.62232602274E+02  0.15700714191E+02 -0.37273042652E+03  0.41499932247E+03  0.17081293154E+03 0.  0.
         24    2    5    5    0    0 -0.88611624199E+02  0.46537618349E+02 -0.33927066053E+03  0.36219389286E+03  0.77859264470E+02 0.  0.
          5    1    5    5  501    0  0.26379021925E+02 -0.30836904158E+02 -0.33459765987E+02  0.52805429604E+02  0.47000000000E+01 0. -1.
        -11    1    6    6    0    0  0.41809744670E+01 -0.12047267796E+02 -0.14130347462E+02  0.19033757596E+02  0.00000000000E+00 0.  1.
         12    1    6    6    0    0 -0.92792598666E+02  0.58584886145E+02 -0.32514031307E+03  0.34316013527E+03  0.00000000000E+00 0. -1.
         -5    1    3    3    0  503  0.54871938384E+02 -0.17259349479E+02  0.97425978103E+02  0.11323747602E+03  0.47000000000E+01 0.  1.
         13    1    4    4    0    0 -0.33033775970E+02 -0.13729724542E+02 -0.11110342999E+02  0.37458983067E+02  0.00000000000E+00 0. -1.
        -14    1    4    4    0    0  0.40394439860E+02  0.15288359831E+02 -0.18506950325E+02  0.46988848978E+02  0.00000000000E+00 0.  1.
</event>
<event>
12    1  0.1046899E+000  0.1898774E+03  0.7818608E-02  0.1160559E+00
         21   -1    0    0  501  502  0.00000000000E+00  0.00000000000E+00  0.35260392165E+03  0.35260392165E+03  0.00000000000E+00 0.  1.
         21   -1    0    0  502  503 -0.00000000000E+00 -0.00000000000E+00 -0.21490861398E+03  0.21490861398E+03  0.00000000000E+00 0.  1.
         -6    2    1    2    0  503 -0.49932506598E+02 -0.17993849892E+02 -0.13997935221E+03  0.23589755130E+03  0.18230853468E+03 0.  0.
        -24    2    3    3    0    0 -0.54432365414E+02  0.92259464075E+01 -0.16932441924E+03  0.19534648475E+03  0.80258891480E+02 0.  0.
          6    2    1    2  501    0  0.49932506598E+02  0.17993849892E+02  0.27767465988E+03  0.33161498433E+03  0.17334430260E+03 0.  0.
         24    2    5    5    0    0  0.75142868465E+02  0.47026262567E+02  0.14434892950E+03  0.19277592745E+03  0.92021870810E+02 0.  0.
          5    1    5    5  501    0 -0.25210361867E+02 -0.29032412675E+02  0.13332573039E+03  0.13883905688E+03  0.47000000000E+01 0. -1.
        -13    1    6    6    0    0  0.62526469718E+01  0.47835077381E+02  0.99474608171E+02  0.11055536121E+03  0.00000000000E+00 0.  1.
         14    1    6    6    0    0  0.68890221493E+02 -0.80881481408E+00  0.44874321324E+02  0.82220566241E+02  0.00000000000E+00 0. -1.
         -5    1    3    3    0  503  0.44998588159E+01 -0.27219796300E+02  0.29345067025E+02  0.40551066554E+02  0.47000000000E+01 0.  1.
         11    1    4    4    0    0 -0.38552533865E+02 -0.30253627496E+02 -0.12321004741E+03  0.13259824896E+03  0.00000000000E+00 0. -1.
        -12    1    4    4    0    0 -0.15879831549E+02  0.39479573904E+02 -0.46114371828E+02  0.62748235790E+02  0.00000000000E+00 0.  1.
</event>
<event>
12    1  0.1046899E+000  0.2310483E+03  0.7818608E-02  0.1126420E+00
         21   -1    0    0  501  502  0.00000000000E+00  0.00000000000E+00  0.90080287846E+03  0.90080287846E+03  0.00000000000E+00 0.  1.
         21   -1    0    0  502  503 -0.00000000000E+00 -0.00000000000E+00 -0.87609788273E+02  0.87609788273E+02  0.00000000000E+00 0. -1.
         -6    2    1    2    0  503  0.12076699574E+03 -0.88338157517E+02  0.12005799195E+03  0.25778310286E+03  0.17219149037E+03 0.  0.
        -24    2    3    3    0    0  0.58023263540E+02 -0.83686928749E+02  0.14104195009E+03  0.19129380780E+03  0.79563107426E+02 0.  0.
          6    2    1    2  501    0 -0.12076699574E+03  0.88338157517E+02  0.69313509823E+03  0.73062956387E+03  0.17605396295E+03 0.  0.
         24    2    5    5    0    0 -0.13460095867E+03  0.10334078378E+03  0.46219924180E+03  0.49874615112E+03  0.79516340876E+02 0.  0.
          5    1    5    5  501    0  0.13833962929E+02 -0.15002626265E+02  0.23093585643E+03  0.23188341275E+03  0.47000000000E+01 0. -1.
        -11    1    6    6    0    0 -0.39541396777E+02  0.19063026745E+02  0.22918306793E+03  0.23334909401E+03  0.00000000000E+00 0.  1.
         12    1    6    6    0    0 -0.95059561889E+02  0.84277757037E+02  0.23301617387E+03  0.26539705711E+03  0.00000000000E+00 0. -1.
         -5    1    3    3    0  503  0.62743732195E+02 -0.46512287680E+01 -0.20983958132E+02  0.66489295061E+02  0.47000000000E+01 0.  1.
         13    1    4    4    0    0  0.20438796842E+02 -0.10397096126E+02 -0.51441291456E+01  0.23501193350E+02  0.00000000000E+00 0. -1.
        -14    1    4    4    0    0  0.37584466698E+02 -0.73289832623E+02  0.14618607923E+03  0.16779261445E+03  0.00000000000E+00 0.  1.
</event>
<event>
12    1  0.1046899E+000  0.2295384E+03  0.7818608E-02  0.1127760E+00
         21   -1    0    0  501  502  0.00000000000E+00  0.00000000000E+00  0.44458863066E+02  0.44458863066E+02  0.00000000000E+00 0. -1.
         21   -1    0    0  502  503 -0.00000000000E+00 -0.00000000000E+00 -0.15806388706E+04  0.15806388706E+04  0.00000000000E+00 0. -1.
         -6    2    1    2    0  503  0.97426191698E+01 -0.14499386983E+03 -0.35556548533E+03  0.42321941885E+03  0.17767870219E+03 0.  0.
        -24    2    3    3    0    0  0.10574318917E+02 -0.86973920509E+01 -0.20261477342E+03  0.21829642879E+03  0.80081980279E+02 0.  0.
          6    2    1    2  501    0 -0.97426191698E+01  0.14499386983E+03 -0.11806145222E+04  0.12018783149E+04  0.17187987865E+03 0.  0.
         24    2    5    5    0    0  0.32489994017E+02  0.15668755773E+03 -0.10064243257E+04  0.10221990158E+04  0.79964454610E+02 0.  0.
          5    1    5    5  501    0 -0.42232613187E+02 -0.11693687904E+02 -0.17419019653E+03  0.17967929908E+03  0.47000000000E+01 0. -1.
        -11    1    6    6    0    0  0.24969042047E+01  0.77140158096E+02 -0.69861547938E+03  0.70286586668E+03  0.00000000000E+00 0.  1.
         12    1    6    6    0    0  0.29993089812E+02  0.79547399638E+02 -0.30780884633E+03  0.31933314909E+03  0.00000000000E+00 0. -1.
         -5    1    3    3    0  503 -0.83169974679E+00 -0.13629647778E+03 -0.15295071192E+03  0.20492299006E+03  0.47000000000E+01 0.  1.
         13    1    4    4    0    0  0.66683788362E+01  0.26368603510E+02 -0.24136232945E+02  0.36363831869E+02  0.00000000000E+00 0. -1.
        -14    1    4    4    0    0  0.39059400804E+01 -0.35065995561E+02 -0.17847854047E+03  0.18193259692E+03  0.00000000000E+00 0.  1.
</event>
<event>
12    1  0.1046899E+000  0.4079294E+03  0.7818608E-02  0.1041212E+00
         21   -1    0    0  503  502  0.00000000000E+00  0.00000000000E+00  0.10457317749E+04  0.10457317749E+04  0.00000000000E+00 0. -1.
         21   -1    0    0  501  503 -0.00000000000E+00 -0.00000000000E+00 -0.15918925630E+03  0.15918925630E+03  0.00000000000E+00 0. -1.
          6    2    1    2  501    0  0.30463011100E+02 -0.36734533035E+03  0.48297590537E+03  0.63109842607E+03  0.17073052288E+03 0.  0.
         24    2    3    3    0    0  0.77327975935E+02 -0.30956826345E+03  0.41467734801E+03  0.52999799419E+03  0.84430120773E+02 0.  0.
         -6    2    1    2    0  502 -0.30463011100E+02  0.36734533035E+03  0.40356661327E+03  0.57382260517E+03  0.17474491148E+03 0.  0.
        -24    2    5    5    0    0 -0.23179971207E+02  0.81743172389E+02  0.15920123982E+03  0.19784632794E+03  0.81110279379E+02 0.  0.
          5    1    3    3  501    0 -0.46864964834E+02 -0.57777066896E+02  0.68298557356E+02  0.10110043187E+03  0.47000000000E+01 0. -1.
        -13    1    4    4    0    0  0.19034802575E+02 -0.93525876458E+02  0.19146119247E+03  0.21393176833E+03  0.00000000000E+00 0.  1.
         14    1    4    4    0    0  0.58293173360E+02 -0.21604238700E+03  0.22321615554E+03  0.31606622587E+03  0.00000000000E+00 0. -1.
         -5    1    5    5    0  502 -0.72830398931E+01  0.28560215796E+03  0.24436537344E+03  0.37597627723E+03  0.47000000000E+01 0.  1.
         11    1    6    6    0    0  0.21154772759E+02  0.54295828665E+02  0.11721458901E+03  0.13090004316E+03  0.00000000000E+00 0. -1.
        -12    1    6    6    0    0 -0.44334743966E+02  0.27447343724E+02  0.41986650808E+02  0.66946284782E+02  0.00000000000E+00 0.  1.
</event>
<event>
12    1  0.1046899E+000  0.2050372E+03  0.7818608E-02  0.1145719E+00
         21   -1    0    0  503  502  0.00000000000E+00  0.00000000000E+00  0.34613235105E+02  0.34613235105E+02  0.00000000000E+00 0. -1.
         21   -1    0    0  501  503 -0.00000000000E+00 -0.00000000000E+00 -0.12191189943E+04  0.12191189943E+04  0.00000000000E+00 0. -1.
          6    2    1    2  501    0 -0.66845179079E+02  0.89490208372E+02 -0.53888569231E+03  0.57657439648E+03  0.17194030922E+03 0.  0.
         24    2    3    3    0    0 -0.80458775012E+02  0.27917612970E+02 -0.19565879290E+03  0.22757108851E+03  0.79077363971E+02 0.  0.
         -6    2    1    2    0  502  0.66845179079E+02 -0.89490208372E+02 -0.64562006684E+03  0.67715783288E+03  0.17099907768E+03 0.  0.
        -24    2    5    5    0    0  0.95392615810E+02 -0.57939952661E+02 -0.34327259417E+03  0.37179500115E+03  0.89099156563E+02 0.  0.
          5    1    3    3  501    0  0.13613595933E+02  0.61572595402E+02 -0.34322689941E+03  0.34900330797E+03  0.47000000000E+01 0. -1.
        -11    1    4    4    0    0  0.55218884980E+01 -0.13748329921E+02 -0.76420663315E+01  0.16670603049E+02  0.00000000000E+00 0.  1.
         12    1    4    4    0    0 -0.85980663510E+02  0.41665942891E+02 -0.18801672657E+03  0.21090048546E+03  0.00000000000E+00 0. -1.
         -5    1    5    5    0  502 -0.28547436732E+02 -0.31550255710E+02 -0.30234747266E+03  0.30536283174E+03  0.47000000000E+01 0.  1.
         13    1    6    6    0    0  0.12815410530E+01  0.19621371815E+02 -0.32976769066E+02  0.38394112536E+02  0.00000000000E+00 0. -1.
        -14    1    6    6    0    0  0.94111074757E+02 -0.77561324476E+02 -0.31029582511E+03  0.33340088861E+03  0.00000000000E+00 0.  1.
</event>
<event>
12    1  0.1046899E+000  0.2083365E+03  0.7818608E-02  0.1144535E+00
         21   -1    0    0  501  502  0.00000000000E+00  0.00000000000E+00  0.75325906488E+03  0.75325906488E+03  0.00000000000E+00 0.  1.
         21   -1    0    0  502  503 -0.00000000000E+00 -0.00000000000E+00 -0.56152678266E+02  0.56152678266E+02  0.00000000000E+00 0.  1.
         -6    2    1    2    0  503 -0.28560178614E+02 -0.98314821598E+02  0.29543186229E+03  0.35692249753E+03  0.17214004775E+03 0.  0.
        -24    2    3    3    0    0 -0.70581233512E+00 -0.57604534963E+00  0.44284728427E+02  0.85950714959E+02  0.73658388733E+02 0.  0.
          6    2    1    2  501    0  0.28560178614E+02  0.98314821598E+02  0.40167452432E+03  0.45248924561E+03  0.18144587611E+03 0.  0.
         24    2    5    5    0    0  0.83791419298E+02  0.33654098988E+02  0.26399828153E+03  0.29059935456E+03  0.81236025828E+02 0.  0.
          5    1    5    5  501    0 -0.55231240684E+02  0.64660722610E+02  0.13767624279E+03  0.16188989106E+03  0.47000000000E+01 0. -1.
        -11    1    6    6    0    0  0.29435177959E+02 -0.22395030871E+02  0.13348624934E+03  0.13851550769E+03  0.00000000000E+00 0.  1.
         12    1    6    6    0    0  0.54356241339E+02  0.56049129859E+02  0.13051203219E+03  0.15208384687E+03  0.00000000000E+00 0. -1.
         -5    1    3    3    0  503 -0.27854366279E+02 -0.97738776248E+02  0.25114713386E+03  0.27097178257E+03  0.47000000000E+01 0.  1.
         11    1    4    4    0    0 -0.18759395935E+02 -0.64625881724E+01  0.58794811809E+02  0.62052476803E+02  0.00000000000E+00 0. -1.
        -12    1    4    4    0    0  0.18053583600E+02  0.58865428228E+01 -0.14510083382E+02  0.23898238156E+02  0.00000000000E+00 0.  1.
</event>
<event>
12    1  0.1046899E+000  0.1907575E+03  0.7818608E-02  0.1157947E+00
         21   -1    0    0  503  502  0.00000000000E+00  0.00000000000E+00  0.36778932719E+03  0.36778932719E+03  0.00000000000E+00 0. -1.
         21   -1    0    0  501  503 -0.00000000000E+00 -0.00000000000E+00 -0.11430876363E+03  0.11430876363E+03  0.00000000000E+00 0. -1.
          6    2    1    2  501    0 -0.64552096460E+01  0.81615117749E+02  0.21644414084E+03  0.28850732072E+03  0.17229541731E+03 0.  0.
         24    2    3    3    0    0  0.58192443711E+02  0.39624627077E+02  0.16464674625E+03  0.19551495287E+03  0.78492510276E+02 0.  0.
         -6    2    1    2    0  502  0.64552096460E+01 -0.81615117749E+02  0.37036422724E+02  0.19359077010E+03  0.17147300804E+03 0.  0.
        -24    2    5    5    0    0  0.42237739154E+02 -0.74721110247E+02  0.76946254032E+02  0.13934317668E+03  0.78284889678E+02 0.  0.
          5    1    3    3  501    0 -0.64647653357E+02  0.41990490672E+02  0.51797394590E+02  0.92992367847E+02  0.47000000000E+01 0. -1.
        -13    1    4    4    0    0  0.28175299931E+02 -0.22725630207E+02  0.59190485704E+02  0.69381664670E+02  0.00000000000E+00 0.  1.
         14    1    4    4    0    0  0.30017143779E+02  0.62350257284E+02  0.10545626055E+03  0.12613328820E+03  0.00000000000E+00 0. -1.
         -5    1    5    5    0  502 -0.35782529508E+02 -0.68940075027E+01 -0.39909831308E+02  0.54247593426E+02  0.47000000000E+01 0.  1.
         13    1    6    6    0    0  0.18337473986E+02 -0.27626286470E+02  0.79839875325E+02  0.86451606973E+02  0.00000000000E+00 0. -1.
        -14    1    6    6    0    0  0.23900265168E+02 -0.47094823777E+02 -0.28936212928E+01  0.52891569705E+02  0.00000000000E+00 0.  1.
</event>
<event>
12    1  0.1046899E+000  0.2954111E+03  0.7818608E-02  0.1087637E+00
         21   -1    0    0  503  502  0.00000000000E+00  0.00000000000E+00  0.51871805555E+03  0.51871805555E+03  0.00000000000E+00 0.  1.
         21   -1    0    0  501  503 -0.00000000000E+00 -0.00000000000E+00 -0.19287301904E+03  0.19287301904E+03  0.00000000000E+00 0.  1.
          6    2    1    2  501    0 -0.48304618112E+02 -0.23480825256E+03  0.35000611085E+02  0.29747728878E+03  0.17262515159E+03 0.  0.
         24    2    3    3    0    0  0.11438108644E+00 -0.21147230768E+03  0.65507569163E+02  0.23549559553E+03  0.80289375991E+02 0.  0.
         -6    2    1    2    0  502  0.48304618112E+02  0.23480825256E+03  0.29084442543E+03  0.41411378581E+03  0.17155610219E+03 0.  0.
        -24    2    5    5    0    0  0.15200034512E+02  0.24207417058E+03  0.27872137365E+03  0.37781274720E+03  0.78904516413E+02 0.  0.
          5    1    3    3  501    0 -0.48418999198E+02 -0.23335944879E+02 -0.30506958078E+02  0.61981693249E+02  0.47000000000E+01 0. -1.
        -11    1    4    4    0    0  0.17127600730E+02 -0.10047294391E+03  0.69107547728E+02  0.12314227673E+03  0.00000000000E+00 0.  1.
         12    1    4    4    0    0 -0.17013219643E+02 -0.11099936376E+03 -0.35999785651E+01  0.11235331880E+03  0.00000000000E+00 0. -1.
         -5    1    5    5    0  502  0.33104583600E+02 -0.72659180184E+01  0.12123051781E+02  0.36301038614E+02  0.47000000000E+01 0.  1.
         13    1    6    6    0    0 -0.22651555770E+02  0.25583099065E+02  0.26279348202E+02  0.43106752122E+02  0.00000000000E+00 0. -1.
        -14    1    6    6    0    0  0.37851590282E+02  0.21649107151E+03  0.25244202544E+03  0.33470599508E+03  0.00000000000E+00 0.  1.
</event>
<event>
12    1  0.1046899E+000  0.2265018E+03  0.7818608E-02  0.1129574E+00
         21   -1    0    0  501  502  0.00000000000E+00  0.00000000000E+00  0.46385088826E+03  0.46385088826E+03  0.00000000000E+00 0. -1.
         21   -1    0    0  502  503 -0.00000000000E+00 -0.00000000000E+00 -0.32631151825E+03  0.32631151825E+03  0.00000000000E+00 0.  1.
         -6    2    1    2    0  503 -0.14150908776E+03 -0.66980315157E+01  0.39076064265E+03  0.45042119957E+03  0.17353873235E+03 0.  0.
        -24    2    3    3    0    0 -0.39238333888E+02  0.54085375853E+02  0.18566048640E+03  0.21326704336E+03  0.80920583578E+02 0.  0.
          6    2    1    2  501    0  0.14150908776E+03  0.66980315157E+01 -0.25322127264E+03  0.33974120694E+03  0.17672970669E+03 0.  0.
         24    2    5    5    0    0 -0.31613715099E+01 -0.92863074824E+01 -0.84946290603E+02  0.11720222055E+03  0.80151471847E+02 0.  0.
          5    1    5    5  501    0  0.14467045927E+03  0.15984338998E+02 -0.16827498204E+03  0.22253898638E+03  0.47000000000E+01 0. -1.
        -13    1    6    6    0    0  0.72543506866E+01 -0.64484177420E+01 -0.99003451771E+02  0.99478093859E+02  0.00000000000E+00 0.  1.
         14    1    6    6    0    0 -0.10415722197E+02 -0.28378897403E+01  0.14057161167E+02  0.17724126696E+02  0.00000000000E+00 0. -1.
         -5    1    3    3    0  503 -0.10227075387E+03 -0.60783407369E+02  0.20510015626E+03  0.23715415621E+03  0.47000000000E+01 0.  1.
         11    1    4    4    0    0  0.41532583560E+01 -0.35453455275E+01  0.10464862328E+03  0.10479099859E+03  0.00000000000E+00 0. -1.
        -12    1    4    4    0    0 -0.43391592244E+02  0.57630721380E+02  0.81011863115E+02  0.10847604477E+03  0.00000000000E+00 0.  1.
</event>
<event>
12    1  0.1046899E+000  0.2016641E+03  0.7818608E-02  0.1148437E+00
         21   -1    0    0  503  502  0.00000000000E+00  0.00000000000E+00  0.65787442396E+02  0.65787442396E+02  0.00000000000E+00 0.  1.
         21   -1    0    0  501  503 -0.00000000000E+00 -0.00000000000E+00 -0.62726047679E+03  0.62726047679E+03  0.00000000000E+00 0.  1.
          6    2    1    2  501    0  0.25265149959E+02 -0.10165694698E+03 -0.32518110313E+03  0.38239973525E+03  0.17179739524E+03 0.  0.
         24    2    3    3    0    0  0.47064665200E+02 -0.88276723888E+02 -0.12912170422E+03  0.18462302495E+03  0.86054541714E+02 0.  0.
         -6    2    1    2    0  502 -0.25265149959E+02  0.10165694698E+03 -0.23629193126E+03  0.31064818393E+03  0.17232514248E+03 0.  0.
        -24    2    5    5    0    0 -0.45814736160E+02  0.12255238897E+03 -0.23526893225E+03  0.28094900018E+03  0.80391492860E+02 0.  0.
          5    1    3    3  501    0 -0.21799515241E+02 -0.13380223095E+02 -0.19605939891E+03  0.19777671030E+03  0.47000000000E+01 0. -1.
        -11    1    4    4    0    0 -0.85458810342E+01 -0.47129870893E+02 -0.97354905236E+02  0.10849992805E+03  0.00000000000E+00 0.  1.
         12    1    4    4    0    0  0.55610546234E+02 -0.41146852995E+02 -0.31766798982E+02  0.76123096898E+02  0.00000000000E+00 0. -1.
         -5    1    5    5    0  502  0.20549586201E+02 -0.20895441989E+02 -0.10229990044E+01  0.29699183758E+02  0.47000000000E+01 0.  1.
         11    1    6    6    0    0 -0.30626239930E+02  0.49989542114E+02 -0.37128049930E+02  0.69393176787E+02  0.00000000000E+00 0. -1.
        -12    1    6    6    0    0 -0.15188496230E+02  0.72562846858E+02 -0.19814088233E+03  0.21155582339E+03  0.00000000000E+00 0.  1.
</event>
<event>
12    1  0.1046899E+000  0.1725679E+03  0.7818608E-02  0.1175360E+00
         21   -1    0    0  503  502  0.00000000000E+00  0.00000000000E+00  0.43188839923E+03  0.43188839923E+03  0.00000000000E+00 0. -1.
         21   -1    0    0  501  503 -0.00000000000E+00 -0.00000000000E+00 -0.71364078622E+02  0.71364078622E+02  0.00000000000E+00 0. -1.
          6    2    1    2  501    0  0.31398367576E+01 -0.82521251423E+01  0.13129231648E+03  0.21632566261E+03  0.17170079730E+03 0.  0.
         24    2    3    3    0    0 -0.35849169055E+02 -0.32711971726E+02  0.19602276343E+02  0.95432396736E+02  0.79798853957E+02 0.  0.
         -6    2    1    2    0  502 -0.31398367576E+01  0.82521251423E+01  0.22923200413E+03  0.28692681523E+03  0.17234189694E+03 0.  0.
        -24    2    5    5    0    0  0.34629121489E+02  0.34682967398E+02  0.22015992343E+03  0.23970948497E+03  0.81167487432E+02 0.  0.
          5    1    3    3  501    0  0.38989005812E+02  0.24459846583E+02  0.11169004014E+03  0.12089326588E+03  0.47000000000E+01 0. -1.
        -11    1    4    4    0    0 -0.18702007043E+02 -0.14198315088E+02 -0.30998852795E+02  0.38888122780E+02  0.00000000000E+00 0.  1.
         12    1    4    4    0    0 -0.17147162012E+02 -0.18513656638E+02  0.50601129138E+02  0.56544273956E+02  0.00000000000E+00 0. -1.
         -5    1    5    5    0  502 -0.37768958246E+02 -0.26430842256E+02  0.90720806937E+01  0.47217330266E+02  0.47000000000E+01 0.  1.
         13    1    6    6    0    0  0.44271770358E+02 -0.95422162989E+01  0.74567424711E+02  0.87243019036E+02  0.00000000000E+00 0. -1.
        -14    1    6    6    0    0 -0.96426488694E+01  0.44225183697E+02  0.14559249872E+03  0.15246646593E+03  0.00000000000E+00 0.  1.
</event>
<event>
12    1  0.1046899E+000  0.2046846E+03  0.7818608E-02  0.1145871E+00
         21   -1    0    0  503  502  0.00000000000E+00  0.00000000000E+00  0.18596025907E+02  0.18596025907E+02  0.00000000000E+00 0. -1.
         21   -1    0    0  501  503 -0.00000000000E+00 -0.00000000000E+00 -0.22632994304E+04  0.22632994304E+04  0.00000000000E+00 0. -1.
          6    2    1    2  501    0 -0.66591726834E+02  0.89332084893E+02 -0.10406574775E+04  0.10605959463E+04  0.17170060120E+03 0.  0.
         24    2    3    3    0    0 -0.16801690050E+02  0.57901238344E+02 -0.26212509446E+03  0.27982600115E+03  0.77189219347E+02 0.  0.
         -6    2    1    2    0  502  0.66591726834E+02 -0.89332084893E+02 -0.12040459270E+04  0.12212995100E+04  0.17155529503E+03 0.  0.
        -24    2    5    5    0    0  0.31037288651E+02 -0.14153723236E+02 -0.28849450224E+03  0.30196692297E+03  0.82409365837E+02 0.  0.
          5    1    3    3  501    0 -0.49790036784E+02  0.31430846549E+02 -0.77853238304E+03  0.78076994519E+03  0.47000000000E+01 0. -1.
        -13    1    4    4    0    0 -0.36874524175E+02  0.85752361623E+01 -0.61198581181E+02  0.71962014611E+02  0.00000000000E+00 0.  1.
         14    1    4    4    0    0  0.20072834125E+02  0.49326002182E+02 -0.20092651328E+03  0.20786398654E+03  0.00000000000E+00 0. -1.
         -5    1    5    5    0  502  0.35554438184E+02 -0.75178361657E+02 -0.91555142479E+03  0.91933258703E+03  0.47000000000E+01 0.  1.
         13    1    6    6    0    0  0.43608085999E+02 -0.18377856718E+02 -0.28407313097E+03  0.28798776800E+03  0.00000000000E+00 0. -1.
        -14    1    6    6    0    0 -0.12570797349E+02  0.42241334818E+01 -0.44213712712E+01  0.13979154966E+02  0.00000000000E+00 0.  1.
</event>
<event>
12    1  0.1046899E+000  0.3748351E+03  0.7818608E-02  0.1052889E+00
         21   -1    0    0  501  502  0.00000000000E+00  0.00000000000E+00  0.10932704300E+04  0.10932704300E+04  0.00000000000E+00 0.  1.
         21   -1    0    0  502  503 -0.00000000000E+00 -0.00000000000E+00 -0.13930644653E+03  0.13930644653E+03  0.00000000000E+00 0.  1.
         -6    2    1    2    0  503 -0.29207552008E+03  0.15952373692E+03  0.30442647588E+03  0.48264335005E+03  0.17179403966E+03 0.  0.
        -24    2    3    3    0    0 -0.13088820636E+03  0.14935908513E+03  0.17221076156E+03  0.27386654252E+03  0.76853613061E+02 0.  0.
          6    2    1    2  501    0  0.29207552008E+03 -0.15952373692E+03  0.64953750759E+03  0.74993352648E+03  0.17246851395E+03 0.  0.
         24    2    5    5    0    0  0.22206469663E+03 -0.14845952888E+03  0.60483529996E+03  0.66600314184E+03  0.79884189013E+02 0.  0.
          5    1    5    5  501    0  0.70010823445E+02 -0.11064208038E+02  0.44702207628E+02  0.83930384640E+02  0.47000000000E+01 0. -1.
        -11    1    6    6    0    0  0.19281517354E+03 -0.10590257882E+03  0.54018687212E+03  0.58326229447E+03  0.00000000000E+00 0.  1.
         12    1    6    6    0    0  0.29249523091E+02 -0.42556950067E+02  0.64648427847E+02  0.82740847368E+02  0.00000000000E+00 0. -1.
         -5    1    3    3    0  503 -0.16118731372E+03  0.10164651791E+02  0.13221571431E+03  0.20877680753E+03  0.47000000000E+01 0.  1.
         13    1    4    4    0    0 -0.11559822735E+03  0.93925944823E+02  0.91637852293E+02  0.17487861290E+03  0.00000000000E+00 0. -1.
        -14    1    4    4    0    0 -0.15289979009E+02  0.55433140307E+02  0.80572909270E+02  0.98987929621E+02  0.00000000000E+00 0.  1.
</event>
<event>
12    1  0.1046899E+000  0.1778257E+03  0.7818608E-02  0.1171237E+00
         21   -1    0    0  503  502  0.00000000000E+00  0.00000000000E+00  0.22053464850E+03  0.22053464850E+03  0.00000000000E+00 0. -1.
         21   -1    0    0  501  503 -0.00000000000E+00 -0.00000000000E+00 -0.19203475131E+03  0.19203475131E+03  0.00000000000E+00 0. -1.
          6    2    1    2  501    0 -0.11198955683E+02 -0.26979603688E+02 -0.93806793971E+02  0.20105144279E+03  0.17540995533E+03 0.  0.
         24    2    3    3    0    0 -0.30036977442E+02  0.21423999416E+02  0.74606184867E+01  0.87143766650E+02  0.78594958318E+02 0.  0.
         -6    2    1    2    0  502  0.11198955683E+02  0.26979603688E+02  0.12230669117E+03  0.21151795702E+03  0.17008116832E+03 0.  0.
        -24    2    5    5    0    0  0.55493784349E+02  0.64399195536E+02  0.86349125457E+02  0.14312721034E+03  0.76173554367E+02 0.  0.
          5    1    3    3  501    0  0.18838021759E+02 -0.48403603104E+02 -0.10126741246E+03  0.11390767614E+03  0.47000000000E+01 0. -1.
        -13    1    4    4    0    0 -0.30931397519E+02 -0.22231623145E+02 -0.11132210546E+02  0.39685293646E+02  0.00000000000E+00 0.  1.
         14    1    4    4    0    0  0.89442007670E+00  0.43655622561E+02  0.18592829033E+02  0.47458473004E+02  0.00000000000E+00 0. -1.
         -5    1    5    5    0  502 -0.44294828665E+02 -0.37419591848E+02  0.35957565710E+02  0.68390746687E+02  0.47000000000E+01 0.  1.
         11    1    6    6    0    0  0.19188786009E+01  0.60253283571E+02  0.49014495856E+02  0.77695309255E+02  0.00000000000E+00 0. -1.
        -12    1    6    6    0    0  0.53574905748E+02  0.41459119651E+01  0.37334629602E+02  0.65431901083E+02  0.00000000000E+00 0.  1.
</event>
<event>
12    1  0.1046899E+000  0.2783262E+03  0.7818608E-02  0.1096632E+00
         21   -1    0    0  501  502  0.00000000000E+00  0.00000000000E+00  0.45462561055E+03  0.45462561055E+03  0.00000000000E+00 0. -1.
         21   -1    0    0  502  503 -0.00000000000E+00 -0.00000000000E+00 -0.17189374218E+03  0.17189374218E+03  0.00000000000E+00 0. -1.
         -6    2    1    2    0  503  0.15999057095E+03  0.14912749880E+03  0.17165584792E+03  0.32684725271E+03  0.17183539445E+03 0.  0.
        -24    2    3    3    0    0  0.66130068178E+02  0.13997021876E+03  0.14962756843E+03  0.22988857669E+03  0.80594667320E+02 0.  0.
          6    2    1    2  501    0 -0.15999057095E+03 -0.14912749880E+03  0.11107602045E+03  0.29967210002E+03  0.17213219199E+03 0.  0.
         24    2    5    5    0    0 -0.79152356626E+02 -0.15528187867E+03  0.51256836920E+02  0.19881022414E+03  0.80750755349E+02 0.  0.
          5    1    5    5  501    0 -0.80838214325E+02  0.61543798715E+01  0.59819183534E+02  0.10086187588E+03  0.47000000000E+01 0. -1.
        -11    1    6    6    0    0 -0.95484826052E+02 -0.12446176045E+03  0.37313479464E+02  0.16124632576E+03  0.00000000000E+00 0.  1.
         12    1    6    6    0    0  0.16332469426E+02 -0.30820118222E+02  0.13943357456E+02  0.37563898386E+02  0.00000000000E+00 0. -1.
         -5    1    3    3    0  503  0.93860502773E+02  0.91572800380E+01  0.22028279495E+02  0.96958676022E+02  0.47000000000E+01 0.  1.
         13    1    4    4    0    0  0.10545400825E+02  0.22983009196E+02 -0.73899626862E+01  0.26344558048E+02  0.00000000000E+00 0. -1.
        -14    1    4    4    0    0  0.55584667353E+02  0.11698720957E+03  0.15701753111E+03  0.20354401864E+03  0.00000000000E+00 0.  1.
</event>
<event>
12    1  0.1046899E+000  0.1929389E+03  0.7818608E-02  0.1156216E+00
         21   -1    0    0  503  502  0.00000000000E+00  0.00000000000E+00  0.25539575208E+03  0.25539575208E+03  0.00000000000E+00 0.  1.
         21   -1    0    0  501  503 -0.00000000000E+00 -0.00000000000E+00 -0.35657723265E+03  0.35657723265E+03  0.00000000000E+00 0.  1.
          6    2    1    2  501    0  0.48477086924E+02  0.71169845935E+02  0.18531198531E+03  0.26751816098E+03  0.17265647866E+03 0.  0.
         24    2    3    3    0    0  0.12319469690E+02  0.60134482224E+02  0.24747170273E+02  0.10249603408E+03  0.78262949599E+02 0.  0.
         -6    2    1    2    0  502 -0.48477086924E+02 -0.71169845935E+02 -0.28649346588E+03  0.34445482375E+03  0.17074965500E+03 0.  0.
        -24    2    5    5    0    0  0.33097473052E+02 -0.17979391748E+01 -0.10188061308E+03  0.13098148653E+03  0.75351278588E+02 0.  0.
          5    1    3    3  501    0  0.36157617234E+02  0.11035363711E+02  0.16056481504E+03  0.16502212690E+03  0.47000000000E+01 0. -1.
        -13    1    4    4    0    0  0.83290669860E+01 -0.11452904468E+02 -0.14907980301E+02  0.20561864076E+02  0.00000000000E+00 0.  1.
         14    1    4    4    0    0  0.39904027041E+01  0.71587386693E+02  0.39655150575E+02  0.81934170004E+02  0.00000000000E+00 0. -1.
         -5    1    5    5    0  502 -0.81574559976E+02 -0.69371906760E+02 -0.18461285280E+03  0.21347333722E+03  0.47000000000E+01 0.  1.
         13    1    6    6    0    0 -0.23824013362E+02  0.50809001707E+01 -0.23314495154E+02  0.33718909287E+02  0.00000000000E+00 0. -1.
        -14    1    6    6    0    0  0.56921486415E+02 -0.68788393455E+01 -0.78566117923E+02  0.97262577243E+02  0.00000000000E+00 0.  1.
</event>
<event>
12    1  0.1046899E+000  0.1879949E+03  0.7818608E-02  0.1160524E+00
         21   -1    0    0  503  502  0.00000000000E+00  0.00000000000E+00  0.28702754780E+03  0.28702754780E+03  0.00000000000E+00 0.  1.
         21   -1    0    0  501  503 -0.00000000000E+00 -0.00000000000E+00 -0.12295996644E+03  0.12295996644E+03  0.00000000000E+00 0.  1.
          6    2    1    2  501    0  0.40552055131E+02 -0.61418343893E+02  0.95096307536E+02  0.20973991660E+03  0.17184540368E+03 0.  0.
         24    2    3    3    0    0  0.69514101310E+02 -0.11778895490E+02  0.98857356416E+01  0.10685256792E+03  0.79679299957E+02 0.  0.
         -6    2    1    2    0  502 -0.40552055131E+02  0.61418343893E+02  0.68971273822E+02  0.20024759764E+03  0.17298954190E+03 0.  0.
        -24    2    5    5    0    0  0.15734164101E+02  0.91646362763E+02  0.58097643173E+02  0.13526915934E+03  0.79219881343E+02 0.  0.
          5    1    3    3  501    0 -0.28962046179E+02 -0.49639448403E+02  0.85210571895E+02  0.10288734868E+03  0.47000000000E+01 0. -1.
        -11    1    4    4    0    0  0.55221954921E+02 -0.11203324870E+02 -0.30455267414E+02  0.64050777565E+02  0.00000000000E+00 0.  1.
         12    1    4    4    0    0  0.14292146389E+02 -0.57557061984E+00  0.40341003055E+02  0.42801790354E+02  0.00000000000E+00 0. -1.
         -5    1    5    5    0  502 -0.56286219232E+02 -0.30228018870E+02  0.10873630650E+02  0.64978438299E+02  0.47000000000E+01 0.  1.
         13    1    6    6    0    0  0.45306013601E+02  0.41206417586E+02  0.16232513930E+02  0.63356911440E+02  0.00000000000E+00 0. -1.
        -14    1    6    6    0    0 -0.29571849500E+02  0.50439945177E+02  0.41865129243E+02  0.71912247905E+02  0.00000000000E+00 0.  1.
</event>
<event>
12    1  0.1046899E+000  0.2483626E+03  0.7818608E-02  0.1114357E+00
         21   -1    0    0  501  502  0.00000000000E+00  0.00000000000E+00  0.22151886116E+03  0.22151886116E+03  0.00000000000E+00 0.  1.
         21   -1    0    0  502  503 -0.00000000000E+00 -0.00000000000E+00 -0.29533587556E+03  0.29533587556E+03  0.00000000000E+00 0.  1.
         -6    2    1    2    0  503  0.15276504740E+03 -0.93276355859E+02  0.25036450135E+02  0.24954218280E+03  0.17206637931E+03 0.  0.
        -24    2    3    3    0    0  0.12893033954E+03 -0.10026628960E+03 -0.32381597710E+02  0.18680563292E+03  0.84684209485E+02 0.  0.
          6    2    1    2  501    0 -0.15276504740E+03  0.93276355859E+02 -0.98853464530E+02  0.26731255392E+03  0.17218117134E+03 0.  0.
         24    2    5    5    0    0 -0.18267057122E+03  0.74665256904E+02 -0.72380256605E+02  0.22299964274E+03  0.74474834257E+02 0.  0.
          5    1    5    5  501    0  0.29905523820E+02  0.18611098955E+02 -0.26473207924E+02  0.44312911178E+02  0.47000000000E+01 0. -1.
        -11    1    6    6    0    0 -0.40865051429E+02 -0.18422698572E+01  0.98878254907E+01  0.42084622839E+02  0.00000000000E+00 0.  1.
         12    1    6    6    0    0 -0.14180551979E+03  0.76507526761E+02 -0.82268082096E+02  0.18091501990E+03  0.00000000000E+00 0. -1.
         -5    1    3    3    0  503  0.23834707865E+02  0.69899337362E+01  0.57418047845E+02  0.62736549881E+02  0.47000000000E+01 0.  1.
         11    1    4    4    0    0  0.17595194942E+02 -0.59882066440E+02  0.49989153747E+01  0.62613432433E+02  0.00000000000E+00 0. -1.
        -12    1    4    4    0    0  0.11133514460E+03 -0.40384223155E+02 -0.37380513085E+02  0.12419220048E+03  0.00000000000E+00 0.  1.
</event>
<event>
12    1  0.1046899E+000  0.1738972E+03  0.7818608E-02  0.1173926E+00
         21   -1    0    0  503  502  0.00000000000E+00  0.00000000000E+00  0.24034400533E+03  0.24034400533E+03  0.00000000000E+00 0. -1.
         21   -1    0    0  501  503 -0.00000000000E+00 -0.00000000000E+00 -0.31584966859E+03  0.31584966859E+03  0.00000000000E+00 0. -1.
          6    2    1    2  501    0 -0.19659079283E+02 -0.42927428104E+01  0.17810331718E+03  0.24869121643E+03  0.17239960121E+03 0.  0.
         24    2    3    3    0    0  0.70350138158E+01 -0.55506036295E+02  0.15690288462E+03  0.18699093785E+03  0.84951069164E+02 0.  0.
         -6    2    1    2    0  502  0.19659079283E+02  0.42927428104E+01 -0.25360898044E+03  0.30750245749E+03  0.17272909241E+03 0.  0.
        -24    2    5    5    0    0  0.19724001662E+02  0.13025561583E+02 -0.38261433740E+02  0.91926665230E+02  0.80174016816E+02 0.  0.
          5    1    3    3  501    0 -0.26694093099E+02  0.51213293485E+02  0.21200432567E+02  0.61700278581E+02  0.47000000000E+01 0. -1.
        -11    1    4    4    0    0 -0.34537786808E+02 -0.34146625330E+02  0.47104461825E+02  0.67658562376E+02  0.00000000000E+00 0.  1.
         12    1    4    4    0    0  0.41572800624E+02 -0.21359410965E+02  0.10979842279E+03  0.11933237547E+03  0.00000000000E+00 0. -1.
         -5    1    5    5    0  502 -0.64922379181E-01 -0.87328187728E+01 -0.21534754670E+03  0.21557579226E+03  0.47000000000E+01 0.  1.
         11    1    6    6    0    0 -0.97299166363E+01 -0.22722252271E+02  0.84707041582E+01  0.26129004094E+02  0.00000000000E+00 0. -1.
        -12    1    6    6    0    0  0.29453918298E+02  0.35747813854E+02 -0.46732137898E+02  0.65797661136E+02  0.00000000000E+00 0.  1.
</event>
<event>
12    1  0.1046899E+000  0.3085493E+03  0.7818608E-02  0.1081068E+00
         21   -1    0    0  503  502  0.00000000000E+00  0.00000000000E+00  0.34215379475E+03  0.34215379475E+03  0.00000000000E+00 0.  1.
         21   -1    0    0  501  503 -0.00000000000E+00 -0.00000000000E+00 -0.28731558136E+03  0.28731558136E+03  0.00000000000E+00 0.  1.
          6    2    1    2  501    0 -0.64406698445E+01  0.25612824780E+03  0.83926681172E+02  0.31975988215E+03  0.17192885991E+03 0.  0.
         24    2    3    3    0    0 -0.46133965987E+00  0.48964730275E+02 -0.63735628899E+01  0.93643320480E+02  0.79565642845E+02 0.  0.
         -6    2    1    2    0  502  0.64406698445E+01 -0.25612824780E+03 -0.29088467773E+02  0.30970949396E+03  0.17155369463E+03 0.  0.
        -24    2    5    5    0    0  0.50758353366E+02 -0.85523360368E+02  0.15675321236E+02  0.12778651164E+03  0.78695751201E+02 0.  0.
          5    1    3    3  501    0 -0.59793301846E+01  0.20716351753E+03  0.90300244062E+02  0.22611656167E+03  0.47000000000E+01 0. -1.
        -11    1    4    4    0    0  0.31289762965E+02  0.52400577708E+02 -0.85745673031E+01  0.61631104282E+02  0.00000000000E+00 0.  1.
         12    1    4    4    0    0 -0.31751102625E+02 -0.34358474326E+01  0.22010044132E+01  0.32012216198E+02  0.00000000000E+00 0. -1.
         -5    1    5    5    0  502 -0.44317683522E+02 -0.17060488743E+03 -0.44763789009E+02  0.18192298232E+03  0.47000000000E+01 0.  1.
         11    1    6    6    0    0  0.25052911826E+02 -0.83884310899E+02 -0.13817585124E+02  0.88629293491E+02  0.00000000000E+00 0. -1.
        -12    1    6    6    0    0  0.25705441540E+02 -0.16390494684E+01  0.29492906360E+02  0.39157218153E+02  0.00000000000E+00 0.  1.
</event>
<event>
12    1  0.1046899E+000  0.3696345E+03  0.7818608E-02  0.1054915E+00
         21   -1    0    0  501  502  0.00000000000E+00  0.00000000000E+00  0.21003977703E+04  0.21003977703E+04  0.00000000000E+00 0. -1.
         21   -1    0    0  502  503 -0.00000000000E+00 -0.00000000000E+00 -0.72632393432E+02  0.72632393432E+02  0.00000000000E+00 0. -1.
         -6    2    1    2    0  503  0.27603895181E+03 -0.17426324664E+03  0.13694578558E+04  0.14184655404E+04  0.17339114278E+03 0.  0.
        -24    2    3    3    0    0  0.16749973667E+03 -0.17802689267E+03  0.10024903177E+04  0.10357356222E+04  0.89508132108E+02 0.  0.
          6    2    1    2  501    0 -0.27603895181E+03  0.17426324664E+03  0.65830752106E+03  0.75456462334E+03  0.17156280620E+03 0.  0.
         24    2    5    5    0    0 -0.18007457539E+03  0.84059195633E+02  0.52503565865E+03  0.56713620588E+03  0.80549563015E+02 0.  0.
          5    1    5    5  501    0 -0.95964376419E+02  0.90204051006E+02  0.13327186241E+03  0.18742841746E+03  0.47000000000E+01 0. -1.
        -13    1    6    6    0    0 -0.11560057343E+03  0.93875426248E+02  0.35107291792E+03  0.38135060237E+03  0.00000000000E+00 0.  1.
         14    1    6    6    0    0 -0.64474001963E+02 -0.98162306149E+01  0.17396274073E+03  0.18578560352E+03  0.00000000000E+00 0. -1.
         -5    1    3    3    0  503  0.10853921513E+03  0.37636460265E+01  0.36696753816E+03  0.38272991824E+03  0.47000000000E+01 0.  1.
         11    1    4    4    0    0  0.21617820112E+02 -0.27762215454E+02  0.54385548216E+02  0.64775447572E+02  0.00000000000E+00 0. -1.
        -12    1    4    4    0    0  0.14588191656E+03 -0.15026467721E+03  0.94810476944E+03  0.97096017458E+03  0.00000000000E+00 0.  1.
</event>
<event>
12    1  0.1046899E+000  0.2665252E+03  0.7818608E-02  0.1103338E+00
         21   -1    0    0  503  502  0.00000000000E+00  0.00000000000E+00  0.20877493031E+04  0.20877493031E+04  0.00000000000E+00 0. -1.
         21   -1    0    0  501  503 -0.00000000000E+00 -0.00000000000E+00 -0.34639298128E+02  0.34639298128E+02  0.00000000000E+00 0. -1.
          6    2    1    2  501    0  0.16010364066E+03  0.12352653915E+03  0.11738452790E+04  0.12037227338E+04  0.17361940907E+03 0.  0.
         24    2    3    3    0    0  0.14544473094E+03  0.15738276444E+03  0.10408539485E+04  0.10656288830E+04  0.79148404880E+02 0.  0.
         -6    2    1    2    0  502 -0.16010364066E+03 -0.12352653915E+03  0.87926472594E+03  0.91866586740E+03  0.17305645326E+03 0.  0.
        -24    2    5    5    0    0 -0.14660585146E+02 -0.39848355075E+02  0.20469258504E+03  0.22352172107E+03  0.79120675323E+02 0.  0.
          5    1    3    3  501    0  0.14658909724E+02 -0.33856225288E+02  0.13299133056E+03  0.13809385080E+03  0.47000000000E+01 0. -1.
        -13    1    4    4    0    0  0.34457142104E+01  0.44341703907E+02  0.27419967275E+03  0.27778322518E+03  0.00000000000E+00 0.  1.
         14    1    4    4    0    0  0.14199901672E+03  0.11304106053E+03  0.76665427570E+03  0.78784565783E+03  0.00000000000E+00 0. -1.
         -5    1    5    5    0  502 -0.14544305551E+03 -0.83678184073E+02  0.67457214090E+03  0.69514414633E+03  0.47000000000E+01 0.  1.
         13    1    6    6    0    0  0.28242692620E+02  0.38176480990E+01  0.60750426181E+02  0.67103192209E+02  0.00000000000E+00 0. -1.
        -14    1    6    6    0    0 -0.42903277765E+02 -0.43666003174E+02  0.14394215886E+03  0.15641852887E+03  0.00000000000E+00 0.  1.
</event>
<event>
12    1  0.1046899E+000  0.2304083E+03  0.7818608E-02  0.1126562E+00
         21   -1    0    0  503  502  0.00000000000E+00  0.00000000000E+00  0.25017413139E+03  0.25017413139E+03  0.00000000000E+00 0. -1.
         21   -1    0    0  501  503 -0.00000000000E+00 -0.00000000000E+00 -0.23528307467E+03  0.23528307467E+03  0.00000000000E+00 0.  1.
          6    2    1    2  501    0 -0.45519701389E+02  0.14627862100E+03  0.85265794195E+02  0.24567909839E+03  0.17210021949E+03 0.  0.
         24    2    3    3    0    0 -0.65799905389E+02  0.15378945194E+03  0.31610594766E+02  0.18763885647E+03  0.78919501267E+02 0.  0.
         -6    2    1    2    0  502  0.45519701389E+02 -0.14627862100E+03 -0.70374737475E+02  0.23977810767E+03  0.17050354561E+03 0.  0.
        -24    2    5    5    0    0  0.25675551006E+01 -0.16117062070E+03 -0.82283676668E+02  0.19254918265E+03  0.65742094393E+02 0.  0.
          5    1    3    3  501    0  0.20280204000E+02 -0.75108309369E+01  0.53655199429E+02  0.58040241913E+02  0.47000000000E+01 0. -1.
        -13    1    4    4    0    0  0.17810066173E+01 -0.68266110481E+01 -0.61274738174E+01  0.93445459149E+01  0.00000000000E+00 0.  1.
         14    1    4    4    0    0 -0.67580912006E+02  0.16061606299E+03  0.37738068583E+02  0.17829431056E+03  0.00000000000E+00 0. -1.
         -5    1    5    5    0  502  0.42952146288E+02  0.14891999702E+02  0.11908939193E+02  0.47228925021E+02  0.47000000000E+01 0.  1.
         13    1    6    6    0    0  0.32207134070E+02 -0.79429580023E+02 -0.28570008471E+02  0.90347125309E+02  0.00000000000E+00 0. -1.
        -14    1    6    6    0    0 -0.29639578969E+02 -0.81741040682E+02 -0.53713668197E+02  0.10220205734E+03  0.00000000000E+00 0.  1.
</event>
<event>
12    1  0.1046899E+000  0.2804253E+03  0.7818608E-02  0.1095742E+00
         21   -1    0    0  503  502  0.00000000000E+00  0.00000000000E+00  0.10615365579E+04  0.10615365579E+04  0.00000000000E+00 0. -1.
         21   -1    0    0  501  503 -0.00000000000E+00 -0.00000000000E+00 -0.19603792330E+03  0.19603792330E+03  0.00000000000E+00 0. -1.
          6    2    1    2  501    0 -0.44708699325E+02 -0.21654128545E+03  0.93041797244E+03  0.97175920669E+03  0.17248001697E+03 0.  0.
         24    2    3    3    0    0 -0.66712884994E+02 -0.19221414368E+03  0.90217263448E+03  0.92821746661E+03  0.79216897476E+02 0.  0.
         -6    2    1    2    0  502  0.44708699325E+02  0.21654128545E+03 -0.64919337830E+02  0.28581527451E+03  0.16907647566E+03 0.  0.
        -24    2    5    5    0    0  0.35001612884E+02  0.20533397117E+03 -0.41954630571E+01  0.22313106288E+03  0.79891906291E+02 0.  0.
          5    1    3    3  501    0  0.22004185669E+02 -0.24327141766E+02  0.28245337953E+02  0.43541740084E+02  0.47000000000E+01 0. -1.
        -11    1    4    4    0    0 -0.27681764823E+02 -0.16324631558E+03  0.61203993884E+03  0.63404142324E+03  0.00000000000E+00 0.  1.
         12    1    4    4    0    0 -0.39031120172E+02 -0.28967828104E+02  0.29013269564E+03  0.29417604336E+03  0.00000000000E+00 0. -1.
         -5    1    5    5    0  502  0.97070864417E+01  0.11207314275E+02 -0.60723874773E+02  0.62684211632E+02  0.47000000000E+01 0.  1.
         13    1    6    6    0    0  0.47575473610E+02  0.68834145602E+02  0.14042161302E+02  0.84845433490E+02  0.00000000000E+00 0. -1.
        -14    1    6    6    0    0 -0.12573860727E+02  0.13649982557E+03 -0.18237624359E+02  0.13828562939E+03  0.00000000000E+00 0.  1.
</event>
<event>
12    1  0.1046899E+000  0.2338666E+03  0.7818608E-02  0.1124180E+00
         21   -1    0    0  503  502  0.00000000000E+00  0.00000000000E+00  0.16762457845E+04  0.16762457845E+04  0.00000000000E+00 0. -1.
         21   -1    0    0  501  503 -0.00000000000E+00 -0.00000000000E+00 -0.34427559132E+02  0.34427559132E+02  0.00000000000E+00 0. -1.
          6    2    1    2  501    0  0.13739397051E+03  0.76911883229E+02  0.61767626304E+03  0.66046767407E+03  0.17291917663E+03 0.  0.
         24    2    3    3    0    0  0.96812935629E+02  0.53655549163E+02  0.58770917767E+03  0.60472008513E+03  0.89625004238E+02 0.  0.
         -6    2    1    2    0  502 -0.13739397051E+03 -0.76911883229E+02  0.10241419623E+04  0.10502056696E+04  0.17109251438E+03 0.  0.
        -24    2    5    5    0    0 -0.15108033543E+03 -0.27378239969E+02  0.64539904251E+03  0.66796335413E+03  0.77847816979E+02 0.  0.
          5    1    3    3  501    0  0.40581034882E+02  0.23256334066E+02  0.29967085376E+02  0.55747588936E+02  0.47000000000E+01 0. -1.
        -11    1    4    4    0    0  0.89159818325E+02  0.41013885495E+02  0.28081760345E+03  0.29747292047E+03  0.00000000000E+00 0.  1.
         12    1    4    4    0    0  0.76531173047E+01  0.12641663669E+02  0.30689157422E+03  0.30724716466E+03  0.00000000000E+00 0. -1.
         -5    1    5    5    0  502  0.13686364922E+02 -0.49533643260E+02  0.37874291981E+03  0.38224231543E+03  0.47000000000E+01 0.  1.
         13    1    6    6    0    0 -0.18797107884E+01 -0.64831110391E+01  0.15025486401E+03  0.15040641010E+03  0.00000000000E+00 0. -1.
        -14    1    6    6    0    0 -0.14920062465E+03 -0.20895128930E+02  0.49514417850E+03  0.51755694403E+03  0.00000000000E+00 0.  1.
</event>
<event>
12    1  0.1046899E+000  0.1821593E+03  0.7818608E-02  0.1166405E+00
         21   -1    0    0  501  502  0.00000000000E+00  0.00000000000E+00  0.90091952533E+03  0.90091952533E+03  0.00000000000E+00 0. -1.
         21   -1    0    0  502  503 -0.00000000000E+00 -0.00000000000E+00 -0.37731678700E+02  0.37731678700E+02  0.00000000000E+00 0. -1.
         -6    2    1    2    0  503 -0.19602012911E+02 -0.46422170085E+02  0.52091008654E+03  0.55091922306E+03  0.17212035120E+03 0.  0.
        -24    2    3    3    0    0 -0.49680660452E+02  0.10616590109E+02  0.17880168166E+03  0.20275489995E+03  0.80985357193E+02 0.  0.
          6    2    1    2  501    0  0.19602012911E+02  0.46422170085E+02  0.34227776010E+03  0.38773198097E+03  0.17505075614E+03 0.  0.
         24    2    5    5    0    0 -0.27559667153E+02  0.70489566267E+02  0.30181447721E+03  0.32092755831E+03  0.78576108467E+02 0.  0.
          5    1    5    5  501    0  0.47161680064E+02 -0.24067396182E+02  0.40463282884E+02  0.66804422662E+02  0.47000000000E+01 0. -1.
        -13    1    6    6    0    0 -0.41939439511E+02  0.77006306874E+02  0.20697948334E+03  0.22478744273E+03  0.00000000000E+00 0.  1.
         14    1    6    6    0    0  0.14379772358E+02 -0.65167406068E+01  0.94834993871E+02  0.96140115579E+02  0.00000000000E+00 0. -1.
         -5    1    3    3    0  503  0.30078647540E+02 -0.57038760193E+02  0.34210840488E+03  0.34816432312E+03  0.47000000000E+01 0.  1.
         11    1    4    4    0    0  0.11360963702E+01  0.23063719458E+02  0.85140528885E+01  0.24611277228E+02  0.00000000000E+00 0. -1.
        -12    1    4    4    0    0 -0.50816756822E+02 -0.12447129350E+02  0.17028762877E+03  0.17814362272E+03  0.00000000000E+00 0.  1.
</event>
<event>
12    1  0.1046899E+000  0.2047842E+03  0.7818608E-02  0.1146743E+00
         21   -1    0    0  501  502  0.00000000000E+00  0.00000000000E+00  0.41033906299E+02  0.41033906299E+02  0.00000000000E+00 0.  1.
         21   -1    0    0  502  503 -0.00000000000E+00 -0.00000000000E+00 -0.11694493154E+04  0.11694493154E+04  0.00000000000E+00 0.  1.
         -6    2    1    2    0  503  0.98677471677E+02  0.25294310009E+02 -0.32722779198E+03  0.38353814857E+03  0.17218141022E+03 0.  0.
        -24    2    3    3    0    0  0.17018971343E+02 -0.12072055107E+02 -0.53700765569E+02  0.95608504215E+02  0.76300943346E+02 0.  0.
          6    2    1    2  501    0 -0.98677471677E+02 -0.25294310009E+02 -0.80118761708E+03  0.82694507309E+03  0.17764996655E+03 0.  0.
         24    2    5    5    0    0 -0.99591911683E+02  0.10285388314E+02 -0.31463711947E+03  0.33907190530E+03  0.77129125018E+02 0.  0.
          5    1    5    5  501    0  0.91444000643E+00 -0.35579698323E+02 -0.48655049761E+03  0.48787316779E+03  0.47000000000E+01 0. -1.
        -11    1    6    6    0    0 -0.68253891426E+02  0.25801086966E+02 -0.28183032209E+03  0.29112303281E+03  0.00000000000E+00 0.  1.
         12    1    6    6    0    0 -0.31338020257E+02 -0.15515698653E+02 -0.32806797388E+02  0.47948872491E+02  0.00000000000E+00 0. -1.
         -5    1    3    3    0  503  0.81658500334E+02  0.37366365116E+02 -0.27352702641E+03  0.28792964435E+03  0.47000000000E+01 0.  1.
         11    1    4    4    0    0 -0.45134165367E+01  0.30582549135E+02 -0.16420445742E+02  0.35004203730E+02  0.00000000000E+00 0. -1.
        -12    1    4    4    0    0  0.21532387879E+02 -0.42654604242E+02 -0.37280319827E+02  0.60604300485E+02  0.00000000000E+00 0.  1.
</event>
<event>
12    1  0.1046899E+000  0.2624407E+03  0.7818608E-02  0.1105718E+00
         21   -1    0    0  501  502  0.00000000000E+00  0.00000000000E+00  0.26365009400E+03  0.26365009400E+03  0.00000000000E+00 0. -1.
         21   -1    0    0  502  503 -0.00000000000E+00 -0.00000000000E+00 -0.46964587911E+03  0.46964587911E+03  0.00000000000E+00 0. -1.
         -6    2    1    2    0  503  0.17140761052E+03 -0.97869541481E+02  0.14134734102E+03  0.29808416235E+03  0.17296265763E+03 0.  0.
        -24    2    3    3    0    0  0.15873969078E+03 -0.12404718483E+03  0.15437594672E+03  0.26587267731E+03  0.79185567635E+02 0.  0.
          6    2    1    2  501    0 -0.17140761052E+03  0.97869541481E+02 -0.34734312612E+03  0.43521181076E+03  0.17263561877E+03 0.  0.
         24    2    5    5    0    0 -0.14127927536E+03  0.17169244873E+02 -0.15534247167E+03  0.22472049084E+03  0.78188227264E+02 0.  0.
          5    1    5    5  501    0 -0.30128335151E+02  0.80700296607E+02 -0.19200065445E+03  0.21049131992E+03  0.47000000000E+01 0. -1.
        -11    1    6    6    0    0 -0.11241460691E+03  0.99743146399E+00 -0.15519515778E+03  0.19163396284E+03  0.00000000000E+00 0.  1.
         12    1    6    6    0    0 -0.28864668451E+02  0.16171813409E+02 -0.14731389350E+00  0.33086528000E+02  0.00000000000E+00 0. -1.
         -5    1    3    3    0  503  0.12667919739E+02  0.26177643352E+02 -0.13028605695E+02  0.32211485038E+02  0.47000000000E+01 0.  1.
         13    1    4    4    0    0  0.16703046356E+02 -0.56510197868E+02  0.47968667586E+02  0.75982809178E+02  0.00000000000E+00 0. -1.
        -14    1    4    4    0    0  0.14203664442E+03 -0.67536986965E+02  0.10640727913E+03  0.18988986813E+03  0.00000000000E+00 0.  1.
</event>
<event>
12    1  0.1046899E+000  0.3047797E+03  0.7818608E-02  0.1084036E+00
         21   -1    0    0  503  502  0.00000000000E+00  0.00000000000E+00  0.86577191202E+03  0.86577191202E+03  0.00000000000E+00 0. -1.
         21   -1    0    0  501  503 -0.00000000000E+00 -0.00000000000E+00 -0.10865964269E+03  0.10865964269E+03  0.00000000000E+00 0. -1.
          6    2    1    2  501    0 -0.23272666737E+03  0.59668979479E+02  0.27245253462E+03  0.40190581068E+03  0.17197618503E+03 0.  0.
         24    2    3    3    0    0 -0.18861599771E+03  0.83350718570E+02  0.27339208979E+03  0.35161119160E+03  0.79773795341E+02 0.  0.
         -6    2    1    2    0  502  0.23272666737E+03 -0.59668979479E+02  0.48465973471E+03  0.57252574404E+03  0.18753287798E+03 0.  0.
        -24    2    5    5    0    0  0.16943293214E+03 -0.84440537188E+02  0.22828261582E+03  0.30725033229E+03  0.80324910159E+02 0.  0.
          5    1    3    3  501    0 -0.44110669661E+02 -0.23681739092E+02 -0.93955516371E+00  0.50294619079E+02  0.47000000000E+01 0. -1.
        -13    1    4    4    0    0 -0.49533272462E+02  0.30995158354E+02  0.14082117413E+03  0.15246261183E+03  0.00000000000E+00 0.  1.
         14    1    4    4    0    0 -0.13908272525E+03  0.52355560216E+02  0.13257091566E+03  0.19914857977E+03  0.00000000000E+00 0. -1.
         -5    1    5    5    0  502  0.63293735231E+02  0.24771557709E+02  0.25637711889E+03  0.26527541175E+03  0.47000000000E+01 0.  1.
         11    1    6    6    0    0  0.26737611385E+02 -0.49963252488E+02  0.44609251017E+02  0.72119426912E+02  0.00000000000E+00 0. -1.
        -12    1    6    6    0    0  0.14269532075E+03 -0.34477284699E+02  0.18367336480E+03  0.23513090538E+03  0.00000000000E+00 0.  1.
</event>
<event>
12    1  0.1046899E+000  0.2624680E+03  0.7818608E-02  0.1105898E+00
         21   -1    0    0  501  502  0.00000000000E+00  0.00000000000E+00  0.19855948752E+03  0.19855948752E+03  0.00000000000E+00 0.  1.
         21   -1    0    0  502  503 -0.00000000000E+00 -0.00000000000E+00 -0.35170639857E+03  0.35170639857E+03  0.00000000000E+00 0.  1.
         -6    2    1    2    0  503  0.33999957872E+02  0.19557947453E+03 -0.38583783376E+02  0.26528886519E+03  0.17170365651E+03 0.  0.
        -24    2    3    3    0    0  0.50253881827E+02  0.34902352272E+02 -0.19013773618E+02  0.10254242761E+03  0.80061220580E+02 0.  0.
          6    2    1    2  501    0 -0.33999957872E+02 -0.19557947453E+03 -0.11456312767E+03  0.28497702089E+03  0.16935130415E+03 0.  0.
         24    2    5    5    0    0 -0.82410978739E+00 -0.11991067363E+03 -0.54769008448E+00  0.14409403989E+03  0.79897081051E+02 0.  0.
          5    1    5    5  501    0 -0.33175848085E+02 -0.75668800906E+02 -0.11401543759E+03  0.14088298100E+03  0.47000000000E+01 0. -1.
        -11    1    6    6    0    0  0.22049245169E+01 -0.73261193671E+02  0.38854132485E+02  0.82956059461E+02  0.00000000000E+00 0.  1.
         12    1    6    6    0    0 -0.30290343043E+01 -0.46649479958E+02 -0.39401822569E+02  0.61137980429E+02  0.00000000000E+00 0. -1.
         -5    1    3    3    0  503 -0.16253923955E+02  0.16067712226E+03 -0.19570009757E+02  0.16274643758E+03  0.47000000000E+01 0.  1.
         11    1    4    4    0    0  0.17760831843E+02  0.50350422703E+01  0.30850378215E+02  0.35951976780E+02  0.00000000000E+00 0. -1.
        -12    1    4    4    0    0  0.32493049984E+02  0.29867310002E+02 -0.49864151833E+02  0.66590450833E+02  0.00000000000E+00 0.  1.
</event>
<event>
12    1  0.1046899E+000  0.2502011E+03  0.7818608E-02  0.1113389E+00
         21   -1    0    0  501  502  0.00000000000E+00  0.00000000000E+00  0.89933814461E+02  0.89933814461E+02  0.00000000000E+00 0.  1.
         21   -1    0    0  502  503 -0.00000000000E+00 -0.00000000000E+00 -0.10686218311E+04  0.10686218311E+04  0.00000000000E+00 0.  1.
         -6    2    1    2    0  503 -0.17810272999E+03 -0.29911586495E+02 -0.14646419199E+03  0.28991785456E+03  0.17316269062E+03 0.  0.
        -24    2    3    3    0    0 -0.19667469879E+03  0.12137126471E+01 -0.11448126125E+03  0.24135140390E+03  0.80387379251E+02 0.  0.
          6    2    1    2  501    0  0.17810272999E+03  0.29911586495E+02 -0.83222382468E+03  0.86863779103E+03  0.17123034837E+03 0.  0.
         24    2    5    5    0    0  0.17189429421E+03 -0.57456857156E+00 -0.80327260176E+03  0.82588017610E+03  0.85341748487E+02 0.  0.
          5    1    5    5  501    0  0.62084357749E+01  0.30486155066E+02 -0.28951222924E+02  0.42757614928E+02  0.47000000000E+01 0. -1.
        -11    1    6    6    0    0  0.58944708653E+02  0.21854406528E+02 -0.15170423750E+03  0.16421409634E+03  0.00000000000E+00 0.  1.
         12    1    6    6    0    0  0.11294958556E+03 -0.22428975100E+02 -0.65156836426E+03  0.66166607976E+03  0.00000000000E+00 0. -1.
         -5    1    3    3    0  503  0.18571968803E+02 -0.31125299142E+02 -0.31982930736E+02  0.48566450667E+02  0.47000000000E+01 0.  1.
         11    1    4    4    0    0 -0.13205950420E+03 -0.23192333662E+02 -0.40330589206E+02  0.14001483284E+03  0.00000000000E+00 0. -1.
        -12    1    4    4    0    0 -0.64615194591E+02  0.24406046309E+02 -0.74150672047E+02  0.10133657106E+03  0.00000000000E+00 0.  1.
</event>
<event>
12    1  0.1046899E+000  0.3580620E+03  0.7818608E-02  0.1059370E+00
         21   -1    0    0  503  502  0.00000000000E+00  0.00000000000E+00  0.11968429431E+04  0.11968429431E+04  0.00000000000E+00 0.  1.
         21   -1    0    0  501  503 -0.00000000000E+00 -0.00000000000E+00 -0.11605910037E+03  0.11605910037E+03  0.00000000000E+00 0.  1.
          6    2    1    2  501    0 -0.24995474530E+03  0.18986555628E+03  0.72317667281E+03  0.80696524892E+03  0.17228496368E+03 0.  0.
         24    2    3    3    0    0 -0.47352869876E+02  0.11452389181E+03  0.25234355356E+03  0.28886313301E+03  0.66382411127E+02 0.  0.
         -6    2    1    2    0  502  0.24995474530E+03 -0.18986555628E+03  0.35760716991E+03  0.50593679454E+03  0.17193850045E+03 0.  0.
        -24    2    5    5    0    0  0.21223906855E+03 -0.17720133769E+03  0.36618526975E+03  0.46496694584E+03  0.75212184160E+02 0.  0.
          5    1    3    3  501    0 -0.20260187542E+03  0.75341664471E+02  0.47083311924E+03  0.51810211591E+03  0.47000000000E+01 0. -1.
        -11    1    4    4    0    0  0.61444902084E+01  0.83096833836E+01  0.72637866436E+02  0.73369375343E+02  0.00000000000E+00 0.  1.
         12    1    4    4    0    0 -0.53497360085E+02  0.10621420843E+03  0.17970568713E+03  0.21549375767E+03  0.00000000000E+00 0. -1.
         -5    1    5    5    0  502  0.37715676752E+02 -0.12664218594E+02 -0.85780998400E+01  0.40969848698E+02  0.47000000000E+01 0.  1.
         13    1    6    6    0    0  0.11195568516E+03 -0.13227058260E+03  0.25773096913E+03  0.31057178705E+03  0.00000000000E+00 0. -1.
        -14    1    6    6    0    0  0.10028338338E+03 -0.44930755095E+02  0.10845430062E+03  0.15439515880E+03  0.00000000000E+00 0.  1.
</event>
<event>
12    1  0.1046899E+000  0.4532950E+03  0.7818608E-02  0.1026745E+00
         21   -1    0    0  501  502  0.00000000000E+00  0.00000000000E+00  0.50686005796E+03  0.50686005796E+03  0.00000000000E+00 0.  1.
         21   -1    0    0  502  503 -0.00000000000E+00 -0.00000000000E+00 -0.40537547657E+03  0.40537547657E+03  0.00000000000E+00 0.  1.
         -6    2    1    2    0  503  0.46051035793E+02  0.41667212254E+03  0.50854559425E+02  0.45612179008E+03  0.17240807860E+03 0.  0.
        -24    2    3    3    0    0  0.64275799738E+02  0.13937789317E+03 -0.56837131060E+01  0.17249721793E+03  0.78520125208E+02 0.  0.
          6    2    1    2  501    0 -0.46051035793E+02 -0.41667212254E+03  0.50630021964E+02  0.45611374445E+03  0.17245287227E+03 0.  0.
         24    2    5    5    0    0 -0.67358243532E+02 -0.16723741425E+03 -0.15495513953E+02  0.19714203306E+03  0.78226495184E+02 0.  0.
          5    1    5    5  501    0  0.21307207738E+02 -0.24943470829E+03  0.66125535917E+02  0.25897171139E+03  0.47000000000E+01 0. -1.
        -13    1    6    6    0    0 -0.59539995714E+02 -0.63959167566E+02  0.16105325687E+02  0.88854756321E+02  0.00000000000E+00 0.  1.
         14    1    6    6    0    0 -0.78182478180E+01 -0.10327824669E+03 -0.31600839640E+02  0.10828727674E+03  0.00000000000E+00 0. -1.
         -5    1    3    3    0  503 -0.18224763944E+02  0.27729422938E+03  0.56538272531E+02  0.28362457215E+03  0.47000000000E+01 0.  1.
         11    1    4    4    0    0  0.34103155200E+02  0.12058121968E+03 -0.30714488916E+02  0.12902029129E+03  0.00000000000E+00 0. -1.
        -12    1    4    4    0    0  0.30172644538E+02  0.18796673486E+02  0.25030775810E+02  0.43476926642E+02  0.00000000000E+00 0.  1.
</event>
<event>
12    1  0.1046899E+000  0.2102296E+03  0.7818608E-02  0.1141492E+00
         21   -1    0    0  501  502  0.00000000000E+00  0.00000000000E+00  0.10630956475E+04  0.10630956475E+04  0.00000000000E+00 0.  1.
         21   -1    0    0  502  503 -0.00000000000E+00 -0.00000000000E+00 -0.41630776148E+02  0.41630776148E+02  0.00000000000E+00 0.  1.
         -6    2    1    2    0  503  0.46884206593E+02 -0.11154411549E+03  0.54620052300E+03  0.58526189112E+03  0.17191931640E+03 0.  0.
        -24    2    3    3    0    0 -0.35974437265E+02 -0.81217369535E+02  0.36420888344E+03  0.38295441906E+03  0.78202014392E+02 0.  0.
          6    2    1    2  501    0 -0.46884206593E+02  0.11154411549E+03  0.47526434840E+03  0.51946453257E+03  0.17125122250E+03 0.  0.
         24    2    5    5    0    0 -0.12815249374E+02  0.10728980799E+02  0.32670081380E+03  0.33665972125E+03  0.79542469966E+02 0.  0.
          5    1    5    5  501    0 -0.34068957218E+02  0.10081513469E+03  0.14856353461E+03  0.18280481133E+03  0.47000000000E+01 0. -1.
        -13    1    6    6    0    0 -0.15215752400E+02 -0.30725370167E+02  0.89322006271E+02  0.95676477241E+02  0.00000000000E+00 0.  1.
         14    1    6    6    0    0  0.24005030253E+01  0.41454350965E+02  0.23737880753E+03  0.24098324401E+03  0.00000000000E+00 0. -1.
         -5    1    3    3    0  503  0.82858643857E+02 -0.30326745957E+02  0.18199163956E+03  0.20230747206E+03  0.47000000000E+01 0.  1.
         11    1    4    4    0    0 -0.37441236161E+02 -0.13795312362E+01  0.14097528579E+03  0.14586905249E+03  0.00000000000E+00 0. -1.
        -12    1    4    4    0    0  0.14667988965E+01 -0.79837838299E+02  0.22323359765E+03  0.23708536657E+03  0.00000000000E+00 0.  1.
</event>
<event>
12    1  0.1046899E+000  0.1962015E+03  0.7818608E-02  0.1155956E+00
         21   -1    0    0  503  502  0.00000000000E+00  0.00000000000E+00  0.19324215347E+04  0.19324215347E+04  0.00000000000E+00 0.  1.
         21   -1    0    0  501  503 -0.00000000000E+00 -0.00000000000E+00 -0.20309485969E+02  0.20309485969E+02  0.00000000000E+00 0.  1.
          6    2    1    2  501    0  0.36548403600E+02  0.50761869963E+02  0.64228733397E+03  0.66783809889E+03  0.17193648160E+03 0.  0.
         24    2    3    3    0    0  0.18172018365E+02  0.31618419194E+02  0.14452171497E+03  0.16934350042E+03  0.80378780500E+02 0.  0.
         -6    2    1    2    0  502 -0.36548403600E+02 -0.50761869963E+02  0.12698247147E+04  0.12848929218E+04  0.18596360118E+03 0.  0.
        -24    2    5    5    0    0 -0.15796338743E+02  0.46539676799E+02  0.49104176921E+03  0.49976668640E+03  0.78925635189E+02 0.  0.
          5    1    3    3  501    0  0.18376385236E+02  0.19143450769E+02  0.49776561901E+03  0.49849459847E+03  0.47000000000E+01 0. -1.
        -13    1    4    4    0    0  0.16950190350E+02 -0.19736666680E+02  0.93069948096E+02  0.96637778344E+02  0.00000000000E+00 0.  1.
         14    1    4    4    0    0  0.12218280150E+01  0.51355085875E+02  0.51451766869E+02  0.72705722078E+02  0.00000000000E+00 0. -1.
         -5    1    5    5    0  502 -0.20752064858E+02 -0.97301546762E+02  0.77878294554E+03  0.78512623537E+03  0.47000000000E+01 0.  1.
         13    1    6    6    0    0 -0.12104807131E+01  0.13487988938E+02  0.87485693224E+01  0.16122300529E+02  0.00000000000E+00 0. -1.
        -14    1    6    6    0    0 -0.14585858030E+02  0.33051687861E+02  0.48229319989E+03  0.48364438587E+03  0.00000000000E+00 0.  1.
</event>
<event>
12    1  0.1046899E+000  0.1894316E+03  0.7818608E-02  0.1160841E+00
         21   -1    0    0  501  502  0.00000000000E+00  0.00000000000E+00  0.60686370213E+02  0.60686370213E+02  0.00000000000E+00 0. -1.
         21   -1    0    0  502  503 -0.00000000000E+00 -0.00000000000E+00 -0.92600999177E+03  0.92600999177E+03  0.00000000000E+00 0. -1.
         -6    2    1    2    0  503 -0.18058828316E+02 -0.81472712248E+02 -0.11952956411E+03  0.21722050767E+03  0.16103884046E+03 0.  0.
        -24    2    3    3    0    0 -0.67130143860E+02 -0.44973958227E+02 -0.10228851024E+03  0.15350632563E+03  0.81068733484E+02 0.  0.
          6    2    1    2  501    0  0.18058828316E+02  0.81472712248E+02 -0.74579405745E+03  0.76947585431E+03  0.17005996038E+03 0.  0.
         24    2    5    5    0    0  0.55535884342E+02  0.73637991486E+02 -0.32732938256E+03  0.34923700947E+03  0.79468080778E+02 0.  0.
          5    1    5    5  501    0 -0.37477056026E+02  0.78347207619E+01 -0.41846467489E+03  0.42023884484E+03  0.47000000000E+01 0. -1.
        -13    1    6    6    0    0  0.36485358316E+02  0.89444782627E+02 -0.27122968014E+03  0.28791854733E+03  0.00000000000E+00 0.  1.
         14    1    6    6    0    0  0.19050526026E+02 -0.15806791141E+02 -0.56099702419E+02  0.61318462142E+02  0.00000000000E+00 0. -1.
         -5    1    3    3    0  503  0.49071315544E+02 -0.36498754021E+02 -0.17241053870E+02  0.63714182039E+02  0.47000000000E+01 0.  1.
         11    1    4    4    0    0 -0.33613107032E+02  0.12213896357E+02 -0.72486560240E+02  0.80828965377E+02  0.00000000000E+00 0. -1.
        -12    1    4    4    0    0 -0.33517036829E+02 -0.57187854584E+02 -0.29801949996E+02  0.72677360252E+02  0.00000000000E+00 0.  1.
</event>
<event>
12    1  0.1046899E+000  0.3362782E+03  0.7818608E-02  0.1068405E+00
         21   -1    0    0  503  502  0.00000000000E+00  0.00000000000E+00  0.47421111976E+03  0.47421111976E+03  0.00000000000E+00 0.  1.
         21   -1    0    0  501  503 -0.00000000000E+00 -0.00000000000E+00 -0.24881693255E+03  0.24881693255E+03  0.00000000000E+00 0. -1.
          6    2    1    2  501    0 -0.28834173333E+03 -0.22013459865E+02  0.38643756213E+02  0.33837402893E+03  0.17140039662E+03 0.  0.
         24    2    3    3    0    0 -0.28948795143E+03 -0.50265838866E+02  0.24146782269E+02  0.30625296125E+03  0.82932988617E+02 0.  0.
         -6    2    1    2    0  502  0.28834173333E+03  0.22013459865E+02  0.18675043100E+03  0.38465402339E+03  0.17163171802E+03 0.  0.
        -24    2    5    5    0    0  0.25589975980E+03  0.59826317028E+02  0.11482769252E+03  0.29703402496E+03  0.77330057145E+02 0.  0.
          5    1    3    3  501    0  0.11462180958E+01  0.28252379001E+02  0.14496973943E+02  0.32121067676E+02  0.47000000000E+01 0. -1.
        -13    1    4    4    0    0 -0.38398925023E+02 -0.37767317185E+02  0.61551154985E+01  0.54210083352E+02  0.00000000000E+00 0.  1.
         14    1    4    4    0    0 -0.25108902641E+03 -0.12498521681E+02  0.17991666771E+02  0.25204287790E+03  0.00000000000E+00 0. -1.
         -5    1    5    5    0  502  0.32441973531E+02 -0.37812857163E+02  0.71922738479E+02  0.87619998423E+02  0.47000000000E+01 0.  1.
         13    1    6    6    0    0  0.17598305885E+03  0.52544504338E+02  0.11517376765E+03  0.21678551310E+03  0.00000000000E+00 0. -1.
        -14    1    6    6    0    0  0.79916700954E+02  0.72818126893E+01 -0.34607512126E+00  0.80248511857E+02  0.00000000000E+00 0.  1.
</event>
<event>
12    1  0.1046899E+000  0.1806086E+03  0.7818608E-02  0.1167998E+00
         21   -1    0    0  501  502  0.00000000000E+00  0.00000000000E+00  0.13469008398E+04  0.13469008398E+04  0.00000000000E+00 0. -1.
         21   -1    0    0  502  503 -0.00000000000E+00 -0.00000000000E+00 -0.43625486808E+02  0.43625486808E+02  0.00000000000E+00 0. -1.
         -6    2    1    2    0  503 -0.39722326936E+02  0.13610709854E+02  0.11236492686E+04  0.11380716738E+04  0.17565973150E+03 0.  0.
        -24    2    3    3    0    0  0.18635714648E+02 -0.40545749621E+02  0.77155048760E+03  0.77705335753E+03  0.80811619622E+02 0.  0.
          6    2    1    2  501    0  0.39722326936E+02 -0.13610709854E+02  0.17962608440E+03  0.25245465279E+03  0.17235053477E+03 0.  0.
         24    2    5    5    0    0  0.70648248452E+02 -0.98511857354E+01  0.19091952192E+03  0.21898558686E+03  0.80101201831E+02 0.  0.
          5    1    5    5  501    0 -0.30925921516E+02 -0.37595241185E+01 -0.11293437512E+02  0.33469065927E+02  0.47000000000E+01 0. -1.
        -11    1    6    6    0    0  0.31697307323E+02 -0.19926548229E+02  0.18176839348E+02  0.41619515909E+02  0.00000000000E+00 0.  1.
         12    1    6    6    0    0  0.38950941129E+02  0.10075362494E+02  0.17274268257E+03  0.17736607095E+03  0.00000000000E+00 0. -1.
         -5    1    3    3    0  503 -0.58358041584E+02  0.54156459475E+02  0.35209878097E+03  0.36101831627E+03  0.47000000000E+01 0.  1.
         13    1    4    4    0    0 -0.22605747378E+02 -0.40575397435E+02  0.28520715815E+03  0.28896454064E+03  0.00000000000E+00 0. -1.
        -14    1    4    4    0    0  0.41241462027E+02  0.29647813144E-01  0.48634332945E+03  0.48808881689E+03  0.00000000000E+00 0.  1.
</event>
<event>
12    1  0.1046899E+000  0.1926125E+03  0.7818608E-02  0.1156236E+00
         21   -1    0    0  503  502  0.00000000000E+00  0.00000000000E+00  0.31070094451E+03  0.31070094451E+03  0.00000000000E+00 0.  1.
         21   -1    0    0  501  503 -0.00000000000E+00 -0.00000000000E+00 -0.15780087896E+03  0.15780087896E+03  0.00000000000E+00 0.  1.
          6    2    1    2  501    0 -0.61811889522E+02  0.58282502915E+02  0.19238558514E+03  0.27188368926E+03  0.17231067083E+03 0.  0.
         24    2    3    3    0    0 -0.10165840598E+02  0.96336938009E+02  0.10106004261E+03  0.16017917225E+03  0.77846548232E+02 0.  0.
         -6    2    1    2    0  502  0.61811889522E+02 -0.58282502915E+02 -0.39485519590E+02  0.19661813422E+03  0.17286417967E+03 0.  0.
        -24    2    5    5    0    0  0.10518186599E+03 -0.20577037239E+02 -0.17894099091E+02  0.13504755325E+03  0.80193537532E+02 0.  0.
          5    1    3    3  501    0 -0.51646048923E+02 -0.38054435094E+02  0.91325542535E+02  0.11170451700E+03  0.47000000000E+01 0. -1.
        -13    1    4    4    0    0 -0.30173632758E+02  0.83186655169E+01  0.41725970230E+02  0.52160376738E+02  0.00000000000E+00 0.  1.
         14    1    4    4    0    0  0.20007792159E+02  0.88018272492E+02  0.59334072378E+02  0.10801879552E+03  0.00000000000E+00 0. -1.
         -5    1    5    5    0  502 -0.43369976471E+02 -0.37705465676E+02 -0.21591420499E+02  0.61570580963E+02  0.47000000000E+01 0.  1.
         11    1    6    6    0    0 -0.21043014704E+01  0.28467212741E+01  0.18904025837E+02  0.19232631113E+02  0.00000000000E+00 0. -1.
        -12    1    6    6    0    0  0.10728616746E+03 -0.23423758513E+02 -0.36798124928E+02  0.11581492214E+03  0.00000000000E+00 0.  1.
</event>
<event>
12    1  0.1046899E+000  0.3059327E+03  0.7818608E-02  0.1082605E+00
         21   -1    0    0  501  502  0.00000000000E+00  0.00000000000E+00  0.32091223855E+03  0.32091223855E+03  0.00000000000E+00 0. -1.
         21   -1    0    0  502  503 -0.00000000000E+00 -0.00000000000E+00 -0.29265403740E+03  0.29265403740E+03  0.00000000000E+00 0. -1.
         -6    2    1    2    0  503  0.56718980870E+02 -0.24570945000E+03 -0.18295868798E+02  0.30647930138E+03  0.17321849423E+03 0.  0.
        -24    2    3    3    0    0  0.10146399447E+03 -0.15208621311E+03 -0.26638056966E+02  0.20227225347E+03  0.82336626451E+02 0.  0.
          6    2    1    2  501    0 -0.56718980870E+02  0.24570945000E+03  0.46554069949E+02  0.30708697457E+03  0.16895251377E+03 0.  0.
         24    2    5    5    0    0 -0.23640835981E+02  0.25355867314E+03  0.30137456261E+02  0.26904266911E+03  0.81392884714E+02 0.  0.
          5    1    5    5  501    0 -0.33078144890E+02 -0.78492231324E+01  0.16416613687E+02  0.38044305462E+02  0.47000000000E+01 0. -1.
        -11    1    6    6    0    0  0.26058161735E+01  0.13234364599E+03  0.53616366107E+02  0.14281577513E+03  0.00000000000E+00 0.  1.
         12    1    6    6    0    0 -0.26246652154E+02  0.12121502714E+03 -0.23478909845E+02  0.12622689397E+03  0.00000000000E+00 0. -1.
         -5    1    3    3    0  503 -0.44745013599E+02 -0.93623236897E+02  0.83421881681E+01  0.10420704790E+03  0.47000000000E+01 0.  1.
         13    1    4    4    0    0  0.26400094156E+02  0.44734240714E+01 -0.12942583887E+01  0.26807677988E+02  0.00000000000E+00 0. -1.
        -14    1    4    4    0    0  0.75063900314E+02 -0.15655963718E+03 -0.25343798578E+02  0.17546457549E+03  0.00000000000E+00 0.  1.
</event>
<event>
12    1  0.1046899E+000  0.1854073E+03  0.7818608E-02  0.1162704E+00
         21   -1    0    0  503  502  0.00000000000E+00  0.00000000000E+00  0.63869669214E+03  0.63869669214E+03  0.00000000000E+00 0. -1.
         21   -1    0    0  501  503 -0.00000000000E+00 -0.00000000000E+00 -0.86256345799E+02  0.86256345799E+02  0.00000000000E+00 0. -1.
          6    2    1    2  501    0 -0.65235558637E+02 -0.18371379663E+02  0.49857104721E+03  0.53187856176E+03  0.17241963241E+03 0.  0.
         24    2    3    3    0    0 -0.25253216045E+02  0.39363267772E+02  0.39866090159E+03  0.40966561469E+03  0.81903660677E+02 0.  0.
         -6    2    1    2    0  502  0.65235558637E+02  0.18371379663E+02  0.53869299133E+02  0.19307447618E+03  0.17257655189E+03 0.  0.
        -24    2    5    5    0    0  0.60504459784E+02  0.64534733817E+02  0.76286899731E+02  0.14132433242E+03  0.79544668837E+02 0.  0.
          5    1    3    3  501    0 -0.39982342592E+02 -0.57734647436E+02  0.99910145625E+02  0.12221294707E+03  0.47000000000E+01 0. -1.
        -13    1    4    4    0    0 -0.26214633188E+02  0.81227468479E-01  0.32606960192E+03  0.32712168820E+03  0.00000000000E+00 0.  1.
         14    1    4    4    0    0  0.96141714265E+00  0.39282040304E+02  0.72591299664E+02  0.82543926489E+02  0.00000000000E+00 0. -1.
         -5    1    5    5    0  502  0.47310988525E+01 -0.46163354154E+02 -0.22417600597E+02  0.51750143764E+02  0.47000000000E+01 0.  1.
         11    1    6    6    0    0  0.49215375177E+01 -0.18150198808E+02  0.74571693541E+01  0.20230190881E+02  0.00000000000E+00 0. -1.
        -12    1    6    6    0    0  0.55582922267E+02  0.82684932625E+02  0.68829730377E+02  0.12109414154E+03  0.00000000000E+00 0.  1.
</event>
<event>
12    1  0.1046899E+000  0.8496143E+03  0.7818608E-02  0.9491081E-01
         21   -1    0    0  501  502  0.00000000000E+00  0.00000000000E+00  0.90584673444E+03  0.90584673444E+03  0.00000000000E+00 0.  1.
         21   -1    0    0  502  503 -0.00000000000E+00 -0.00000000000E+00 -0.89386528898E+03  0.89386528898E+03  0.00000000000E+00 0.  1.
         -6    2    1    2    0  503 -0.83128346545E+03 -0.99737075509E+01 -0.29139220105E+03  0.89755902874E+03  0.17196255539E+03 0.  0.
        -24    2    3    3    0    0 -0.34261674939E+03 -0.58547056261E+02 -0.14526166533E+03  0.38518147940E+03  0.80310808120E+02 0.  0.
          6    2    1    2  501    0  0.83128346545E+03  0.99737075509E+01  0.30337364651E+03  0.90215299468E+03  0.17525062520E+03 0.  0.
         24    2    5    5    0    0  0.23407906316E+03  0.30072321268E+02  0.57511658174E+02  0.25598950166E+03  0.80781692367E+02 0.  0.
          5    1    5    5  501    0  0.59720440230E+03 -0.20098613717E+02  0.24586198834E+03  0.64616349302E+03  0.47000000000E+01 0. -1.
        -13    1    6    6    0    0  0.21994497339E+02  0.29981911930E+02  0.12040813307E+02  0.39085216403E+02  0.00000000000E+00 0.  1.
         14    1    6    6    0    0  0.21208456582E+03  0.90409337697E-01  0.45470844866E+02  0.21690428526E+03  0.00000000000E+00 0. -1.
         -5    1    3    3    0  503 -0.48866671606E+03  0.48573348710E+02 -0.14613053573E+03  0.51237754934E+03  0.47000000000E+01 0.  1.
         11    1    4    4    0    0 -0.17158727078E+03  0.11199172765E+02 -0.65857385558E+02  0.18413258321E+03  0.00000000000E+00 0. -1.
        -12    1    4    4    0    0 -0.17102947861E+03 -0.69746229026E+02 -0.79404279770E+02  0.20104889620E+03  0.00000000000E+00 0.  1.
</event>
<event>
12    1  0.1046899E+000  0.2769659E+03  0.7818608E-02  0.1097438E+00
         21   -1    0    0  503  502  0.00000000000E+00  0.00000000000E+00  0.11156317037E+03  0.11156317037E+03  0.00000000000E+00 0.  1.
         21   -1    0    0  501  503 -0.00000000000E+00 -0.00000000000E+00 -0.79538035357E+03  0.79538035357E+03  0.00000000000E+00 0.  1.
          6    2    1    2  501    0  0.14588373349E+03  0.15960306676E+03 -0.17417740822E+03  0.32718173518E+03  0.17307488464E+03 0.  0.
         24    2    3    3    0    0  0.10652220979E+03  0.12648454460E+03 -0.19845345828E+03  0.27010649831E+03  0.78920365699E+02 0.  0.
         -6    2    1    2    0  502 -0.14588373349E+03 -0.15960306676E+03 -0.50963977499E+03  0.57976178876E+03  0.17215059929E+03 0.  0.
        -24    2    5    5    0    0 -0.76835678439E+02 -0.67678785463E+02 -0.39625956902E+03  0.41822272691E+03  0.86049193959E+02 0.  0.
          5    1    3    3  501    0  0.39361523694E+02  0.33118522154E+02  0.24276050070E+02  0.57075236874E+02  0.47000000000E+01 0. -1.
        -11    1    4    4    0    0  0.31849643443E+02  0.68430859292E+02 -0.13962170918E+03  0.15871800139E+03  0.00000000000E+00 0.  1.
         12    1    4    4    0    0  0.74672566349E+02  0.58053685310E+02 -0.58831749102E+02  0.11138849692E+03  0.00000000000E+00 0. -1.
         -5    1    5    5    0  502 -0.69048055047E+02 -0.91924281293E+02 -0.11338020597E+03  0.16153906185E+03  0.47000000000E+01 0.  1.
         13    1    6    6    0    0 -0.76200460883E+02 -0.85314390460E+02 -0.36263201685E+03  0.38024601918E+03  0.00000000000E+00 0. -1.
        -14    1    6    6    0    0 -0.63521755592E+00  0.17635604997E+02 -0.33627552164E+02  0.37976707723E+02  0.00000000000E+00 0.  1.
</event>
<event>
12    1  0.1046899E+000  0.2788917E+03  0.7818608E-02  0.1096839E+00
         21   -1    0    0  501  502  0.00000000000E+00  0.00000000000E+00  0.55669513635E+02  0.55669513635E+02  0.00000000000E+00 0.  1.
         21   -1    0    0  502  503 -0.00000000000E+00 -0.00000000000E+00 -0.24357240991E+04  0.24357240991E+04  0.00000000000E+00 0.  1.
         -6    2    1    2    0  503  0.72242395471E+02 -0.20130061121E+03 -0.37375647353E+03  0.46634158572E+03  0.17899629407E+03 0.  0.
        -24    2    3    3    0    0  0.64590685895E+02 -0.52784084081E+02 -0.93532980743E+02  0.14906725112E+03  0.80712518437E+02 0.  0.
          6    2    1    2  501    0 -0.72242395471E+02  0.20130061121E+03 -0.20062981119E+04  0.20250520270E+04  0.17280827053E+03 0.  0.
         24    2    5    5    0    0 -0.27758915646E+02  0.27778094560E+02 -0.90338046738E+03  0.90767193750E+03  0.78929698751E+02 0.  0.
          5    1    5    5  501    0 -0.44483479825E+02  0.17352251665E+03 -0.11029176445E+04  0.11173800895E+04  0.47000000000E+01 0. -1.
        -13    1    6    6    0    0 -0.21255028940E+01 -0.19343592479E+02 -0.72643370060E+02  0.75204730877E+02  0.00000000000E+00 0.  1.
         14    1    6    6    0    0 -0.25633412752E+02  0.47121687039E+02 -0.83073709732E+03  0.83246720662E+03  0.00000000000E+00 0. -1.
         -5    1    3    3    0  503  0.76517095765E+01 -0.14851652713E+03 -0.28022349279E+03  0.31727433461E+03  0.47000000000E+01 0.  1.
         13    1    4    4    0    0  0.32598154035E+01 -0.39556766797E+02 -0.42131703382E+01  0.39913844718E+02  0.00000000000E+00 0. -1.
        -14    1    4    4    0    0  0.61330870491E+02 -0.13227317284E+02 -0.89319810405E+02  0.10915340640E+03  0.00000000000E+00 0.  1.
</event>
<event>
12    1  0.1046899E+000  0.2668305E+03  0.7818608E-02  0.1103134E+00
         21   -1    0    0  501  502  0.00000000000E+00  0.00000000000E+00  0.30850113366E+02  0.30850113366E+02  0.00000000000E+00 0. -1.
         21   -1    0    0  502  503 -0.00000000000E+00 -0.00000000000E+00 -0.26386012129E+04  0.26386012129E+04  0.00000000000E+00 0. -1.
         -6    2    1    2    0  503  0.16545374330E+03 -0.11868656136E+03 -0.83060786009E+03  0.87241499258E+03  0.17244437079E+03 0.  0.
        -24    2    3    3    0    0  0.43327141007E+02 -0.10360073916E+03 -0.36367196119E+03  0.38951364376E+03  0.82784231656E+02 0.  0.
          6    2    1    2  501    0 -0.16545374330E+03  0.11868656136E+03 -0.17771432394E+04  0.17970363337E+04  0.17216285913E+03 0.  0.
         24    2    5    5    0    0 -0.16099780177E+03  0.12563517244E+03 -0.17730277743E+04  0.17866842487E+04  0.83118151806E+02 0.  0.
          5    1    5    5  501    0 -0.44559415365E+01 -0.69486110829E+01 -0.41154651000E+01  0.10352085005E+02  0.47000000000E+01 0. -1.
        -13    1    6    6    0    0 -0.43190761035E+02  0.66749974903E+02 -0.93455372583E+03  0.93792945761E+03  0.00000000000E+00 0.  1.
         14    1    6    6    0    0 -0.11780704073E+03  0.58885197538E+02 -0.83847404851E+03  0.84875479107E+03  0.00000000000E+00 0. -1.
         -5    1    3    3    0  503  0.12212660230E+03 -0.15085822200E+02 -0.46693589890E+03  0.48290134883E+03  0.47000000000E+01 0.  1.
         13    1    4    4    0    0  0.14070064329E+02 -0.51533233507E+02 -0.28899744842E+03  0.29389312013E+03  0.00000000000E+00 0. -1.
        -14    1    4    4    0    0  0.29257076678E+02 -0.52067505652E+02 -0.74674512774E+02  0.95620523626E+02  0.00000000000E+00 0.  1.
</event>
<event>
12    1  0.1046899E+000  0.1940394E+03  0.7818608E-02  0.1155064E+00
         21   -1    0    0  503  502  0.00000000000E+00  0.00000000000E+00  0.56763357762E+02  0.56763357762E+02  0.00000000000E+00 0. -1.
         21   -1    0    0  501  503 -0.00000000000E+00 -0.00000000000E+00 -0.66835883708E+03  0.66835883708E+03  0.00000000000E+00 0. -1.
          6    2    1    2  501    0  0.54653541352E+02 -0.69691268400E+02 -0.34502354472E+03  0.39540735080E+03  0.17164452856E+03 0.  0.
         24    2    3    3    0    0  0.96271295448E+02 -0.43493995907E+02 -0.30264224026E+03  0.33031818497E+03  0.79736363856E+02 0.  0.
         -6    2    1    2    0  502 -0.54653541352E+02  0.69691268400E+02 -0.26657193460E+03  0.32971484404E+03  0.17264819602E+03 0.  0.
        -24    2    5    5    0    0 -0.10430582166E+02 -0.21553895535E+02 -0.76219127190E+02  0.11398901956E+03  0.81306664995E+02 0.  0.
          5    1    3    3  501    0 -0.41617754096E+02 -0.26197272492E+02 -0.42381304457E+02  0.65089165838E+02  0.47000000000E+01 0. -1.
        -11    1    4    4    0    0  0.58930703486E+02  0.16175609422E+02 -0.12209275772E+03  0.13653248567E+03  0.00000000000E+00 0.  1.
         12    1    4    4    0    0  0.37340591962E+02 -0.59669605329E+02 -0.18054948254E+03  0.19378569930E+03  0.00000000000E+00 0. -1.
         -5    1    5    5    0  502 -0.44222959187E+02  0.91245163934E+02 -0.19035280741E+03  0.21572582449E+03  0.47000000000E+01 0.  1.
         13    1    6    6    0    0 -0.10327641729E+02 -0.43727001691E+02 -0.79750648770E+02  0.91536205077E+02  0.00000000000E+00 0. -1.
        -14    1    6    6    0    0 -0.10294043614E+00  0.22173106157E+02  0.35315215794E+01  0.22452814479E+02  0.00000000000E+00 0.  1.
</event>
<event>
12    1  0.1046899E+000  0.2096962E+03  0.7818608E-02  0.1144101E+00
         21   -1    0    0  503  502  0.00000000000E+00  0.00000000000E+00  0.36531172611E+02  0.36531172611E+02  0.00000000000E+00 0.  1.
         21   -1    0    0  501  503 -0.00000000000E+00 -0.00000000000E+00 -0.13267138116E+04  0.13267138116E+04  0.00000000000E+00 0.  1.
          6    2    1    2  501    0  0.35631399214E+02 -0.91573865904E+02 -0.37427231781E+03  0.42363643290E+03  0.17243169627E+03 0.  0.
         24    2    3    3    0    0  0.53816825540E+02 -0.11292012222E+03 -0.36460443207E+03  0.39360427673E+03  0.79628701263E+02 0.  0.
         -6    2    1    2    0  502 -0.35631399214E+02  0.91573865904E+02 -0.91591032115E+03  0.93960855127E+03  0.18524886968E+03 0.  0.
        -24    2    5    5    0    0 -0.10871087433E+02  0.12270852185E+03 -0.85226595599E+03  0.86440791925E+03  0.75287643386E+02 0.  0.
          5    1    3    3  501    0 -0.18185426326E+02  0.21346256320E+02 -0.96678857409E+01  0.30032156170E+02  0.47000000000E+01 0. -1.
        -13    1    4    4    0    0  0.14421110663E+02  0.77922964152E+01 -0.17379931101E+02  0.23890381354E+02  0.00000000000E+00 0.  1.
         14    1    4    4    0    0  0.39395714876E+02 -0.12071241864E+03 -0.34722450096E+03  0.36971389538E+03  0.00000000000E+00 0. -1.
         -5    1    5    5    0  502 -0.24760311781E+02 -0.31134655948E+02 -0.63644365156E+02  0.75200632023E+02  0.47000000000E+01 0.  1.
         11    1    6    6    0    0 -0.10155441311E+02  0.11398203129E+03 -0.53872084724E+03  0.55074058113E+03  0.00000000000E+00 0. -1.
        -12    1    6    6    0    0 -0.71564612177E+00  0.87264905630E+01 -0.31354510875E+03  0.31366733812E+03  0.00000000000E+00 0.  1.
</event>
<event>
12    1  0.1046899E+000  0.2274596E+03  0.7818608E-02  0.1128860E+00
         21   -1    0    0  503  502  0.00000000000E+00  0.00000000000E+00  0.48939460660E+03  0.48939460660E+03  0.00000000000E+00 0.  1.
         21   -1    0    0  501  503 -0.00000000000E+00 -0.00000000000E+00 -0.15394942557E+03  0.15394942557E+03  0.00000000000E+00 0.  1.
          6    2    1    2  501    0  0.77195059147E+02 -0.12760155252E+03  0.35036531495E+03  0.41772444203E+03  0.17174580691E+03 0.  0.
         24    2    3    3    0    0  0.11336479580E+03 -0.75307525958E+02  0.22380262402E+03  0.27600951763E+03  0.87010567825E+02 0.  0.
         -6    2    1    2    0  502 -0.77195059147E+02  0.12760155252E+03 -0.14920133922E+02  0.22561959014E+03  0.16864268646E+03 0.  0.
        -24    2    5    5    0    0 -0.10691241923E+03  0.51349570756E+02 -0.19733321998E+00  0.14233491524E+03  0.78690185885E+02 0.  0.
          5    1    3    3  501    0 -0.36169736650E+02 -0.52294026560E+02  0.12656269093E+03  0.14171492440E+03  0.47000000000E+01 0. -1.
        -13    1    4    4    0    0  0.20399758343E+02 -0.45873421474E+02  0.28534865163E+02  0.57747376287E+02  0.00000000000E+00 0.  1.
         14    1    4    4    0    0  0.92965037454E+02 -0.29434104484E+02  0.19526775885E+03  0.21826214134E+03  0.00000000000E+00 0. -1.
         -5    1    5    5    0  502  0.29717360079E+02  0.76251981762E+02 -0.14722800702E+02  0.83284674900E+02  0.47000000000E+01 0.  1.
         11    1    6    6    0    0 -0.59607043464E+02  0.66294079868E+02 -0.15349393747E+02  0.90462746722E+02  0.00000000000E+00 0. -1.
        -12    1    6    6    0    0 -0.47305375761E+02 -0.14944509112E+02  0.15152060527E+02  0.51872168518E+02  0.00000000000E+00 0.  1.
</event>
<event>
12    1  0.1046899E+000  0.1766379E+03  0.7818608E-02  0.1171289E+00
         21   -1    0    0  501  502  0.00000000000E+00  0.00000000000E+00  0.13328865342E+03  0.13328865342E+03  0.00000000000E+00 0. -1.
         21   -1    0    0  502  503 -0.00000000000E+00 -0.00000000000E+00 -0.28149121987E+03  0.28149121987E+03  0.00000000000E+00 0. -1.
         -6    2    1    2    0  503  0.59816600040E+00  0.40146019495E+02 -0.15998571832E+03  0.23774943934E+03  0.17122296912E+03 0.  0.
        -24    2    3    3    0    0  0.28977224970E+02  0.79063747224E+02 -0.70150563948E+02  0.13570824432E+03  0.80030433343E+02 0.  0.
          6    2    1    2  501    0 -0.59816600040E+00 -0.40146019495E+02  0.11783151872E+02  0.17703043395E+03  0.17201415987E+03 0.  0.
         24    2    5    5    0    0 -0.48228469294E+00  0.37674530719E+02  0.34849024165E+02  0.95727445518E+02  0.80806475463E+02 0.  0.
          5    1    5    5  501    0 -0.11588130746E+00 -0.77820550214E+02 -0.23065872293E+02  0.81302988437E+02  0.47000000000E+01 0. -1.
        -11    1    6    6    0    0 -0.24620351159E+01  0.29092202306E+02  0.61273442115E+02  0.67873798778E+02  0.00000000000E+00 0.  1.
         12    1    6    6    0    0  0.19797504230E+01  0.85823284138E+01 -0.26424417950E+02  0.27853646740E+02  0.00000000000E+00 0. -1.
         -5    1    3    3    0  503 -0.28379058970E+02 -0.38917727729E+02 -0.89835154376E+02  0.10204119502E+03  0.47000000000E+01 0.  1.
         11    1    4    4    0    0 -0.23972332327E+02  0.18417062518E+02 -0.21188338284E+01  0.30304296160E+02  0.00000000000E+00 0. -1.
        -12    1    4    4    0    0  0.52949557297E+02  0.60646684706E+02 -0.68031730119E+02  0.10540394816E+03  0.00000000000E+00 0.  1.
</event>
<event>
12    1  0.1046899E+000  0.2421060E+03  0.7818608E-02  0.1118438E+00
         21   -1    0    0  503  502  0.00000000000E+00  0.00000000000E+00  0.97160598526E+02  0.97160598526E+02  0.00000000000E+00 0. -1.
         21   -1    0    0  501  503 -0.00000000000E+00 -0.00000000000E+00 -0.83778188935E+03  0.83778188935E+03  0.00000000000E+00 0. -1.
          6    2    1    2  501    0  0.12676051669E+03 -0.11396664077E+03 -0.12253495285E+03  0.27113075765E+03  0.17158219394E+03 0.  0.
         24    2    3    3    0    0  0.71421600098E+02 -0.11998008105E+03 -0.14235642553E+03  0.21185565384E+03  0.71562569560E+02 0.  0.
         -6    2    1    2    0  502 -0.12676051669E+03  0.11396664077E+03 -0.61808633798E+03  0.66381173022E+03  0.17192634523E+03 0.  0.
        -24    2    5    5    0    0 -0.84384370826E+02  0.14049773942E+03 -0.39047887684E+03  0.43073044977E+03  0.78705973562E+02 0.  0.
          5    1    3    3  501    0  0.55338916588E+02  0.60134402779E+01  0.19821472688E+02  0.59275103818E+02  0.47000000000E+01 0. -1.
        -13    1    4    4    0    0  0.40958475241E+01 -0.74898889266E+01 -0.51855258144E+02  0.52553232063E+02  0.00000000000E+00 0.  1.
         14    1    4    4    0    0  0.67325752574E+02 -0.11249019213E+03 -0.90501167389E+02  0.15930242177E+03  0.00000000000E+00 0. -1.
         -5    1    5    5    0  502 -0.42376145860E+02 -0.26531098646E+02 -0.22760746114E+03  0.23308128046E+03  0.47000000000E+01 0.  1.
         13    1    6    6    0    0  0.18140462130E+01  0.64787155933E+02 -0.17493605134E+03  0.18655639468E+03  0.00000000000E+00 0. -1.
        -14    1    6    6    0    0 -0.86198417039E+02  0.75710583487E+02 -0.21554282550E+03  0.24417405509E+03  0.00000000000E+00 0.  1.
</event>
<event>
12    1  0.1046899E+000  0.2818182E+03  0.7818608E-02  0.1095066E+00
         21   -1    0    0  503  502  0.00000000000E+00  0.00000000000E+00  0.14025576710E+03  0.14025576710E+03  0.00000000000E+00 0.  1.
         21   -1    0    0  501  503 -0.00000000000E+00 -0.00000000000E+00 -0.60717078314E+03  0.60717078314E+03  0.00000000000E+00 0.  1.
          6    2    1    2  501    0 -0.10132130407E+03  0.19852314913E+03 -0.33769376041E+03  0.43983927414E+03  0.17246467422E+03 0.  0.
         24    2    3    3    0    0 -0.12850637040E+03  0.20152672141E+03 -0.28163615612E+03  0.37728854052E+03  0.76816741004E+02 0.  0.
         -6    2    1    2    0  502  0.10132130407E+03 -0.19852314913E+03 -0.12922125563E+03  0.30758727610E+03  0.16803080704E+03 0.  0.
        -24    2    5    5    0    0  0.13982892141E+02 -0.82284355255E+02 -0.11276514041E+03  0.16118936243E+03  0.79371262284E+02 0.  0.
          5    1    3    3  501    0  0.27185066327E+02 -0.30035722786E+01 -0.56057604288E+02  0.62550733618E+02  0.47000000000E+01 0. -1.
        -11    1    4    4    0    0 -0.44152631872E+02  0.15811655214E+02 -0.47201502476E+02  0.66539050022E+02  0.00000000000E+00 0.  1.
         12    1    4    4    0    0 -0.84353738523E+02  0.18571506619E+03 -0.23443465364E+03  0.31074949050E+03  0.00000000000E+00 0. -1.
         -5    1    5    5    0  502  0.87338411927E+02 -0.11623879388E+03 -0.16456115216E+02  0.14639791367E+03  0.47000000000E+01 0.  1.
         11    1    6    6    0    0  0.36419218109E+02 -0.84125025986E+02 -0.81484337285E+02  0.12265022082E+03  0.00000000000E+00 0. -1.
        -12    1    6    6    0    0 -0.22436325968E+02  0.18406707314E+01 -0.31280803127E+02  0.38539141609E+02  0.00000000000E+00 0.  1.
</event>
<event>
12    1  0.1046899E+000  0.2075269E+03  0.7818608E-02  0.1146005E+00
         21   -1    0    0  501  502  0.00000000000E+00  0.00000000000E+00  0.15190155183E+03  0.15190155183E+03  0.00000000000E+00 0.  1.
         21   -1    0    0  502  503 -0.00000000000E+00 -0.00000000000E+00 -0.67115447847E+03  0.67115447847E+03  0.00000000000E+00 0.  1.
         -6    2    1    2    0  503 -0.51240359519E+02 -0.81857007707E+02  0.56409210371E+02  0.21505675958E+03  0.18368796006E+03 0.  0.
        -24    2    3    3    0    0 -0.50697433816E+02 -0.89455309348E+02 -0.26256944185E+02  0.13190742365E+03  0.78343213680E+02 0.  0.
          6    2    1    2  501    0  0.51240359519E+02  0.81857007707E+02 -0.57566213701E+03  0.60799927073E+03  0.17014720997E+03 0.  0.
         24    2    5    5    0    0  0.20200194839E+02 -0.23758612988E+02 -0.30387061365E+03  0.31472316647E+03  0.75768081068E+02 0.  0.
          5    1    5    5  501    0  0.31040164680E+02  0.10561562069E+03 -0.27179152336E+03  0.29327610426E+03  0.47000000000E+01 0. -1.
        -13    1    6    6    0    0 -0.86472450557E+01 -0.42590263872E+02 -0.21624355448E+03  0.22056740530E+03  0.00000000000E+00 0.  1.
         14    1    6    6    0    0  0.28847439895E+02  0.18831650884E+02 -0.87627059167E+02  0.94155761172E+02  0.00000000000E+00 0. -1.
         -5    1    3    3    0  503 -0.54292570303E+00  0.75983016417E+01  0.82666154556E+02  0.83149335928E+02  0.47000000000E+01 0.  1.
         11    1    4    4    0    0 -0.39555147879E+02 -0.52679025865E+02  0.22693591131E+02  0.69675595213E+02  0.00000000000E+00 0. -1.
        -12    1    4    4    0    0 -0.11142285937E+02 -0.36776283483E+02 -0.48950535316E+02  0.62231828436E+02  0.00000000000E+00 0.  1.
</event>
<event>
12    1  0.1046899E+000  0.2096398E+03  0.7818608E-02  0.1142861E+00
         21   -1    0    0  501  502  0.00000000000E+00  0.00000000000E+00  0.32239076748E+03  0.32239076748E+03  0.00000000000E+00 0. -1.
         21   -1    0    0  502  503 -0.00000000000E+00 -0.00000000000E+00 -0.15301808370E+03  0.15301808370E+03  0.00000000000E+00 0. -1.
         -6    2    1    2    0  503  0.48096304470E+02  0.98769377291E+02  0.17138635140E+03  0.27078058974E+03  0.17855027846E+03 0.  0.
        -24    2    3    3    0    0  0.20163888578E+01  0.45712792815E+02  0.17794254741E+03  0.20004563738E+03  0.79126364772E+02 0.  0.
          6    2    1    2  501    0 -0.48096304470E+02 -0.98769377291E+02 -0.20136676071E+01  0.20462826145E+03  0.17262684070E+03 0.  0.
         24    2    5    5    0    0 -0.54465307599E+02 -0.10824755887E+03 -0.53030887644E+02  0.15213781596E+03  0.75164062347E+02 0.  0.
          5    1    5    5  501    0  0.63690031299E+01  0.94781815758E+01  0.51017220037E+02  0.52490445485E+02  0.47000000000E+01 0. -1.
        -13    1    6    6    0    0  0.11695324626E+02 -0.51217385097E+02 -0.58459134122E+01  0.52859964604E+02  0.00000000000E+00 0.  1.
         14    1    6    6    0    0 -0.66160632226E+02 -0.57030173769E+02 -0.47184974232E+02  0.99277851357E+02  0.00000000000E+00 0. -1.
         -5    1    3    3    0  503  0.46079915612E+02  0.53056584476E+02 -0.65561960195E+01  0.70734952359E+02  0.47000000000E+01 0.  1.
         13    1    4    4    0    0 -0.20319928008E+02 -0.12289964382E+02  0.84850522584E+02  0.88111031554E+02  0.00000000000E+00 0. -1.
        -14    1    4    4    0    0  0.22336316866E+02  0.58002757197E+02  0.93092024830E+02  0.11193460582E+03  0.00000000000E+00 0.  1.
</event>
<event>
12    1  0.1046899E+000  0.2485729E+03  0.7818608E-02  0.1114368E+00
         21   -1    0    0  503  502  0.00000000000E+00  0.00000000000E+00  0.23139274176E+03  0.23139274176E+03  0.00000000000E+00 0.  1.
         21   -1    0    0  501  503 -0.00000000000E+00 -0.00000000000E+00 -0.27588942618E+03  0.27588942618E+03  0.00000000000E+00 0. -1.
          6    2    1    2  501    0 -0.70849777425E+02  0.16399133924E+03  0.25818175228E+02  0.24991012309E+03  0.17284571485E+03 0.  0.
         24    2    3    3    0    0 -0.11465849279E+03  0.13764476393E+03  0.15461884610E+02  0.19753944114E+03  0.81793092160E+02 0.  0.
         -6    2    1    2    0  502  0.70849777425E+02 -0.16399133924E+03 -0.70314859641E+02  0.25737204486E+03  0.17141569263E+03 0.  0.
        -24    2    5    5    0    0  0.33703654451E+02 -0.13754811923E+02 -0.15931932456E+01  0.87974270303E+02  0.80073733497E+02 0.  0.
          5    1    3    3  501    0  0.43808715361E+02  0.26346575303E+02  0.10356290618E+02  0.52370681942E+02  0.47000000000E+01 0. -1.
        -11    1    4    4    0    0 -0.19672107979E+02 -0.82869165014E+01  0.93663163504E+01  0.23310785045E+02  0.00000000000E+00 0.  1.
         12    1    4    4    0    0 -0.94986384807E+02  0.14593168044E+03  0.60955682596E+01  0.17422865610E+03  0.00000000000E+00 0. -1.
         -5    1    5    5    0  502  0.37146122975E+02 -0.15023652731E+03 -0.68721666396E+02  0.16939777455E+03  0.47000000000E+01 0.  1.
         11    1    6    6    0    0  0.36667275804E+02 -0.31884533856E+02 -0.27791172131E+02  0.55977333471E+02  0.00000000000E+00 0. -1.
        -12    1    6    6    0    0 -0.29636213529E+01  0.18129721934E+02  0.26197978886E+02  0.31996936832E+02  0.00000000000E+00 0.  1.
</event>
<event>
12    1  0.1046899E+000  0.2834940E+03  0.7818608E-02  0.1093923E+00
         21   -1    0    0  501  502  0.00000000000E+00  0.00000000000E+00  0.14815502747E+03  0.14815502747E+03  0.00000000000E+00 0.  1.
         21   -1    0    0  502  503 -0.00000000000E+00 -0.00000000000E+00 -0.54462655962E+03  0.54462655962E+03  0.00000000000E+00 0.  1.
         -6    2    1    2    0  503  0.12737594451E+02 -0.22387082858E+03 -0.16831237036E+03  0.32887847641E+03  0.17190579986E+03 0.  0.
        -24    2    3    3    0    0  0.66644280731E+02 -0.82214356134E+02 -0.68732841560E+02  0.14746552326E+03  0.76296897278E+02 0.  0.
          6    2    1    2  501    0 -0.12737594451E+02  0.22387082858E+03 -0.22815916179E+03  0.36390311068E+03  0.17346030283E+03 0.  0.
         24    2    5    5    0    0  0.36032078996E+02  0.12663541514E+03 -0.66689193450E+02  0.16915237936E+03  0.82645265061E+02 0.  0.
          5    1    5    5  501    0 -0.48769673447E+02  0.97235413444E+02 -0.16146996834E+03  0.19475073132E+03  0.47000000000E+01 0. -1.
        -11    1    6    6    0    0  0.71106199840E+01  0.96003918709E+02 -0.79789642183E+02  0.12503479645E+03  0.00000000000E+00 0.  1.
         12    1    6    6    0    0  0.28921459012E+02  0.30631496427E+02  0.13100448733E+02  0.44117582909E+02  0.00000000000E+00 0. -1.
         -5    1    3    3    0  503 -0.53906686279E+02 -0.14165647245E+03 -0.99579528804E+02  0.18141295314E+03  0.47000000000E+01 0.  1.
         11    1    4    4    0    0  0.56739303023E+02 -0.29967249686E+02 -0.69083926101E+02  0.94286655508E+02  0.00000000000E+00 0. -1.
        -12    1    4    4    0    0  0.99049777072E+01 -0.52247106448E+02  0.35108454067E+00  0.53178867757E+02  0.00000000000E+00 0.  1.
</event>
<event>
12    1  0.1046899E+000  0.1913835E+03  0.7818608E-02  0.1157728E+00
         21   -1    0    0  503  502  0.00000000000E+00  0.00000000000E+00  0.62870488077E+02  0.62870488077E+02  0.00000000000E+00 0. -1.
         21   -1    0    0  501  503 -0.00000000000E+00 -0.00000000000E+00 -0.73842653428E+03  0.73842653428E+03  0.00000000000E+00 0. -1.
          6    2    1    2  501    0  0.39026094875E+02 -0.67890838817E+02 -0.52427440833E+03  0.55734258223E+03  0.17214789184E+03 0.  0.
         24    2    3    3    0    0  0.59586570381E+02 -0.70922376783E+02 -0.15475121278E+03  0.18720557324E+03  0.50174155672E+02 0.  0.
         -6    2    1    2    0  502 -0.39026094875E+02  0.67890838817E+02 -0.15128163788E+03  0.24395444013E+03  0.17462941569E+03 0.  0.
        -24    2    5    5    0    0 -0.93319670550E+02  0.57912165882E+02 -0.10426972064E+03  0.17129374487E+03  0.80043691319E+02 0.  0.
          5    1    3    3  501    0 -0.20560475507E+02  0.30315379668E+01 -0.36952319555E+03  0.37013700899E+03  0.47000000000E+01 0. -1.
        -13    1    4    4    0    0  0.20243809251E+02 -0.20987839160E+02 -0.13147932912E+02  0.31987018389E+02  0.00000000000E+00 0.  1.
         14    1    4    4    0    0  0.39342761130E+02 -0.49934537624E+02 -0.14160327987E+03  0.15521855485E+03  0.00000000000E+00 0. -1.
         -5    1    5    5    0  502  0.54293575676E+02  0.99786729351E+01 -0.47011917239E+02  0.72660695260E+02  0.47000000000E+01 0.  1.
         11    1    6    6    0    0 -0.60060057706E+02  0.52636871140E+02 -0.22667529798E+02  0.83016068578E+02  0.00000000000E+00 0. -1.
        -12    1    6    6    0    0 -0.33259612844E+02  0.52752947421E+01 -0.81602190839E+02  0.88277676289E+02  0.00000000000E+00 0.  1.
</event>
<event>
12    1  0.1046899E+000  0.2878323E+03  0.7818608E-02  0.1091512E+00
         21   -1    0    0  501  502  0.00000000000E+00  0.00000000000E+00  0.28388310448E+03  0.28388310448E+03  0.00000000000E+00 0. -1.
         21   -1    0    0  502  503 -0.00000000000E+00 -0.00000000000E+00 -0.34487063969E+03  0.34487063969E+03  0.00000000000E+00 0. -1.
         -6    2    1    2    0  503 -0.14108905731E+03  0.18241574264E+03  0.93023004384E+02  0.30230820272E+03  0.17191667991E+03 0.  0.
        -24    2    3    3    0    0  0.83426405122E+01  0.26767176123E+02  0.10353379892E+02  0.71196399933E+02  0.64619296808E+02 0.  0.
          6    2    1    2  501    0  0.14108905731E+03 -0.18241574264E+03 -0.15401053960E+03  0.32644554145E+03  0.17223768453E+03 0.  0.
         24    2    5    5    0    0  0.12549543334E+02 -0.63703044035E+02 -0.99821716322E+02  0.14321445776E+03  0.79564043421E+02 0.  0.
          5    1    5    5  501    0  0.12853951398E+03 -0.11871269860E+03 -0.54188823275E+02  0.18323108369E+03  0.47000000000E+01 0. -1.
        -13    1    6    6    0    0  0.34833795066E+02 -0.64238801569E+02 -0.95920314461E+02  0.12058492291E+03  0.00000000000E+00 0.  1.
         14    1    6    6    0    0 -0.22284251732E+02  0.53575753390E+00 -0.39014018608E+01  0.22629534857E+02  0.00000000000E+00 0. -1.
         -5    1    3    3    0  503 -0.14943169782E+03  0.15564856652E+03  0.82669624492E+02  0.23111180278E+03  0.47000000000E+01 0.  1.
         11    1    4    4    0    0  0.24791666613E+01  0.27252434723E+02 -0.23966237950E+02  0.36376118912E+02  0.00000000000E+00 0. -1.
        -12    1    4    4    0    0  0.58634738509E+01 -0.48525859948E+00  0.34319617842E+02  0.34820281021E+02  0.00000000000E+00 0.  1.
</event>
<event>
12    1  0.1046899E+000  0.2891701E+03  0.7818608E-02  0.1090924E+00
         21   -1    0    0  501  502  0.00000000000E+00  0.00000000000E+00  0.21019009465E+04  0.21019009465E+04  0.00000000000E+00 0.  1.
         21   -1    0    0  502  503 -0.00000000000E+00 -0.00000000000E+00 -0.57274671558E+02  0.57274671558E+02  0.00000000000E+00 0.  1.
         -6    2    1    2    0  503 -0.12004539392E+03  0.19746287370E+03  0.42186660970E+03  0.51085274807E+03  0.17203665522E+03 0.  0.
        -24    2    3    3    0    0 -0.15374583294E+03  0.16181448380E+03  0.36469118539E+03  0.43536999217E+03  0.82010127852E+02 0.  0.
          6    2    1    2  501    0  0.12004539392E+03 -0.19746287370E+03  0.16227596652E+04  0.16483228699E+04  0.17383000171E+03 0.  0.
         24    2    5    5    0    0  0.71622051616E+02 -0.19040525895E+03  0.99742864735E+03  0.10210624759E+04  0.79503410605E+02 0.  0.
          5    1    5    5  501    0  0.48423342303E+02 -0.70576147433E+01  0.62533101785E+03  0.62726039401E+03  0.47000000000E+01 0. -1.
        -13    1    6    6    0    0  0.73721548467E+02 -0.14059378362E+03  0.60505758959E+03  0.62553670190E+03  0.00000000000E+00 0.  1.
         14    1    6    6    0    0 -0.20994968517E+01 -0.49811475337E+02  0.39237105776E+03  0.39552577404E+03  0.00000000000E+00 0. -1.
         -5    1    3    3    0  503  0.33700439022E+02  0.35648389898E+02  0.57175424308E+02  0.75482755894E+02  0.47000000000E+01 0.  1.
         11    1    4    4    0    0 -0.60415357650E+02  0.12204452255E+03  0.20089535364E+03  0.24270110020E+03  0.00000000000E+00 0. -1.
        -12    1    4    4    0    0 -0.93330475290E+02  0.39769961252E+02  0.16379583176E+03  0.19266889198E+03  0.00000000000E+00 0.  1.
</event>
<event>
12    1  0.1046899E+000  0.1873120E+03  0.7818608E-02  0.1161629E+00
         21   -1    0    0  503  502  0.00000000000E+00  0.00000000000E+00  0.30449829514E+03  0.30449829514E+03  0.00000000000E+00 0.  1.
         21   -1    0    0  501  503 -0.00000000000E+00 -0.00000000000E+00 -0.14372226659E+03  0.14372226659E+03  0.00000000000E+00 0.  1.
          6    2    1    2  501    0 -0.73084358894E+02 -0.13832178500E+02 -0.23215269712E+02  0.18565900495E+03  0.16851606658E+03 0.  0.
         24    2    3    3    0    0  0.16149494004E+02  0.49964051914E+01 -0.41525762070E+02  0.92521685917E+02  0.80932708024E+02 0.  0.
         -6    2    1    2    0  502  0.73084358894E+02  0.13832178500E+02  0.18399129826E+03  0.26256155677E+03  0.17191021081E+03 0.  0.
        -24    2    5    5    0    0  0.91122946640E+02  0.21290696934E+01  0.20087167499E+03  0.23482366712E+03  0.80528258937E+02 0.  0.
          5    1    3    3  501    0 -0.89233852898E+02 -0.18828583692E+02  0.18310492358E+02  0.93137319037E+02  0.47000000000E+01 0. -1.
        -11    1    4    4    0    0 -0.25016150928E+02 -0.79041275590E+01  0.74335700946E+01  0.27267948293E+02  0.00000000000E+00 0.  1.
         12    1    4    4    0    0  0.41165644933E+02  0.12900532750E+02 -0.48959332164E+02  0.65253737625E+02  0.00000000000E+00 0. -1.
         -5    1    5    5    0  502 -0.18038587746E+02  0.11703108807E+02 -0.16880376728E+02  0.27737889647E+02  0.47000000000E+01 0.  1.
         13    1    6    6    0    0  0.45905769668E+02 -0.36545384179E+02  0.12753492546E+03  0.14038540524E+03  0.00000000000E+00 0. -1.
        -14    1    6    6    0    0  0.45217176972E+02  0.38674453873E+02  0.73336749527E+02  0.94438261879E+02  0.00000000000E+00 0.  1.
</event>
<event>
12    1  0.1046899E+000  0.3647506E+03  0.7818608E-02  0.1057076E+00
         21   -1    0    0  501  502  0.00000000000E+00  0.00000000000E+00  0.50718671157E+03  0.50718671157E+03  0.00000000000E+00 0.  1.
         21   -1    0    0  502  503 -0.00000000000E+00 -0.00000000000E+00 -0.34164984458E+03  0.34164984458E+03  0.00000000000E+00 0.  1.
         -6    2    1    2    0  503  0.30132675375E+03  0.97356342939E+02  0.29031575919E+03  0.46333328817E+03  0.17354661003E+03 0.  0.
        -24    2    3    3    0    0  0.28351193643E+03  0.12067727466E+03  0.22059566532E+03  0.38754268808E+03  0.81147179904E+02 0.  0.
          6    2    1    2  501    0 -0.30132675375E+03 -0.97356342939E+02 -0.12477889220E+03  0.38550326798E+03  0.18101637397E+03 0.  0.
         24    2    5    5    0    0 -0.62277192814E+02  0.12445513299E+02 -0.27518731539E+02  0.10499877769E+03  0.78956463863E+02 0.  0.
          5    1    5    5  501    0 -0.23904956093E+03 -0.10980185624E+03 -0.97260160664E+02  0.28050449028E+03  0.47000000000E+01 0. -1.
        -13    1    6    6    0    0 -0.35512994305E+02 -0.82000078885E+01 -0.51830096751E+02  0.63362227100E+02  0.00000000000E+00 0.  1.
         14    1    6    6    0    0 -0.26764198509E+02  0.20645521187E+02  0.24311365212E+02  0.41636550594E+02  0.00000000000E+00 0. -1.
         -5    1    3    3    0  503  0.17814817318E+02 -0.23320931723E+02  0.69720093872E+02  0.75790600090E+02  0.47000000000E+01 0.  1.
         13    1    4    4    0    0  0.24039098245E+03  0.68432420666E+02  0.16091722495E+03  0.29726280280E+03  0.00000000000E+00 0. -1.
        -14    1    4    4    0    0  0.43120953979E+02  0.52244853995E+02  0.59678440367E+02  0.90279885277E+02  0.00000000000E+00 0.  1.
</event>
<event>
12    1  0.1046899E+000  0.2601617E+03  0.7818608E-02  0.1107155E+00
         21   -1    0    0  501  502  0.00000000000E+00  0.00000000000E+00  0.46949110927E+03  0.46949110927E+03  0.00000000000E+00 0. -1.
         21   -1    0    0  502  503 -0.00000000000E+00 -0.00000000000E+00 -0.18212314684E+03  0.18212314684E+03  0.00000000000E+00 0.  1.
         -6    2    1    2    0  503 -0.19070580922E+03 -0.40988849381E+02 -0.60010062510E+01  0.25950528888E+03  0.17105025997E+03 0.  0.
        -24    2    3    3    0    0 -0.20293543715E+03 -0.27875039378E+02  0.27352815377E+02  0.22134636818E+03  0.79285741006E+02 0.  0.
          6    2    1    2  501    0  0.19070580922E+03  0.40988849381E+02  0.29336896868E+03  0.39210896723E+03  0.17214906029E+03 0.  0.
         24    2    5    5    0    0  0.15470594494E+03 -0.75270866749E+01  0.28028770561E+03  0.33011706677E+03  0.80159175537E+02 0.  0.
          5    1    5    5  501    0  0.35999864284E+02  0.48515936056E+02  0.13081263065E+02  0.61991900465E+02  0.47000000000E+01 0. -1.
        -13    1    6    6    0    0 -0.83284231514E+01  0.67159811315E+01  0.19123150809E+02  0.21912597555E+02  0.00000000000E+00 0.  1.
         14    1    6    6    0    0  0.16303436809E+03 -0.14243067806E+02  0.26116455480E+03  0.30820446921E+03  0.00000000000E+00 0. -1.
         -5    1    3    3    0  503  0.12229627926E+02 -0.13113810003E+02 -0.33353821628E+02  0.38158920703E+02  0.47000000000E+01 0.  1.
         11    1    4    4    0    0 -0.13686295797E+03 -0.53977823887E+02  0.63275775629E+01  0.14725866010E+03  0.00000000000E+00 0. -1.
        -12    1    4    4    0    0 -0.66072479173E+02  0.26102784509E+02  0.21025237814E+02  0.74087708078E+02  0.00000000000E+00 0.  1.
</event>
<event>
12    1  0.1046899E+000  0.1905403E+03  0.7818608E-02  0.1160383E+00
         21   -1    0    0  503  502  0.00000000000E+00  0.00000000000E+00  0.29279156335E+03  0.29279156335E+03  0.00000000000E+00 0. -1.
         21   -1    0    0  501  503 -0.00000000000E+00 -0.00000000000E+00 -0.17629207943E+03  0.17629207943E+03  0.00000000000E+00 0. -1.
          6    2    1    2  501    0  0.73796771477E+02 -0.36442630452E+02 -0.78454217679E+02  0.19648032270E+03  0.16023552709E+03 0.  0.
         24    2    3    3    0    0  0.58751421719E+02 -0.60903438126E+02 -0.10492394565E+03  0.15714293386E+03  0.80770718468E+02 0.  0.
         -6    2    1    2    0  502 -0.73796771477E+02  0.36442630452E+02  0.19495370160E+03  0.27260332008E+03  0.17184759397E+03 0.  0.
        -24    2    5    5    0    0 -0.10885931937E+03 -0.37822024897E+01  0.12117075667E+03  0.18142529415E+03  0.79800555226E+02 0.  0.
          5    1    3    3  501    0  0.15045349758E+02  0.24460807674E+02  0.26469727975E+02  0.39337388837E+02  0.47000000000E+01 0. -1.
        -11    1    4    4    0    0  0.43020370207E+02 -0.13065579953E+02 -0.49884111951E+01  0.45236554671E+02  0.00000000000E+00 0.  1.
         12    1    4    4    0    0  0.15731051512E+02 -0.47837858173E+02 -0.99935534459E+02  0.11190637919E+03  0.00000000000E+00 0. -1.
         -5    1    5    5    0  502  0.35062547893E+02  0.40224832942E+02  0.73782944933E+02  0.91178025932E+02  0.47000000000E+01 0.  1.
         13    1    6    6    0    0  0.64835042037E+00 -0.71491855794E+01  0.50595270557E+02  0.51101982500E+02  0.00000000000E+00 0. -1.
        -14    1    6    6    0    0 -0.10950766979E+03  0.33669830897E+01  0.70575486112E+02  0.13032331164E+03  0.00000000000E+00 0.  1.
</event>
<event>
12    1  0.1046899E+000  0.2250405E+03  0.7818608E-02  0.1130201E+00
         21   -1    0    0  501  502  0.00000000000E+00  0.00000000000E+00  0.11707786097E+04  0.11707786097E+04  0.00000000000E+00 0.  1.
         21   -1    0    0  502  503 -0.00000000000E+00 -0.00000000000E+00 -0.43969635428E+02  0.43969635428E+02  0.00000000000E+00 0.  1.
         -6    2    1    2    0  503  0.48520680489E+00 -0.14311268310E+03  0.64182854149E+03  0.68009952036E+03  0.17352234852E+03 0.  0.
        -24    2    3    3    0    0  0.27342366808E+02 -0.15938569183E+03  0.44591547348E+03  0.48163003134E+03  0.83519302047E+02 0.  0.
          6    2    1    2  501    0 -0.48520680489E+00  0.14311268310E+03  0.48498043278E+03  0.53464872477E+03  0.17367142316E+03 0.  0.
         24    2    5    5    0    0  0.33515385853E+02  0.10763383963E+03  0.18935104490E+03  0.23492616369E+03  0.81413510311E+02 0.  0.
          5    1    5    5  501    0 -0.34000592658E+02  0.35478843469E+02  0.29562938789E+03  0.29972256108E+03  0.47000000000E+01 0. -1.
        -13    1    6    6    0    0  0.32485178738E+02  0.14394671770E+01  0.51585989623E+02  0.60979285243E+02  0.00000000000E+00 0.  1.
         14    1    6    6    0    0  0.10302071147E+01  0.10619437245E+03  0.13776505527E+03  0.17394687845E+03  0.00000000000E+00 0. -1.
         -5    1    3    3    0  503 -0.26857160003E+02  0.16273008732E+02  0.19591306801E+03  0.19846948902E+03  0.47000000000E+01 0.  1.
         13    1    4    4    0    0  0.50259510276E+02 -0.53214363347E+02  0.16869848473E+03  0.18389389764E+03  0.00000000000E+00 0. -1.
        -14    1    4    4    0    0 -0.22917143468E+02 -0.10617132848E+03  0.27721698875E+03  0.29773613370E+03  0.00000000000E+00 0.  1.
</event>
<event>
12    1  0.1046899E+000  0.2027707E+03  0.7818608E-02  0.1148068E+00
         21   -1    0    0  501  502  0.00000000000E+00  0.00000000000E+00  0.37859501660E+03  0.37859501660E+03  0.00000000000E+00 0.  1.
         21   -1    0    0  502  503 -0.00000000000E+00 -0.00000000000E+00 -0.10705149116E+03  0.10705149116E+03  0.00000000000E+00 0.  1.
         -6    2    1    2    0  503 -0.34235792272E+02  0.95248084560E+02  0.14211399671E+03  0.24508892310E+03  0.17212758373E+03 0.  0.
        -24    2    3    3    0    0  0.61215435056E+00  0.49227222514E+02  0.15972480618E+03  0.18455356370E+03  0.78257970815E+02 0.  0.
          6    2    1    2  501    0  0.34235792272E+02 -0.95248084560E+02  0.12942952874E+03  0.24055758466E+03  0.17570333390E+03 0.  0.
         24    2    5    5    0    0  0.31121546108E+02 -0.51831550803E+02 -0.28122902993E+01  0.10125689322E+03  0.81178748189E+02 0.  0.
          5    1    5    5  501    0  0.31142461638E+01 -0.43416533756E+02  0.13224181904E+03  0.13930069144E+03  0.47000000000E+01 0. -1.
        -13    1    6    6    0    0  0.17140128990E+02 -0.30852302327E+01 -0.36454325333E+02  0.40400748791E+02  0.00000000000E+00 0.  1.
         14    1    6    6    0    0  0.13981417118E+02 -0.48746320571E+02  0.33642035034E+02  0.60856144431E+02  0.00000000000E+00 0. -1.
         -5    1    3    3    0  503 -0.34847946622E+02  0.46020862046E+02 -0.17610809473E+02  0.60535359399E+02  0.47000000000E+01 0.  1.
         11    1    4    4    0    0  0.29271593156E+02  0.21199911703E+02  0.24883581664E+02  0.43880007504E+02  0.00000000000E+00 0. -1.
        -12    1    4    4    0    0 -0.28659438806E+02  0.28027310811E+02  0.13484122452E+03  0.14067355620E+03  0.00000000000E+00 0.  1.
</event>
<event>
12    1  0.1046899E+000  0.2167514E+03  0.7818608E-02  0.1136464E+00
         21   -1    0    0  503  502  0.00000000000E+00  0.00000000000E+00  0.63476190479E+02  0.63476190479E+02  0.00000000000E+00 0. -1.
         21   -1    0    0  501  503 -0.00000000000E+00 -0.00000000000E+00 -0.73794980505E+03  0.73794980505E+03  0.00000000000E+00 0. -1.
          6    2    1    2  501    0  0.43596465846E+02  0.12454658675E+03 -0.34381055526E+03  0.40605371676E+03  0.17105969390E+03 0.  0.
         24    2    3    3    0    0  0.85807066939E+02  0.10941226336E+03 -0.31133401560E+03  0.35048755604E+03  0.81109565130E+02 0.  0.
         -6    2    1    2    0  502 -0.43596465846E+02 -0.12454658675E+03 -0.33066305931E+03  0.39537227877E+03  0.17195544749E+03 0.  0.
        -24    2    5    5    0    0 -0.86528431105E+02 -0.76372143919E+02 -0.27868298813E+03  0.31237861405E+03  0.81217712893E+02 0.  0.
          5    1    3    3  501    0 -0.42210601093E+02  0.15134323392E+02 -0.32476539661E+02  0.55566160723E+02  0.47000000000E+01 0. -1.
        -13    1    4    4    0    0  0.10614536024E+02  0.16237489810E+01 -0.10700106312E+03  0.10753851609E+03  0.00000000000E+00 0.  1.
         14    1    4    4    0    0  0.75192530915E+02  0.10778851438E+03 -0.20433295249E+03  0.24294903994E+03  0.00000000000E+00 0. -1.
         -5    1    5    5    0  502  0.42931965259E+02 -0.48174442834E+02 -0.51980071177E+02  0.82993664716E+02  0.47000000000E+01 0.  1.
         13    1    6    6    0    0  0.41704615594E+01  0.28055898685E+01 -0.79337877726E+02  0.79496936584E+02  0.00000000000E+00 0. -1.
        -14    1    6    6    0    0 -0.90698892665E+02 -0.79177733788E+02 -0.19934511040E+03  0.23288167747E+03  0.00000000000E+00 0.  1.
</event>
<event>
12    1  0.1046899E+000  0.1990758E+03  0.7818608E-02  0.1150567E+00
         21   -1    0    0  503  502  0.00000000000E+00  0.00000000000E+00  0.30055480570E+03  0.30055480570E+03  0.00000000000E+00 0. -1.
         21   -1    0    0  501  503 -0.00000000000E+00 -0.00000000000E+00 -0.21559936852E+03  0.21559936852E+03  0.00000000000E+00 0. -1.
          6    2    1    2  501    0  0.91367300714E+02  0.40759483365E+02  0.20343841404E+03  0.28448766718E+03  0.17186251874E+03 0.  0.
         24    2    3    3    0    0  0.89542955429E+01 -0.12764160938E+02  0.15459414817E+03  0.17464898443E+03  0.79748441358E+02 0.  0.
         -6    2    1    2    0  502 -0.91367300714E+02 -0.40759483365E+02 -0.11848297685E+03  0.23166650704E+03  0.17210995195E+03 0.  0.
        -24    2    5    5    0    0 -0.94489717604E+01  0.16650246061E+02 -0.10048186316E+03  0.12991868277E+03  0.80098349208E+02 0.  0.
          5    1    3    3  501    0  0.82413005171E+02  0.53523644303E+02  0.48844265865E+02  0.10983868275E+03  0.47000000000E+01 0. -1.
        -13    1    4    4    0    0  0.37853194192E+02  0.13879737769E+01  0.12610670450E+03  0.13167266878E+03  0.00000000000E+00 0.  1.
         14    1    4    4    0    0 -0.28898898649E+02 -0.14152134715E+02  0.28487443668E+02  0.42976315650E+02  0.00000000000E+00 0. -1.
         -5    1    5    5    0  502 -0.81918328953E+02 -0.57409729426E+02 -0.18001113685E+02  0.10174782428E+03  0.47000000000E+01 0.  1.
         11    1    6    6    0    0 -0.30446025509E+02  0.34912851700E+02 -0.87940506700E+02  0.99395172929E+02  0.00000000000E+00 0. -1.
        -12    1    6    6    0    0  0.20997053748E+02 -0.18262605639E+02 -0.12541356463E+02  0.30523509837E+02  0.00000000000E+00 0.  1.
</event>
<event>
12    1  0.1046899E+000  0.1727257E+03  0.7818608E-02  0.1175095E+00
         21   -1    0    0  501  502  0.00000000000E+00  0.00000000000E+00  0.13210385092E+03  0.13210385092E+03  0.00000000000E+00 0.  1.
         21   -1    0    0  502  503 -0.00000000000E+00 -0.00000000000E+00 -0.38611270139E+03  0.38611270139E+03  0.00000000000E+00 0.  1.
         -6    2    1    2    0  503 -0.22638667042E+01 -0.22959716949E+02  0.40145373681E+02  0.17709945981E+03  0.17093944525E+03 0.  0.
        -24    2    3    3    0    0 -0.19242428975E+02 -0.66467667229E+02 -0.13191819585E+02  0.10604905869E+03  0.79272674265E+02 0.  0.
          6    2    1    2  501    0  0.22638667042E+01  0.22959716949E+02 -0.29415422415E+03  0.34111709250E+03  0.17117794693E+03 0.  0.
         24    2    5    5    0    0 -0.39014132124E+02 -0.35698702621E+02 -0.12102163336E+03  0.15365598355E+03  0.78532959108E+02 0.  0.
          5    1    5    5  501    0  0.41277998829E+02  0.58658419569E+02 -0.17313259079E+03  0.18746110895E+03  0.47000000000E+01 0. -1.
        -13    1    6    6    0    0 -0.10177639366E+01  0.44407671487E+01  0.10253348624E+02  0.11219956075E+02  0.00000000000E+00 0.  1.
         14    1    6    6    0    0 -0.37996368188E+02 -0.40139469769E+02 -0.13127498198E+03  0.14243602748E+03  0.00000000000E+00 0. -1.
         -5    1    3    3    0  503  0.16978562270E+02  0.43507950280E+02  0.53337193265E+02  0.71050401123E+02  0.47000000000E+01 0.  1.
         13    1    4    4    0    0  0.13192760731E+02 -0.40556229774E+02  0.25172116273E+02  0.49522642769E+02  0.00000000000E+00 0. -1.
        -14    1    4    4    0    0 -0.32435189705E+02 -0.25911437455E+02 -0.38363935858E+02  0.56526415920E+02  0.00000000000E+00 0.  1.
</event>
<event>
12    1  0.1046899E+000  0.5883834E+03  0.7818608E-02  0.9929906E-01
         21   -1    0    0  503  502  0.00000000000E+00  0.00000000000E+00  0.81694981457E+03  0.81694981457E+03  0.00000000000E+00 0.  1.
         21   -1    0    0  501  503 -0.00000000000E+00 -0.00000000000E+00 -0.47923157714E+03  0.47923157714E+03  0.00000000000E+00 0. -1.
          6    2    1    2  501    0 -0.34889737906E+03  0.44126534809E+03 -0.51924583198E+02  0.59047850302E+03  0.17182610875E+03 0.  0.
         24    2    3    3    0    0 -0.22839218002E+03  0.34913763896E+03  0.14020466572E+02  0.42500990366E+03  0.79854654787E+02 0.  0.
         -6    2    1    2    0  502  0.34889737906E+03 -0.44126534809E+03  0.38964282064E+03  0.70570288869E+03  0.17248348004E+03 0.  0.
        -24    2    5    5    0    0  0.35096861310E+03 -0.39457428941E+03  0.32296146150E+03  0.62413795365E+03  0.79851376532E+02 0.  0.
          5    1    3    3  501    0 -0.12050519904E+03  0.92127709129E+02 -0.65945049770E+02  0.16546859936E+03  0.47000000000E+01 0. -1.
        -11    1    4    4    0    0 -0.13432246284E+03  0.15251689738E+03 -0.20744486663E+02  0.20428965157E+03  0.00000000000E+00 0.  1.
         12    1    4    4    0    0 -0.94069717178E+02  0.19662074158E+03  0.34764953235E+02  0.22072025209E+03  0.00000000000E+00 0. -1.
         -5    1    5    5    0  502 -0.20712340327E+01 -0.46691058687E+02  0.66681359136E+02  0.81564935040E+02  0.47000000000E+01 0.  1.
         11    1    6    6    0    0  0.36035934146E+02 -0.77438952908E+02  0.70983515885E+02  0.11105872098E+03  0.00000000000E+00 0. -1.
        -12    1    6    6    0    0  0.31493267895E+03 -0.31713533650E+03  0.25197794561E+03  0.51307923267E+03  0.00000000000E+00 0.  1.
</event>
<event>
12    1  0.1046899E+000  0.1841217E+03  0.7818608E-02  0.1164006E+00
         21   -1    0    0  503  502  0.00000000000E+00  0.00000000000E+00  0.25709350964E+03  0.25709350964E+03  0.00000000000E+00 0. -1.
         21   -1    0    0  501  503 -0.00000000000E+00 -0.00000000000E+00 -0.18574239845E+03  0.18574239845E+03  0.00000000000E+00 0.  1.
          6    2    1    2  501    0  0.64684998264E+02  0.54252497476E+01  0.15541621353E+03  0.24094606765E+03  0.17229981356E+03 0.  0.
         24    2    3    3    0    0  0.23004825574E+02 -0.92809681076E+01  0.17323500797E+03  0.19305964917E+03  0.81524853769E+02 0.  0.
         -6    2    1    2    0  502 -0.64684998264E+02 -0.54252497476E+01 -0.84065102332E+02  0.20188984044E+03  0.17169444926E+03 0.  0.
        -24    2    5    5    0    0 -0.75459913251E+00  0.68882191288E+00  0.17138708843E+02  0.81936602877E+02  0.80117586426E+02 0.  0.
          5    1    3    3  501    0  0.41680172689E+02  0.14706217855E+02 -0.17818794445E+02  0.47886418476E+02  0.47000000000E+01 0. -1.
        -11    1    4    4    0    0  0.35655459525E+02 -0.19323438472E+02  0.34087911616E+02  0.52978229365E+02  0.00000000000E+00 0.  1.
         12    1    4    4    0    0 -0.12650633951E+02  0.10042470364E+02  0.13914709636E+03  0.14008141981E+03  0.00000000000E+00 0. -1.
         -5    1    5    5    0  502 -0.63930399131E+02 -0.61140716605E+01 -0.10120381118E+03  0.11995323756E+03  0.47000000000E+01 0.  1.
         11    1    6    6    0    0  0.22600085917E+02  0.33077406961E+02  0.62285935063E+01  0.40542250946E+02  0.00000000000E+00 0. -1.
        -12    1    6    6    0    0 -0.23354685049E+02 -0.32388585048E+02  0.10910115337E+02  0.41394351931E+02  0.00000000000E+00 0.  1.
</event>
<event>
12    1  0.1046899E+000  0.1819659E+03  0.7818608E-02  0.1165976E+00
         21   -1    0    0  501  502  0.00000000000E+00  0.00000000000E+00  0.16451032198E+03  0.16451032198E+03  0.00000000000E+00 0. -1.
         21   -1    0    0  502  503 -0.00000000000E+00 -0.00000000000E+00 -0.25153791815E+03  0.25153791815E+03  0.00000000000E+00 0. -1.
         -6    2    1    2    0  503  0.54477159672E+02 -0.23204369432E+02 -0.13679758657E+03  0.22765143873E+03  0.17206218114E+03 0.  0.
        -24    2    3    3    0    0 -0.31352354833E+02  0.16392466385E+02 -0.75769840294E+02  0.11504108937E+03  0.79004433026E+02 0.  0.
          6    2    1    2  501    0 -0.54477159672E+02  0.23204369432E+02  0.49769990399E+02  0.18839680141E+03  0.17178503762E+03 0.  0.
         24    2    5    5    0    0  0.45639423507E-01  0.36667149385E+02  0.84866488365E+02  0.12200526404E+03  0.79614582073E+02 0.  0.
          5    1    5    5  501    0 -0.54522799096E+02 -0.13462779954E+02 -0.35096497966E+02  0.66391537373E+02  0.47000000000E+01 0. -1.
        -13    1    6    6    0    0 -0.38470334200E+02  0.71556112395E+01  0.37969602308E+02  0.54523940476E+02  0.00000000000E+00 0.  1.
         14    1    6    6    0    0  0.38515973623E+02  0.29511538146E+02  0.46896886057E+02  0.67481323562E+02  0.00000000000E+00 0. -1.
         -5    1    3    3    0  503  0.85829514505E+02 -0.39596835816E+02 -0.61027746273E+02  0.11261034936E+03  0.47000000000E+01 0.  1.
         13    1    4    4    0    0 -0.49103384528E+01  0.20044383330E+02  0.11607476765E+02  0.23677462779E+02  0.00000000000E+00 0. -1.
        -14    1    4    4    0    0 -0.26442016380E+02 -0.36519169450E+01 -0.87377317059E+02  0.91363626592E+02  0.00000000000E+00 0.  1.
</event>
<event>
12    1  0.1046899E+000  0.3039598E+03  0.7818608E-02  0.1083337E+00
         21   -1    0    0  501  502  0.00000000000E+00  0.00000000000E+00  0.44849502082E+03  0.44849502082E+03  0.00000000000E+00 0. -1.
         21   -1    0    0  502  503 -0.00000000000E+00 -0.00000000000E+00 -0.33204899471E+03  0.33204899471E+03  0.00000000000E+00 0. -1.
         -6    2    1    2    0  503 -0.17704598109E+03 -0.17620091255E+03  0.29901718015E+03  0.42638341928E+03  0.17320365240E+03 0.  0.
        -24    2    3    3    0    0 -0.75169586210E+02 -0.29670635971E+02  0.17731685605E+03  0.21032097304E+03  0.79138049826E+02 0.  0.
          6    2    1    2  501    0  0.17704598109E+03  0.17620091255E+03 -0.18257115405E+03  0.35416059625E+03  0.17235272160E+03 0.  0.
         24    2    5    5    0    0  0.30281119167E+02  0.79706260684E+01 -0.77115110916E+02  0.10721035629E+03  0.67578421895E+02 0.  0.
          5    1    5    5  501    0  0.14676486193E+03  0.16823028648E+03 -0.10545604313E+03  0.24695023996E+03  0.47000000000E+01 0. -1.
        -13    1    6    6    0    0  0.33117758280E+02  0.16815491278E+02 -0.86737788946E+01  0.38141592792E+02  0.00000000000E+00 0.  1.
         14    1    6    6    0    0 -0.28366391124E+01 -0.88448652097E+01 -0.68441332021E+02  0.69068763496E+02  0.00000000000E+00 0. -1.
         -5    1    3    3    0  503 -0.10187639488E+03 -0.14653027657E+03  0.12170032410E+03  0.21606244623E+03  0.47000000000E+01 0.  1.
         13    1    4    4    0    0  0.16440905081E+02 -0.10517133854E+02  0.30327677259E+02  0.36064961837E+02  0.00000000000E+00 0. -1.
        -14    1    4    4    0    0 -0.91610491291E+02 -0.19153502118E+02  0.14698917880E+03  0.17425601121E+03  0.00000000000E+00 0.  1.
</event>
<event>
12    1  0.1046899E+000  0.2125175E+03  0.7818608E-02  0.1140312E+00
         21   -1    0    0  501  502  0.00000000000E+00  0.00000000000E+00  0.15356954528E+03  0.15356954528E+03  0.00000000000E+00 0. -1.
         21   -1    0    0  502  503 -0.00000000000E+00 -0.00000000000E+00 -0.51455224924E+03  0.51455224924E+03  0.00000000000E+00 0. -1.
         -6    2    1    2    0  503  0.48917342404E+00 -0.11664170124E+03 -0.40253617300E+03  0.45519125398E+03  0.17764622530E+03 0.  0.
        -24    2    3    3    0    0 -0.63644125611E+01 -0.13838606074E+03 -0.40110063292E+03  0.43186874154E+03  0.80235183283E+02 0.  0.
          6    2    1    2  501    0 -0.48917342404E+00  0.11664170124E+03  0.41553469040E+02  0.21293054054E+03  0.17322585992E+03 0.  0.
         24    2    5    5    0    0  0.48433357043E+02  0.80219600634E+02  0.73586800643E+02  0.14387833034E+03  0.80653470549E+02 0.  0.
          5    1    5    5  501    0 -0.48922530467E+02  0.36422100606E+02 -0.32033331603E+02  0.69052210199E+02  0.47000000000E+01 0. -1.
        -13    1    6    6    0    0 -0.52902690399E+01  0.66088706607E+02  0.27810981753E+02  0.71896834378E+02  0.00000000000E+00 0.  1.
         14    1    6    6    0    0  0.53723626083E+02  0.14130894026E+02  0.45775818890E+02  0.71981495959E+02  0.00000000000E+00 0. -1.
         -5    1    3    3    0  503  0.68535859851E+01  0.21744359503E+02 -0.14355400826E+01  0.23322512437E+02  0.47000000000E+01 0.  1.
         11    1    4    4    0    0 -0.20796839690E+02 -0.13925164255E+02 -0.14050446955E+03  0.14271623841E+03  0.00000000000E+00 0. -1.
        -12    1    4    4    0    0  0.14432427129E+02 -0.12446089649E+03 -0.26059616336E+03  0.28915250313E+03  0.00000000000E+00 0.  1.
</event>
<event>
12    1  0.1046899E+000  0.3447627E+03  0.7818608E-02  0.1065446E+00
         21   -1    0    0  501  502  0.00000000000E+00  0.00000000000E+00  0.15663471836E+04  0.15663471836E+04  0.00000000000E+00 0.  1.
         21   -1    0    0  502  503 -0.00000000000E+00 -0.00000000000E+00 -0.10324915976E+03  0.10324915976E+03  0.00000000000E+00 0.  1.
         -6    2    1    2    0  503 -0.28748931188E+03  0.49072991427E+02  0.28633244383E+03  0.44336694109E+03  0.17184211686E+03 0.  0.
        -24    2    3    3    0    0 -0.14008661930E+03 -0.37373465326E+02  0.11410159275E+03  0.20070235832E+03  0.79001432584E+02 0.  0.
          6    2    1    2  501    0  0.28748931188E+03 -0.49072991427E+02  0.11767655800E+04  0.12262294023E+04  0.18385606806E+03 0.  0.
         24    2    5    5    0    0  0.18931248347E+03 -0.97357052631E+02  0.90589906530E+03  0.93406369759E+03  0.80649008296E+02 0.  0.
          5    1    5    5  501    0  0.98176828406E+02  0.48284061205E+02  0.27086651469E+03  0.29216570466E+03  0.47000000000E+01 0. -1.
        -11    1    6    6    0    0  0.49891843788E+02 -0.10662095731E+02  0.37228080759E+03  0.37576039714E+03  0.00000000000E+00 0.  1.
         12    1    6    6    0    0  0.13942063968E+03 -0.86694956901E+02  0.53361825771E+03  0.55830330044E+03  0.00000000000E+00 0. -1.
         -5    1    3    3    0  503 -0.14740269258E+03  0.86446456752E+02  0.17223085108E+03  0.24266458277E+03  0.47000000000E+01 0.  1.
         13    1    4    4    0    0 -0.88187622572E+02  0.14844884601E+02  0.78181746720E+02  0.11878473342E+03  0.00000000000E+00 0. -1.
        -14    1    4    4    0    0 -0.51898996728E+02 -0.52218349926E+02  0.35919846025E+02  0.81917624898E+02  0.00000000000E+00 0.  1.
</event>
<event>
12    1  0.1046899E+000  0.3317456E+03  0.7818608E-02  0.1070476E+00
         21   -1    0    0  501  502  0.00000000000E+00  0.00000000000E+00  0.14186457799E+03  0.14186457799E+03  0.00000000000E+00 0. -1.
         21   -1    0    0  502  503 -0.00000000000E+00 -0.00000000000E+00 -0.13178682666E+04  0.13178682666E+04  0.00000000000E+00 0. -1.
         -6    2    1    2    0  503  0.27504002831E+03 -0.68990259003E+02 -0.11839010448E+03  0.35130979774E+03  0.17028119138E+03 0.  0.
        -24    2    3    3    0    0  0.22804935630E+03  0.17341472538E+01 -0.62851299825E+02  0.24973857288E+03  0.80059682229E+02 0.  0.
          6    2    1    2  501    0 -0.27504002831E+03  0.68990259003E+02 -0.10576135842E+04  0.11084230469E+04  0.17218735281E+03 0.  0.
         24    2    5    5    0    0 -0.18915730786E+03  0.92843139862E+02 -0.89422118764E+03  0.92224042999E+03  0.80594928770E+02 0.  0.
          5    1    5    5  501    0 -0.85882720442E+02 -0.23852880859E+02 -0.16339239653E+03  0.18618261691E+03  0.47000000000E+01 0. -1.
        -11    1    6    6    0    0 -0.12494708053E+03  0.51205756453E+02 -0.40118817095E+03  0.42330337931E+03  0.00000000000E+00 0.  1.
         12    1    6    6    0    0 -0.64210227337E+02  0.41637383409E+02 -0.49303301669E+03  0.49893705068E+03  0.00000000000E+00 0. -1.
         -5    1    3    3    0  503  0.46990672004E+02 -0.70724406257E+02 -0.55538804660E+02  0.10157122486E+03  0.47000000000E+01 0.  1.
         13    1    4    4    0    0  0.20723134653E+02  0.21455629665E+02  0.59286213581E+01  0.30412841127E+02  0.00000000000E+00 0. -1.
        -14    1    4    4    0    0  0.20732622165E+03 -0.19721482411E+02 -0.68779921183E+02  0.21932573176E+03  0.00000000000E+00 0.  1.
</event>
<event>
12    1  0.1046899E+000  0.3798183E+03  0.7818608E-02  0.1051139E+00
         21   -1    0    0  501  502  0.00000000000E+00  0.00000000000E+00  0.18500978124E+04  0.18500978124E+04  0.00000000000E+00 0.  1.
         21   -1    0    0  502  503 -0.00000000000E+00 -0.00000000000E+00 -0.83375458852E+02  0.83375458852E+02  0.00000000000E+00 0.  1.
         -6    2    1    2    0  503  0.21280076484E+03 -0.26216779089E+03  0.11378784741E+04  0.11995955123E+04  0.17391335593E+03 0.  0.
        -24    2    3    3    0    0  0.70429420164E+02 -0.18186132409E+03  0.53846536899E+03  0.57827684295E+03  0.80158025542E+02 0.  0.
          6    2    1    2  501    0 -0.21280076484E+03  0.26216779089E+03  0.62884387946E+03  0.73387775890E+03  0.17063359626E+03 0.  0.
         24    2    5    5    0    0 -0.36487387011E+02  0.14028225119E+03  0.29329593061E+03  0.33568558423E+03  0.75178914175E+02 0.  0.
          5    1    5    5  501    0 -0.17631337783E+03  0.12188553971E+03  0.33554794885E+03  0.39819217467E+03  0.47000000000E+01 0. -1.
        -11    1    6    6    0    0  0.19331357093E+02  0.73325813196E+02  0.14633589356E+03  0.16481677704E+03  0.00000000000E+00 0.  1.
         12    1    6    6    0    0 -0.55818744104E+02  0.66956437990E+02  0.14696003705E+03  0.17086880719E+03  0.00000000000E+00 0. -1.
         -5    1    3    3    0  503  0.14237134468E+03 -0.80306466799E+02  0.59941310507E+03  0.62131866938E+03  0.47000000000E+01 0.  1.
         11    1    4    4    0    0  0.87272636781E+02 -0.16442269775E+03  0.48774252758E+03  0.52205757333E+03  0.00000000000E+00 0. -1.
        -12    1    4    4    0    0 -0.16843216617E+02 -0.17438626341E+02  0.50722841413E+02  0.56219269611E+02  0.00000000000E+00 0.  1.
</event>
<event>
12    1  0.1046899E+000  0.1814313E+03  0.7818608E-02  0.1166553E+00
         21   -1    0    0  503  502  0.00000000000E+00  0.00000000000E+00  0.19377247001E+03  0.19377247001E+03  0.00000000000E+00 0.  1.
         21   -1    0    0  501  503 -0.00000000000E+00 -0.00000000000E+00 -0.18375516230E+03  0.18375516230E+03  0.00000000000E+00 0.  1.
          6    2    1    2  501    0 -0.51225850014E+02  0.26658121987E+02 -0.47802187254E+02  0.18710592326E+03  0.17143171887E+03 0.  0.
         24    2    3    3    0    0 -0.10383544337E+02  0.18549759905E+02 -0.94081698190E+02  0.12467417972E+03  0.78996035149E+02 0.  0.
         -6    2    1    2    0  502  0.51225850014E+02 -0.26658121987E+02  0.57819494965E+02  0.19042170904E+03  0.17199590140E+03 0.  0.
        -24    2    5    5    0    0  0.50056935135E+02  0.36165788461E+02 -0.42033215063E+01  0.10200717489E+03  0.81081038524E+02 0.  0.
          5    1    3    3  501    0 -0.40842305677E+02  0.81083620824E+01  0.46279510936E+02  0.62431743537E+02  0.47000000000E+01 0. -1.
        -13    1    4    4    0    0 -0.25305426331E+02  0.25690486646E+02 -0.78955721046E+01  0.36914844774E+02  0.00000000000E+00 0.  1.
         14    1    4    4    0    0  0.14921881993E+02 -0.71407267412E+01 -0.86186126086E+02  0.87759334947E+02  0.00000000000E+00 0. -1.
         -5    1    5    5    0  502  0.11689148786E+01 -0.62823910448E+02  0.62022816472E+02  0.88414534150E+02  0.47000000000E+01 0.  1.
         13    1    6    6    0    0  0.57576599606E+02 -0.64947380107E+01  0.33363445230E+01  0.58037725996E+02  0.00000000000E+00 0. -1.
        -14    1    6    6    0    0 -0.75196644705E+01  0.42660526472E+02 -0.75396660292E+01  0.43969448898E+02  0.00000000000E+00 0.  1.
</event>
<event>
12    1  0.1046899E+000  0.2288847E+03  0.7818608E-02  0.1127573E+00
         21   -1    0    0  501  502  0.00000000000E+00  0.00000000000E+00  0.44394187107E+02  0.44394187107E+02  0.00000000000E+00 0. -1.
         21   -1    0    0  502  503 -0.00000000000E+00 -0.00000000000E+00 -0.13656486175E+04  0.13656486175E+04  0.00000000000E+00 0.  1.
         -6    2    1    2    0  503 -0.26775089510E+01 -0.14975816386E+03 -0.92244474337E+03  0.95021959406E+03  0.17198341684E+03 0.  0.
        -24    2    3    3    0    0 -0.40289102975E+02 -0.16660055533E+03 -0.77965618358E+03  0.80152877066E+03  0.72150181917E+02 0.  0.
          6    2    1    2  501    0  0.26775089510E+01  0.14975816386E+03 -0.39880968706E+03  0.45982321058E+03  0.17307091553E+03 0.  0.
         24    2    5    5    0    0  0.16632453838E+01 -0.22823471629E+01 -0.18573283729E+03  0.19801950620E+03  0.68608035198E+02 0.  0.
          5    1    5    5  501    0  0.10142635672E+01  0.15204051102E+03 -0.21307684977E+03  0.26180370439E+03  0.47000000000E+01 0. -1.
        -13    1    6    6    0    0 -0.89874984556E+01  0.26961082802E+02 -0.40419219288E+02  0.49410407833E+02  0.00000000000E+00 0.  1.
         14    1    6    6    0    0  0.10650743839E+02 -0.29243429965E+02 -0.14531361800E+03  0.14860909836E+03  0.00000000000E+00 0. -1.
         -5    1    3    3    0  503  0.37611594024E+02  0.16842391474E+02 -0.14278855979E+03  0.14869082340E+03  0.47000000000E+01 0.  1.
         11    1    4    4    0    0 -0.18850821196E+02 -0.11498071193E+03 -0.36562019999E+03  0.38373695185E+03  0.00000000000E+00 0. -1.
        -12    1    4    4    0    0 -0.21438281779E+02 -0.51619843403E+02 -0.41403598359E+03  0.41779181882E+03  0.00000000000E+00 0.  1.
</event>
<event>
12    1  0.1046899E+000  0.5105034E+03  0.7818608E-02  0.1011080E+00
         21   -1    0    0  503  502  0.00000000000E+00  0.00000000000E+00  0.27321067118E+03  0.27321067118E+03  0.00000000000E+00 0.  1.
         21   -1    0    0  501  503 -0.00000000000E+00 -0.00000000000E+00 -0.19625203838E+04  0.19625203838E+04  0.00000000000E+00 0.  1.
          6    2    1    2  501    0 -0.48070843103E+03  0.51712716928E+01 -0.43222576261E+02  0.51232991042E+03  0.17177429465E+03 0.  0.
         24    2    3    3    0    0 -0.41364405254E+03  0.37843332297E+02 -0.77456781085E+02  0.43011576817E+03  0.80414557715E+02 0.  0.
         -6    2    1    2    0  502  0.48070843103E+03 -0.51712716928E+01 -0.16460871364E+04  0.17234011446E+04  0.17146809294E+03 0.  0.
        -24    2    5    5    0    0  0.14216526168E+03  0.31024444566E+02 -0.46475597493E+03  0.49397566478E+03  0.82706489300E+02 0.  0.
          5    1    3    3  501    0 -0.67064378486E+02 -0.32672060604E+02  0.34234204824E+02  0.82214142249E+02  0.47000000000E+01 0. -1.
        -13    1    4    4    0    0 -0.16301248150E+03  0.40571992820E+02 -0.72488002770E+00  0.16798714587E+03  0.00000000000E+00 0.  1.
         14    1    4    4    0    0 -0.25063157104E+03 -0.27286605235E+01 -0.76731901057E+02  0.26212862231E+03  0.00000000000E+00 0. -1.
         -5    1    5    5    0  502  0.33854316934E+03 -0.36195716258E+02 -0.11813311614E+04  0.12294254798E+04  0.47000000000E+01 0.  1.
         11    1    6    6    0    0  0.15068156669E+03  0.22639938426E+02 -0.44932405931E+03  0.47445717576E+03  0.00000000000E+00 0. -1.
        -12    1    6    6    0    0 -0.85163050028E+01  0.83845061393E+01 -0.15431915615E+02  0.19518489021E+02  0.00000000000E+00 0.  1.
</event>
<event>
12    1  0.1046899E+000  0.1945999E+03  0.7818608E-02  0.1157647E+00
         21   -1    0    0  503  502  0.00000000000E+00  0.00000000000E+00  0.40224391321E+03  0.40224391321E+03  0.00000000000E+00 0.  1.
         21   -1    0    0  501  503 -0.00000000000E+00 -0.00000000000E+00 -0.10354416171E+03  0.10354416171E+03  0.00000000000E+00 0.  1.
          6    2    1    2  501    0  0.52156103516E+02  0.10943761609E+02  0.44498915247E+02  0.18565184728E+03  0.17218138659E+03 0.  0.
         24    2    3    3    0    0 -0.35727965525E+02  0.19463606207E+02  0.23914033210E+02  0.94866249791E+02  0.82294622411E+02 0.  0.
         -6    2    1    2    0  502 -0.52156103516E+02 -0.10943761609E+02  0.25420083625E+03  0.32013622764E+03  0.18716066373E+03 0.  0.
        -24    2    5    5    0    0  0.22637659520E+02  0.47330699515E+02  0.15792755498E+03  0.18493025701E+03  0.80656237143E+02 0.  0.
          5    1    3    3  501    0  0.87884069042E+02 -0.85198445983E+01  0.20584882037E+02  0.90785597491E+02  0.47000000000E+01 0. -1.
        -11    1    4    4    0    0 -0.29707038832E+02  0.49373010170E+02  0.26582408291E+01  0.57682480301E+02  0.00000000000E+00 0.  1.
         12    1    4    4    0    0 -0.60209266938E+01 -0.29909403963E+02  0.21255792381E+02  0.37183769489E+02  0.00000000000E+00 0. -1.
         -5    1    5    5    0  502 -0.74793763036E+02 -0.58274461124E+02  0.96273281262E+02  0.13520597063E+03  0.47000000000E+01 0.  1.
         11    1    6    6    0    0  0.14039536826E+02  0.51661408907E+02  0.40550765613E+02  0.67159320696E+02  0.00000000000E+00 0. -1.
        -12    1    6    6    0    0  0.85981226942E+01 -0.43307093919E+01  0.11737678937E+03  0.11777093632E+03  0.00000000000E+00 0.  1.
</event>
<event>
12    1  0.1046899E+000  0.4042402E+03  0.7818608E-02  0.1042443E+00
         21   -1    0    0  503  502  0.00000000000E+00  0.00000000000E+00  0.52303535756E+03  0.52303535756E+03  0.00000000000E+00 0.  1.
         21   -1    0    0  501  503 -0.00000000000E+00 -0.00000000000E+00 -0.33638898106E+03  0.33638898106E+03  0.00000000000E+00 0.  1.
          6    2    1    2  501    0  0.36467049608E+03  0.10598760895E+02 -0.24116655009E+02  0.40353925232E+03  0.17077883553E+03 0.  0.
         24    2    3    3    0    0  0.22499859980E+03  0.73334772324E+02 -0.27109232897E+02  0.25032342003E+03  0.76971068350E+02 0.  0.
         -6    2    1    2    0  502 -0.36467049608E+03 -0.10598760895E+02  0.21076303150E+03  0.45588508630E+03  0.17410701311E+03 0.  0.
        -24    2    5    5    0    0 -0.20850756676E+03 -0.74423108810E+02  0.12037903055E+03  0.26443857808E+03  0.80140165078E+02 0.  0.
          5    1    3    3  501    0  0.13967189628E+03 -0.62736011429E+02  0.29925778885E+01  0.15321583229E+03  0.47000000000E+01 0. -1.
        -13    1    4    4    0    0  0.51101596101E+02  0.28090939147E+02 -0.39145854761E+02  0.70234407033E+02  0.00000000000E+00 0.  1.
         14    1    4    4    0    0  0.17389700370E+03  0.45243833177E+02  0.12036621864E+02  0.18008901300E+03  0.00000000000E+00 0. -1.
         -5    1    5    5    0  502 -0.15616292932E+03  0.63824347915E+02  0.90384000956E+02  0.19144650822E+03  0.47000000000E+01 0.  1.
         13    1    6    6    0    0 -0.16930387660E+03 -0.23122662444E+02  0.86326886339E+02  0.19144396427E+03  0.00000000000E+00 0. -1.
        -14    1    6    6    0    0 -0.39203690158E+02 -0.51300446367E+02  0.34052144207E+02  0.72994613805E+02  0.00000000000E+00 0.  1.
</event>
<event>
12    1  0.1046899E+000  0.2166100E+03  0.7818608E-02  0.1136729E+00
         21   -1    0    0  501  502  0.00000000000E+00  0.00000000000E+00  0.51135683016E+03  0.51135683016E+03  0.00000000000E+00 0. -1.
         21   -1    0    0  502  503 -0.00000000000E+00 -0.00000000000E+00 -0.97971771875E+02  0.97971771875E+02  0.00000000000E+00 0. -1.
         -6    2    1    2    0  503 -0.12950994792E+03 -0.24275659632E+02  0.28665238301E+03  0.35836834592E+03  0.16998867143E+03 0.  0.
        -24    2    3    3    0    0 -0.71189913530E+02  0.34247046619E+02  0.23619981157E+03  0.26144731868E+03  0.79520346240E+02 0.  0.
          6    2    1    2  501    0  0.12950994792E+03  0.24275659632E+02  0.12673267528E+03  0.25096025611E+03  0.17192366010E+03 0.  0.
         24    2    5    5    0    0  0.55877530509E+02 -0.67966324950E+01 -0.13550241687E+01  0.99911360115E+02  0.82534545254E+02 0.  0.
          5    1    5    5  501    0  0.73632417413E+02  0.31072292127E+02  0.12808769945E+03  0.15104889600E+03  0.47000000000E+01 0. -1.
        -13    1    6    6    0    0  0.38698105830E+02  0.35905588538E+02 -0.80454043711E+01  0.53399281030E+02  0.00000000000E+00 0.  1.
         14    1    6    6    0    0  0.17179424679E+02 -0.42702221033E+02  0.66903802024E+01  0.46512079084E+02  0.00000000000E+00 0. -1.
         -5    1    3    3    0  503 -0.58320034392E+02 -0.58522706251E+02  0.50452571436E+02  0.96921027248E+02  0.47000000000E+01 0.  1.
         11    1    4    4    0    0 -0.12353640862E+02 -0.25420184655E+02  0.62280015284E+02  0.68392971380E+02  0.00000000000E+00 0. -1.
        -12    1    4    4    0    0 -0.58836272668E+02  0.59667231274E+02  0.17391979629E+03  0.19305434730E+03  0.00000000000E+00 0.  1.
</event>
<event>
12    1  0.1046899E+000  0.1901868E+03  0.7818608E-02  0.1160113E+00
         21   -1    0    0  501  502  0.00000000000E+00  0.00000000000E+00  0.89088109752E+02  0.89088109752E+02  0.00000000000E+00 0.  1.
         21   -1    0    0  502  503 -0.00000000000E+00 -0.00000000000E+00 -0.82756997633E+03  0.82756997633E+03  0.00000000000E+00 0.  1.
         -6    2    1    2    0  503 -0.35021564771E+02 -0.46705332557E+02 -0.32061250145E+02  0.18508368177E+03  0.17268511056E+03 0.  0.
        -24    2    3    3    0    0 -0.48659198915E+02  0.33484586977E+02 -0.28944074965E+01  0.98543500529E+02  0.78825812382E+02 0.  0.
          6    2    1    2  501    0  0.35021564771E+02  0.46705332557E+02 -0.70642061643E+03  0.73157440431E+03  0.18100586628E+03 0.  0.
         24    2    5    5    0    0  0.84415824699E+02  0.61835292648E+02 -0.39121522405E+03  0.41212920088E+03  0.76495044366E+02 0.  0.
          5    1    5    5  501    0 -0.49394259928E+02 -0.15129960091E+02 -0.31520539238E+03  0.31944520343E+03  0.47000000000E+01 0. -1.
        -13    1    6    6    0    0 -0.50022467741E+01  0.57516840850E+01 -0.13238843851E+03  0.13260770338E+03  0.00000000000E+00 0.  1.
         14    1    6    6    0    0  0.89418071473E+02  0.56083608563E+02 -0.25882678554E+03  0.27952149750E+03  0.00000000000E+00 0. -1.
         -5    1    3    3    0  503  0.13637634144E+02 -0.80189919533E+02 -0.29166842649E+02  0.86540181245E+02  0.47000000000E+01 0.  1.
         13    1    4    4    0    0 -0.69377362911E+02  0.34987096758E+02 -0.13204774094E+01  0.77711383237E+02  0.00000000000E+00 0. -1.
        -14    1    4    4    0    0  0.20718163995E+02 -0.15025097811E+01 -0.15739300871E+01  0.20832117293E+02  0.00000000000E+00 0.  1.
</event>
<event>
12    1  0.1046899E+000  0.1811143E+03  0.7818608E-02  0.1168674E+00
         21   -1    0    0  503  502  0.00000000000E+00  0.00000000000E+00  0.58783003844E+02  0.58783003844E+02  0.00000000000E+00 0.  1.
         21   -1    0    0  501  503 -0.00000000000E+00 -0.00000000000E+00 -0.66835200419E+03  0.66835200419E+03  0.00000000000E+00 0.  1.
          6    2    1    2  501    0 -0.24458114009E+02 -0.16015989445E+02 -0.13632286257E+03  0.22041587332E+03  0.17071767070E+03 0.  0.
         24    2    3    3    0    0  0.31983077636E+01  0.51906922905E+02 -0.10706531721E+03  0.14131787304E+03  0.76178745543E+02 0.  0.
         -6    2    1    2    0  502  0.24458114009E+02  0.16015989445E+02 -0.47324613778E+03  0.50671913472E+03  0.17873909285E+03 0.  0.
        -24    2    5    5    0    0 -0.22000181480E+02  0.46201985359E+02 -0.14035136740E+03  0.16921271150E+03  0.79472032608E+02 0.  0.
          5    1    3    3  501    0 -0.27656421772E+02 -0.67922912349E+02 -0.29257545359E+02  0.79098000276E+02  0.47000000000E+01 0. -1.
        -11    1    4    4    0    0  0.39745508752E+01 -0.12980142229E+02  0.26665876423E+01  0.13834443849E+02  0.00000000000E+00 0.  1.
         12    1    4    4    0    0 -0.77624311167E+00  0.64887065134E+02 -0.10973190485E+03  0.12748342919E+03  0.00000000000E+00 0. -1.
         -5    1    5    5    0  502  0.46458295489E+02 -0.30185995914E+02 -0.33289477038E+03  0.33750642322E+03  0.47000000000E+01 0.  1.
         13    1    6    6    0    0 -0.51789440057E+02  0.35342693127E+02 -0.97109232861E+02  0.11559176080E+03  0.00000000000E+00 0. -1.
        -14    1    6    6    0    0  0.29789258577E+02  0.10859292233E+02 -0.43242134536E+02  0.53620950696E+02  0.00000000000E+00 0.  1.
</event>
<event>
12    1  0.1046899E+000  0.2489895E+03  0.7818608E-02  0.1113983E+00
         21   -1    0    0  501  502  0.00000000000E+00  0.00000000000E+00  0.30275214313E+03  0.30275214313E+03  0.00000000000E+00 0. -1.
         21   -1    0    0  502  503 -0.00000000000E+00 -0.00000000000E+00 -0.21345984088E+03  0.21345984088E+03  0.00000000000E+00 0. -1.
         -6    2    1    2    0  503 -0.15132655923E+03  0.95105767969E+02 -0.80220144432E+01  0.24888101107E+03  0.17301031855E+03 0.  0.
        -24    2    3    3    0    0 -0.50499589974E+02  0.10965211943E+03  0.73649029210E+01  0.14574749908E+03  0.81328321068E+02 0.  0.
          6    2    1    2  501    0  0.15132655923E+03 -0.95105767969E+02  0.97314316697E+02  0.26733097294E+03  0.17335206439E+03 0.  0.
         24    2    5    5    0    0  0.13452161300E+03 -0.54857680068E+01  0.49758812206E+02  0.16438551836E+03  0.80128030291E+02 0.  0.
          5    1    5    5  501    0  0.16804946228E+02 -0.89619999962E+02  0.47555504491E+02  0.10294545458E+03  0.47000000000E+01 0. -1.
        -11    1    6    6    0    0  0.13739638101E+03 -0.17351646138E+02  0.30857444413E+02  0.14188385043E+03  0.00000000000E+00 0.  1.
         12    1    6    6    0    0 -0.28747680072E+01  0.11865878132E+02  0.18901367793E+02  0.22501667924E+02  0.00000000000E+00 0. -1.
         -5    1    3    3    0  503 -0.10082696926E+03 -0.14546351465E+02 -0.15386917364E+02  0.10313351199E+03  0.47000000000E+01 0.  1.
         13    1    4    4    0    0  0.73468026016E+01 -0.94311515810E+01  0.59417668963E+01  0.13350158144E+02  0.00000000000E+00 0. -1.
        -14    1    4    4    0    0 -0.57846392576E+02  0.11908327101E+03  0.14231360247E+01  0.13239734093E+03  0.00000000000E+00 0.  1.
</event>
<event>
12    1  0.1046899E+000  0.2118860E+03  0.7818608E-02  0.1140574E+00
         21   -1    0    0  503  502  0.00000000000E+00  0.00000000000E+00  0.29278566636E+03  0.29278566636E+03  0.00000000000E+00 0.  1.
         21   -1    0    0  501  503 -0.00000000000E+00 -0.00000000000E+00 -0.15164681613E+03  0.15164681613E+03  0.00000000000E+00 0.  1.
          6    2    1    2  501    0  0.85799865668E+02 -0.84386967632E+02  0.77072935297E+02  0.22546816947E+03  0.17439289215E+03 0.  0.
         24    2    3    3    0    0  0.64963075917E+00 -0.95707981672E+02  0.32421672294E+02  0.12854266637E+03  0.79445657314E+02 0.  0.
         -6    2    1    2    0  502 -0.85799865668E+02  0.84386967632E+02  0.64065914936E+02  0.21896431302E+03  0.17134220631E+03 0.  0.
        -24    2    5    5    0    0 -0.71097803026E+02  0.10082411915E+03 -0.37070808882E+01  0.14753883046E+03  0.80830461138E+02 0.  0.
          5    1    3    3  501    0  0.85150234909E+02  0.11321014041E+02  0.44651263004E+02  0.96925503103E+02  0.47000000000E+01 0. -1.
        -11    1    4    4    0    0 -0.13529490419E+02 -0.91857403851E+02  0.50142563415E+02  0.10552301369E+03  0.00000000000E+00 0.  1.
         12    1    4    4    0    0  0.14179121178E+02 -0.38505778212E+01 -0.17720891122E+02  0.23019652671E+02  0.00000000000E+00 0. -1.
         -5    1    5    5    0  502 -0.14702062642E+02 -0.16437151513E+02  0.67772995824E+02  0.71425482559E+02  0.47000000000E+01 0.  1.
         13    1    6    6    0    0 -0.80998934697E+01 -0.98872378712E+01 -0.14943348661E+02  0.19663911517E+02  0.00000000000E+00 0. -1.
        -14    1    6    6    0    0 -0.62997909557E+02  0.11071135702E+03  0.11236267773E+02  0.12787491894E+03  0.00000000000E+00 0.  1.
</event>
<event>
12    1  0.1046899E+000  0.1851394E+03  0.7818608E-02  0.1164423E+00
         21   -1    0    0  501  502  0.00000000000E+00  0.00000000000E+00  0.58283787717E+02  0.58283787717E+02  0.00000000000E+00 0. -1.
         21   -1    0    0  502  503 -0.00000000000E+00 -0.00000000000E+00 -0.64283096274E+03  0.64283096274E+03  0.00000000000E+00 0. -1.
         -6    2    1    2    0  503 -0.29286248608E+01 -0.47055850462E+02 -0.17731726023E+03  0.25635521634E+03  0.17903562848E+03 0.  0.
        -24    2    3    3    0    0 -0.31156130885E+01 -0.36718504669E+02 -0.20712744095E+03  0.22445486279E+03  0.78232045902E+02 0.  0.
          6    2    1    2  501    0  0.29286248608E+01  0.47055850462E+02 -0.40722991479E+03  0.44475953411E+03  0.17248770906E+03 0.  0.
         24    2    5    5    0    0 -0.61436349786E+02  0.56651361996E+02 -0.26562550671E+03  0.28884666681E+03  0.76757313794E+02 0.  0.
          5    1    5    5  501    0  0.64364974647E+02 -0.95955115349E+01 -0.14160440808E+03  0.15591286730E+03  0.47000000000E+01 0. -1.
        -11    1    6    6    0    0  0.33430929160E+01  0.40703976081E+02 -0.59297810853E+02  0.72001529921E+02  0.00000000000E+00 0.  1.
         12    1    6    6    0    0 -0.64779442702E+02  0.15947385915E+02 -0.20632769586E+03  0.21684513689E+03  0.00000000000E+00 0. -1.
         -5    1    3    3    0  503  0.18698822772E+00 -0.10337345792E+02  0.29810180715E+02  0.31900353554E+02  0.47000000000E+01 0.  1.
         11    1    4    4    0    0  0.20643716089E+02 -0.27367417497E+02 -0.30173093203E+02  0.45667867345E+02  0.00000000000E+00 0. -1.
        -12    1    4    4    0    0 -0.23759329177E+02 -0.93510871725E+01 -0.17695434774E+03  0.17878699544E+03  0.00000000000E+00 0.  1.
</event>
<event>
12    1  0.1046899E+000  0.3221115E+03  0.7818608E-02  0.1074895E+00
         21   -1    0    0  503  502  0.00000000000E+00  0.00000000000E+00  0.14382246278E+03  0.14382246278E+03  0.00000000000E+00 0. -1.
         21   -1    0    0  501  503 -0.00000000000E+00 -0.00000000000E+00 -0.77786957444E+03  0.77786957444E+03  0.00000000000E+00 0.  1.
          6    2    1    2  501    0 -0.68714140662E+02 -0.26130527190E+03 -0.18751367821E+03  0.37110334725E+03  0.17191345664E+03 0.  0.
         24    2    3    3    0    0 -0.10619723949E+02 -0.10025481468E+03 -0.14555419101E+03  0.19476588785E+03  0.81141371355E+02 0.  0.
         -6    2    1    2    0  502  0.68714140662E+02  0.26130527190E+03 -0.44653343344E+03  0.55058868997E+03  0.17536738605E+03 0.  0.
        -24    2    5    5    0    0  0.52247452990E+02  0.72790869222E+02 -0.10809584237E+03  0.16281178907E+03  0.82429730900E+02 0.  0.
          5    1    3    3  501    0 -0.58094416713E+02 -0.16105045721E+03 -0.41959487205E+02  0.17633745940E+03  0.47000000000E+01 0. -1.
        -13    1    4    4    0    0  0.26672500369E+02 -0.53825981720E+02 -0.35892864304E+02  0.69978255852E+02  0.00000000000E+00 0.  1.
         14    1    4    4    0    0 -0.37292224318E+02 -0.46428832964E+02 -0.10966132670E+03  0.12478763200E+03  0.00000000000E+00 0. -1.
         -5    1    5    5    0  502  0.16466687672E+02  0.18851440268E+03 -0.33843759107E+03  0.38777690090E+03  0.47000000000E+01 0.  1.
         13    1    6    6    0    0  0.14115522609E+02  0.80302906729E+02 -0.61454414066E+02  0.10210019498E+03  0.00000000000E+00 0. -1.
        -14    1    6    6    0    0  0.38131930381E+02 -0.75120375073E+01 -0.46641428306E+02  0.60711594086E+02  0.00000000000E+00 0.  1.
</event>
<event>
12    1  0.1046899E+000  0.2281664E+03  0.7818608E-02  0.1127969E+00
         21   -1    0    0  503  502  0.00000000000E+00  0.00000000000E+00  0.71382010851E+03  0.71382010851E+03  0.00000000000E+00 0.  1.
         21   -1    0    0  501  503 -0.00000000000E+00 -0.00000000000E+00 -0.73421915979E+02  0.73421915979E+02  0.00000000000E+00 0.  1.
          6    2    1    2  501    0 -0.13053819650E+03 -0.76268693681E+02  0.28634458628E+03  0.36613268850E+03  0.17088823574E+03 0.  0.
         24    2    3    3    0    0 -0.69764531831E+02 -0.10417345026E+03  0.13450104554E+03  0.20014875969E+03  0.79055658332E+02 0.  0.
         -6    2    1    2    0  502  0.13053819650E+03  0.76268693681E+02  0.35405360625E+03  0.42110933599E+03  0.17065164041E+03 0.  0.
        -24    2    5    5    0    0  0.88047290239E+02  0.11396172181E+03  0.21612990243E+03  0.27187368488E+03  0.80396308696E+02 0.  0.
          5    1    3    3  501    0 -0.60773664673E+02  0.27904756583E+02  0.15184354074E+03  0.16598392881E+03  0.47000000000E+01 0. -1.
        -11    1    4    4    0    0  0.25434920552E+01 -0.52032568834E+02  0.80611827738E+02  0.95979812162E+02  0.00000000000E+00 0.  1.
         12    1    4    4    0    0 -0.72308023886E+02 -0.52140881430E+02  0.53889217798E+02  0.10416894753E+03  0.00000000000E+00 0. -1.
         -5    1    5    5    0  502  0.42490906265E+02 -0.37693028126E+02  0.13792370382E+03  0.14923565110E+03  0.47000000000E+01 0.  1.
         11    1    6    6    0    0  0.66710811886E+02  0.88316492235E+02  0.21080034043E+03  0.23809014837E+03  0.00000000000E+00 0. -1.
        -12    1    6    6    0    0  0.21336478353E+02  0.25645229572E+02  0.53295619948E+01  0.33783536513E+02  0.00000000000E+00 0.  1.
</event>
<event>
12    1  0.1046899E+000  0.1855914E+03  0.7818608E-02  0.1162618E+00
         21   -1    0    0  501  502  0.00000000000E+00  0.00000000000E+00  0.86650828063E+02  0.86650828063E+02  0.00000000000E+00 0.  1.
         21   -1    0    0  502  503 -0.00000000000E+00 -0.00000000000E+00 -0.47676403916E+03  0.47676403916E+03  0.00000000000E+00 0.  1.
         -6    2    1    2    0  503  0.67982915882E+01 -0.67167407420E+02 -0.31093401260E+03  0.36211067892E+03  0.17287714195E+03 0.  0.
        -24    2    3    3    0    0  0.59527342081E+02 -0.75734128248E+02 -0.25992485024E+03  0.28809874667E+03  0.78490747362E+02 0.  0.
          6    2    1    2  501    0 -0.67982915882E+01  0.67167407420E+02 -0.79179198494E+02  0.20130418830E+03  0.17232629911E+03 0.  0.
         24    2    5    5    0    0 -0.32372159774E+02  0.59109747284E+02 -0.11565304831E+03  0.15579176866E+03  0.79709024861E+02 0.  0.
          5    1    5    5  501    0  0.25573868186E+02  0.80576601360E+01  0.36473849820E+02  0.45512419641E+02  0.47000000000E+01 0. -1.
        -13    1    6    6    0    0 -0.53704002097E+02  0.28526865191E+02 -0.44140137044E+02  0.75141556925E+02  0.00000000000E+00 0.  1.
         14    1    6    6    0    0  0.21331842323E+02  0.30582882092E+02 -0.71512911269E+02  0.80650211731E+02  0.00000000000E+00 0. -1.
         -5    1    3    3    0  503 -0.52729050493E+02  0.85667208288E+01 -0.51009162356E+02  0.74011932254E+02  0.47000000000E+01 0.  1.
         13    1    4    4    0    0 -0.25184783256E+01 -0.54928457627E+02 -0.15472828260E+03  0.16420815944E+03  0.00000000000E+00 0. -1.
        -14    1    4    4    0    0  0.62045820407E+02 -0.20805670621E+02 -0.10519656764E+03  0.12389058723E+03  0.00000000000E+00 0.  1.
</event>
<event>
12    1  0.1046899E+000  0.2142140E+03  0.7818608E-02  0.1138497E+00
         21   -1    0    0  503  502  0.00000000000E+00  0.00000000000E+00  0.32921318171E+03  0.32921318171E+03  0.00000000000E+00 0. -1.
         21   -1    0    0  501  503 -0.00000000000E+00 -0.00000000000E+00 -0.21092488052E+03  0.21092488052E+03  0.00000000000E+00 0. -1.
          6    2    1    2  501    0 -0.11588361026E+03  0.54037814407E+02  0.21715115599E+03  0.30421114901E+03  0.17041332730E+03 0.  0.
         24    2    3    3    0    0 -0.24871078782E+02  0.22064838944E+02  0.24207477914E+02  0.88445292224E+02  0.78301596741E+02 0.  0.
         -6    2    1    2    0  502  0.11588361026E+03 -0.54037814407E+02 -0.98862854803E+02  0.23592691322E+03  0.17186782076E+03 0.  0.
        -24    2    5    5    0    0  0.26732348214E+02 -0.49331380275E+02  0.12499534143E+02  0.93120156669E+02  0.73259277251E+02 0.  0.
          5    1    3    3  501    0 -0.91012531474E+02  0.31972975463E+02  0.19294367807E+03  0.21576585679E+03  0.47000000000E+01 0. -1.
        -11    1    4    4    0    0  0.14492580851E+02  0.18971769269E+02  0.39457338330E+02  0.46117724109E+02  0.00000000000E+00 0.  1.
         12    1    4    4    0    0 -0.39363659634E+02  0.30930696749E+01 -0.15249860416E+02  0.42327568114E+02  0.00000000000E+00 0. -1.
         -5    1    5    5    0  502  0.89151262043E+02 -0.47064341316E+01 -0.11136238895E+03  0.14280675656E+03  0.47000000000E+01 0.  1.
         13    1    6    6    0    0 -0.20850856710E+02 -0.25670007246E+02 -0.11223584986E+02  0.34923865157E+02  0.00000000000E+00 0. -1.
        -14    1    6    6    0    0  0.47583204924E+02 -0.23661373029E+02  0.23723119130E+02  0.58196291512E+02  0.00000000000E+00 0.  1.
</event>
<event>
12    1  0.1046899E+000  0.2051948E+03  0.7818608E-02  0.1145890E+00
         21   -1    0    0  503  502  0.00000000000E+00  0.00000000000E+00  0.22399537668E+03  0.22399537668E+03  0.00000000000E+00 0.  1.
         21   -1    0    0  501  503 -0.00000000000E+00 -0.00000000000E+00 -0.22124290769E+03  0.22124290769E+03  0.00000000000E+00 0.  1.
          6    2    1    2  501    0  0.99321569008E+02 -0.50478167073E+02  0.90324198913E+02  0.22213800963E+03  0.16962905115E+03 0.  0.
         24    2    3    3    0    0  0.95640546625E+02 -0.10729915758E+02 -0.25574382104E+01  0.12093246669E+03  0.73183849023E+02 0.  0.
         -6    2    1    2    0  502 -0.99321569008E+02  0.50478167073E+02 -0.87571729925E+02  0.22310027473E+03  0.17231397297E+03 0.  0.
        -24    2    5    5    0    0 -0.84296659284E+02 -0.69297480466E+01 -0.11002344848E+03  0.15947963110E+03  0.78578911580E+02 0.  0.
          5    1    3    3  501    0  0.36810223823E+01 -0.39748251315E+02  0.92881637124E+02  0.10120554295E+03  0.47000000000E+01 0. -1.
        -13    1    4    4    0    0  0.19911645833E+02  0.82506103517E+01 -0.31073114332E+02  0.37816459977E+02  0.00000000000E+00 0.  1.
         14    1    4    4    0    0  0.75728900792E+02 -0.18980526110E+02  0.28515676121E+02  0.83116006709E+02  0.00000000000E+00 0. -1.
         -5    1    5    5    0  502 -0.15024909723E+02  0.57407915120E+02  0.22451718551E+02  0.63620643635E+02  0.47000000000E+01 0.  1.
         11    1    6    6    0    0 -0.12650273883E+02  0.19860535977E+02 -0.68521791551E+02  0.72454856538E+02  0.00000000000E+00 0. -1.
        -12    1    6    6    0    0 -0.71646385401E+02 -0.26790284024E+02 -0.41501656926E+02  0.87024774557E+02  0.00000000000E+00 0.  1.
</event>
<event>
12    1  0.1046899E+000  0.2223859E+03  0.7818608E-02  0.1132122E+00
         21   -1    0    0  503  502  0.00000000000E+00  0.00000000000E+00  0.33061349286E+03  0.33061349286E+03  0.00000000000E+00 0. -1.
         21   -1    0    0  501  503 -0.00000000000E+00 -0.00000000000E+00 -0.18294276529E+03  0.18294276529E+03  0.00000000000E+00 0. -1.
          6    2    1    2  501    0  0.66201359642E+02  0.12389584619E+03  0.18351335389E+03  0.28832735095E+03  0.17240275383E+03 0.  0.
         24    2    3    3    0    0 -0.16149031672E+02  0.82649458034E+02  0.68879133250E+02  0.14120173786E+03  0.90010397403E+02 0.  0.
         -6    2    1    2    0  502 -0.66201359642E+02 -0.12389584619E+03 -0.35842626320E+02  0.22522890720E+03  0.17236753191E+03 0.  0.
        -24    2    5    5    0    0 -0.28607225750E+02 -0.74942670445E+00 -0.45467727345E+02  0.96027157581E+02  0.79592498125E+02 0.  0.
          5    1    3    3  501    0  0.82350391314E+02  0.41246388156E+02  0.11463422064E+03  0.14712561309E+03  0.47000000000E+01 0. -1.
        -11    1    4    4    0    0 -0.32336673387E+02  0.81034644351E+02  0.82430147383E+02  0.12002917657E+03  0.00000000000E+00 0.  1.
         12    1    4    4    0    0  0.16187641715E+02  0.16148136828E+01 -0.13551014133E+02  0.21172561290E+02  0.00000000000E+00 0. -1.
         -5    1    5    5    0  502 -0.37594133892E+02 -0.12314641949E+03  0.96251010249E+01  0.12920174962E+03  0.47000000000E+01 0.  1.
         11    1    6    6    0    0  0.71017892481E+01 -0.13217798146E+02 -0.55009290682E+02  0.57019011388E+02  0.00000000000E+00 0. -1.
        -12    1    6    6    0    0 -0.35709014998E+02  0.12468371442E+02  0.95415633372E+01  0.39008146193E+02  0.00000000000E+00 0.  1.
</event>
<event>
12    1  0.1046899E+000  0.1999074E+03  0.7818608E-02  0.1150031E+00
         21   -1    0    0  503  502  0.00000000000E+00  0.00000000000E+00  0.30539005684E+03  0.30539005684E+03  0.00000000000E+00 0.  1.
         21   -1    0    0  501  503 -0.00000000000E+00 -0.00000000000E+00 -0.13239945378E+03  0.13239945378E+03  0.00000000000E+00 0.  1.
          6    2    1    2  501    0  0.82632655792E+02 -0.54970578116E+02  0.58491093016E+02  0.20828868621E+03  0.17353111704E+03 0.  0.
         24    2    3    3    0    0 -0.22622685185E+02 -0.12553540084E+00  0.43216477773E+02  0.88530307028E+02  0.73879291194E+02 0.  0.
         -6    2    1    2    0  502 -0.82632655792E+02  0.54970578116E+02  0.11449951004E+03  0.22950082440E+03  0.17236754434E+03 0.  0.
        -24    2    5    5    0    0 -0.10681396452E+03 -0.52981537292E+00  0.52929128985E+02  0.14302521401E+03  0.79026675416E+02 0.  0.
          5    1    3    3  501    0  0.10525534098E+03 -0.54845042715E+02  0.15274615244E+02  0.11975837919E+03  0.47000000000E+01 0. -1.
        -11    1    4    4    0    0  0.10644884997E+02 -0.14382364559E+02  0.48737110878E+02  0.51917934894E+02  0.00000000000E+00 0.  1.
         12    1    4    4    0    0 -0.33267570182E+02  0.14256829159E+02 -0.55206331048E+01  0.36612372135E+02  0.00000000000E+00 0. -1.
         -5    1    5    5    0  502  0.24181308731E+02  0.55500393489E+02  0.61570381052E+02  0.86475610389E+02  0.47000000000E+01 0.  1.
         13    1    6    6    0    0 -0.12009327803E+02  0.16104593115E+02 -0.15122838083E+02  0.25145220329E+02  0.00000000000E+00 0. -1.
        -14    1    6    6    0    0 -0.94804636720E+02 -0.16634408488E+02  0.68051967069E+02  0.11787999369E+03  0.00000000000E+00 0.  1.
</event>
<event>
12    1  0.1046899E+000  0.2758799E+03  0.7818608E-02  0.1098144E+00
         21   -1    0    0  503  502  0.00000000000E+00  0.00000000000E+00  0.17244019654E+03  0.17244019654E+03  0.00000000000E+00 0. -1.
         21   -1    0    0  501  503 -0.00000000000E+00 -0.00000000000E+00 -0.67423248891E+03  0.67423248891E+03  0.00000000000E+00 0. -1.
          6    2    1    2  501    0 -0.19204111473E+03  0.93434147850E+02 -0.13777767396E+01  0.27588337153E+03  0.17464251111E+03 0.  0.
         24    2    3    3    0    0 -0.65968197745E+02 -0.35747281404E+01  0.16618357791E+02  0.11572390950E+03  0.93548231519E+02 0.  0.
         -6    2    1    2    0  502  0.19204111473E+03 -0.93434147850E+02 -0.50041451563E+03  0.57078931393E+03  0.17255730558E+03 0.  0.
        -24    2    5    5    0    0  0.17443183234E+03 -0.87675960546E+02 -0.50810001597E+03  0.55018833185E+03  0.80175034013E+02 0.  0.
          5    1    3    3  501    0 -0.12607291698E+03  0.97008875990E+02 -0.17996134531E+02  0.16015946202E+03  0.47000000000E+01 0. -1.
        -13    1    4    4    0    0 -0.67359316181E+02 -0.39661683852E+02  0.14851801463E+02  0.79566969586E+02  0.00000000000E+00 0.  1.
         14    1    4    4    0    0  0.13911184355E+01  0.36086955712E+02  0.17665563282E+01  0.36156939919E+02  0.00000000000E+00 0. -1.
         -5    1    5    5    0  502  0.17609282385E+02 -0.57581873038E+01  0.76855003400E+01  0.20600982079E+02  0.47000000000E+01 0.  1.
         11    1    6    6    0    0  0.40409720536E+02 -0.28705124221E+02 -0.55110511212E+02  0.74122183700E+02  0.00000000000E+00 0. -1.
        -12    1    6    6    0    0  0.13402211180E+03 -0.58970836324E+02 -0.45298950476E+03  0.47606614815E+03  0.00000000000E+00 0.  1.
</event>
<event>
12    1  0.1046899E+000  0.1917297E+03  0.7818608E-02  0.1157003E+00
         21   -1    0    0  501  502  0.00000000000E+00  0.00000000000E+00  0.32378669627E+03  0.32378669627E+03  0.00000000000E+00 0.  1.
         21   -1    0    0  502  503 -0.00000000000E+00 -0.00000000000E+00 -0.13802796332E+03  0.13802796332E+03  0.00000000000E+00 0. -1.
         -6    2    1    2    0  503 -0.61243174091E+02  0.57664289651E+02 -0.49661175140E+01  0.19137752406E+03  0.17182781415E+03 0.  0.
        -24    2    3    3    0    0 -0.38372229569E+02  0.69203191812E+02 -0.62031639673E+02  0.12864961810E+03  0.80257648592E+02 0.  0.
          6    2    1    2  501    0  0.61243174091E+02 -0.57664289651E+02  0.19072485047E+03  0.27043713554E+03  0.17229155237E+03 0.  0.
         24    2    5    5    0    0  0.42606754070E+02 -0.85795992354E+01  0.19709804434E+03  0.21733976664E+03  0.80622515864E+02 0.  0.
          5    1    5    5  501    0  0.18636420020E+02 -0.49084690416E+02 -0.63731938690E+01  0.53097368903E+02  0.47000000000E+01 0. -1.
        -13    1    6    6    0    0  0.20536262407E+02  0.19068509033E+02  0.14899791904E+02  0.31738776114E+02  0.00000000000E+00 0.  1.
         14    1    6    6    0    0  0.22070491663E+02 -0.27648108269E+02  0.18219825243E+03  0.18560099052E+03  0.00000000000E+00 0. -1.
         -5    1    3    3    0  503 -0.22870944522E+02 -0.11538902161E+02  0.57065522159E+02  0.62727905956E+02  0.47000000000E+01 0.  1.
         11    1    4    4    0    0 -0.59118031126E+02  0.60666856490E+02 -0.63946493309E+02  0.10613464603E+03  0.00000000000E+00 0. -1.
        -12    1    4    4    0    0  0.20745801557E+02  0.85363353215E+01  0.19148536364E+01  0.22514972073E+02  0.00000000000E+00 0.  1.
</event>
<event>
12    1  0.1046899E+000  0.2846913E+03  0.7818608E-02  0.1093181E+00
         21   -1    0    0  503  502  0.00000000000E+00  0.00000000000E+00  0.53023439177E+03  0.53023439177E+03  0.00000000000E+00 0.  1.
         21   -1    0    0  501  503 -0.00000000000E+00 -0.00000000000E+00 -0.16017042570E+03  0.16017042570E+03  0.00000000000E+00 0.  1.
          6    2    1    2  501    0 -0.17666367117E+03  0.14268836890E+03  0.11077081755E+03  0.30548210800E+03  0.17169484837E+03 0.  0.
         24    2    3    3    0    0 -0.75043946673E+02  0.14438797954E+03  0.53130668282E+02  0.18854651081E+03  0.79040725324E+02 0.  0.
         -6    2    1    2    0  502  0.17666367117E+03 -0.14268836890E+03  0.25929314853E+03  0.38492270947E+03  0.17135498845E+03 0.  0.
        -24    2    5    5    0    0  0.11605146120E+03 -0.16609843832E+03  0.20653305283E+03  0.30109199288E+03  0.83329787009E+02 0.  0.
          5    1    3    3  501    0 -0.10161972449E+03 -0.16996106357E+01  0.57640149264E+02  0.11693559719E+03  0.47000000000E+01 0. -1.
        -11    1    4    4    0    0 -0.15444032859E+02  0.10737129700E+03  0.17572251873E+02  0.10989038905E+03  0.00000000000E+00 0.  1.
         12    1    4    4    0    0 -0.59599913813E+02  0.37016682541E+02  0.35558416409E+02  0.78656121761E+02  0.00000000000E+00 0. -1.
         -5    1    5    5    0  502  0.60612209966E+02  0.23410069421E+02  0.52760095697E+02  0.83830716597E+02  0.47000000000E+01 0.  1.
         11    1    6    6    0    0  0.38086799525E+02 -0.23104590856E+02  0.91280239907E+02  0.10157021519E+03  0.00000000000E+00 0. -1.
        -12    1    6    6    0    0  0.77964661675E+02 -0.14299384747E+03  0.11525281292E+03  0.19952177768E+03  0.00000000000E+00 0.  1.
</event>
<event>
12    1  0.1046899E+000  0.2420328E+03  0.7818608E-02  0.1118605E+00
         21   -1    0    0  501  502  0.00000000000E+00  0.00000000000E+00  0.13133625488E+03  0.13133625488E+03  0.00000000000E+00 0. -1.
         21   -1    0    0  502  503 -0.00000000000E+00 -0.00000000000E+00 -0.24774561010E+04  0.24774561010E+04  0.00000000000E+00 0. -1.
         -6    2    1    2    0  503  0.65836828826E+02  0.15715275842E+03 -0.23543111311E+04  0.23666209498E+04  0.17053545252E+03 0.  0.
        -24    2    3    3    0    0  0.42743358693E+02  0.36876465316E+02 -0.57535417738E+03  0.58344691786E+03  0.78682959559E+02 0.  0.
          6    2    1    2  501    0 -0.65836828826E+02 -0.15715275842E+03  0.81912849999E+01  0.24217140605E+03  0.17189652484E+03 0.  0.
         24    2    5    5    0    0 -0.47960766056E+02 -0.45659987066E+02  0.58071018511E+02  0.11863894272E+03  0.79485130925E+02 0.  0.
          5    1    5    5  501    0 -0.17876062770E+02 -0.11149277135E+03 -0.49879733511E+02  0.12353246334E+03  0.47000000000E+01 0. -1.
        -13    1    6    6    0    0 -0.14616024869E+02 -0.43763905182E+02  0.69428535893E+02  0.83362036779E+02  0.00000000000E+00 0.  1.
         14    1    6    6    0    0 -0.33344741187E+02 -0.18960818846E+01 -0.11357517382E+02  0.35276905936E+02  0.00000000000E+00 0. -1.
         -5    1    3    3    0  503  0.23093470133E+02  0.12027629310E+03 -0.17789569537E+04  0.17831740320E+04  0.47000000000E+01 0.  1.
         11    1    4    4    0    0  0.32214212214E+02  0.23285601375E+02 -0.55655169928E+03  0.55796932592E+03  0.00000000000E+00 0. -1.
        -12    1    4    4    0    0  0.10529146479E+02  0.13590863941E+02 -0.18802478104E+02  0.25477591941E+02  0.00000000000E+00 0.  1.
</event>
<event>
12    1  0.1046899E+000  0.3535558E+03  0.7818608E-02  0.1061347E+00
         21   -1    0    0  501  502  0.00000000000E+00  0.00000000000E+00  0.39504578868E+03  0.39504578868E+03  0.00000000000E+00 0. -1.
         21   -1    0    0  502  503 -0.00000000000E+00 -0.00000000000E+00 -0.49509684579E+03  0.49509684579E+03  0.00000000000E+00 0.  1.
         -6    2    1    2    0  503  0.25746084875E+03 -0.16986677032E+03  0.21846127815E+03  0.41560442629E+03  0.17280306942E+03 0.  0.
        -24    2    3    3    0    0  0.27339692886E+03 -0.13951609077E+03  0.20893727741E+03  0.37971683806E+03  0.79495099999E+02 0.  0.
          6    2    1    2  501    0 -0.25746084875E+03  0.16986677032E+03 -0.31851233526E+03  0.47453820818E+03  0.16910232115E+03 0.  0.
         24    2    5    5    0    0 -0.12622747254E+03  0.18355941806E+02 -0.12929132164E+03  0.19884923092E+03  0.80959590935E+02 0.  0.
          5    1    5    5  501    0 -0.13123337621E+03  0.15151082851E+03 -0.18922101362E+03  0.27568897726E+03  0.47000000000E+01 0. -1.
        -13    1    6    6    0    0 -0.38711933407E+02 -0.26129404689E+02 -0.70032524093E+02  0.84177871251E+02  0.00000000000E+00 0.  1.
         14    1    6    6    0    0 -0.87515539131E+02  0.44485346496E+02 -0.59258797545E+02  0.11467135967E+03  0.00000000000E+00 0. -1.
         -5    1    3    3    0  503 -0.15936080112E+02 -0.30350679547E+02  0.95240007466E+01  0.35887588224E+02  0.47000000000E+01 0.  1.
         11    1    4    4    0    0  0.20464744502E+03 -0.12568307081E+03  0.19225086657E+03  0.30763160881E+03  0.00000000000E+00 0. -1.
        -12    1    4    4    0    0  0.68749483842E+02 -0.13833019961E+02  0.16686410831E+02  0.72085229251E+02  0.00000000000E+00 0.  1.
</event>
<event>
12    1  0.1046899E+000  0.2583446E+03  0.7818608E-02  0.1109207E+00
         21   -1    0    0  503  502  0.00000000000E+00  0.00000000000E+00  0.58294009825E+03  0.58294009825E+03  0.00000000000E+00 0. -1.
         21   -1    0    0  501  503 -0.00000000000E+00 -0.00000000000E+00 -0.27936959362E+03  0.27936959362E+03  0.00000000000E+00 0. -1.
          6    2    1    2  501    0  0.18586311162E+03 -0.41615547024E+02  0.48687461625E+03  0.55117041102E+03  0.17454220125E+03 0.  0.
         24    2    3    3    0    0  0.16334859924E+03  0.11718465582E+02  0.44157778573E+03  0.47751368679E+03  0.78792721205E+02 0.  0.
         -6    2    1    2    0  502 -0.18586311162E+03  0.41615547024E+02 -0.18330411162E+03  0.31113928086E+03  0.16410455429E+03 0.  0.
        -24    2    5    5    0    0 -0.15449780731E+03 -0.15746885000E+02 -0.17111450626E+03  0.24446914210E+03  0.79796305289E+02 0.  0.
          5    1    3    3  501    0  0.22514512387E+02 -0.53334012606E+02  0.45296830522E+02  0.73656724228E+02  0.47000000000E+01 0. -1.
        -11    1    4    4    0    0  0.40373155995E+02  0.27670815681E+02  0.67217838511E+02  0.83149886227E+02  0.00000000000E+00 0.  1.
         12    1    4    4    0    0  0.12297544324E+03 -0.15952350099E+02  0.37435994721E+03  0.39436380056E+03  0.00000000000E+00 0. -1.
         -5    1    5    5    0  502 -0.31365304317E+02  0.57362432023E+02 -0.12189605360E+02  0.66670138753E+02  0.47000000000E+01 0.  1.
         11    1    6    6    0    0 -0.13431354858E+03  0.98296236964E+01 -0.16193838506E+03  0.21062001659E+03  0.00000000000E+00 0. -1.
        -12    1    6    6    0    0 -0.20184258727E+02 -0.25576508696E+02 -0.91761212016E+01  0.33849125510E+02  0.00000000000E+00 0.  1.
</event>
<event>
12    1  0.1046899E+000  0.2465998E+03  0.7818608E-02  0.1115763E+00
         21   -1    0    0  501  502  0.00000000000E+00  0.00000000000E+00  0.85943784513E+03  0.85943784513E+03  0.00000000000E+00 0. -1.
         21   -1    0    0  502  503 -0.00000000000E+00 -0.00000000000E+00 -0.78218498692E+02  0.78218498692E+02  0.00000000000E+00 0. -1.
         -6    2    1    2    0  503 -0.14162243033E+03 -0.10149401957E+03  0.54159644894E+03  0.59509509928E+03  0.17450935475E+03 0.  0.
        -24    2    3    3    0    0 -0.52005066907E+02 -0.75958921763E+02  0.44286199321E+03  0.45924998235E+03  0.79432464845E+02 0.  0.
          6    2    1    2  501    0  0.14162243033E+03  0.10149401957E+03  0.23962289749E+03  0.34256124455E+03  0.17196256709E+03 0.  0.
         24    2    5    5    0    0  0.13929023204E+03  0.10570590666E+03  0.25861914376E+03  0.32240866372E+03  0.80547982490E+02 0.  0.
          5    1    5    5  501    0  0.23321982858E+01 -0.42118870933E+01 -0.18996246261E+02  0.20152580821E+02  0.47000000000E+01 0. -1.
        -13    1    6    6    0    0  0.67786611184E+02  0.11414312904E+02  0.60169458369E+02  0.91354665537E+02  0.00000000000E+00 0.  1.
         14    1    6    6    0    0  0.71503620855E+02  0.94291593757E+02  0.19844968539E+03  0.23105399819E+03  0.00000000000E+00 0. -1.
         -5    1    3    3    0  503 -0.89617363418E+02 -0.25535097805E+02  0.98734455731E+02  0.13584511693E+03  0.47000000000E+01 0.  1.
         13    1    4    4    0    0 -0.10773954148E+02 -0.21035800966E+01  0.22907766799E+03  0.22934053525E+03  0.00000000000E+00 0. -1.
        -14    1    4    4    0    0 -0.41231112759E+02 -0.73855341666E+02  0.21378432522E+03  0.22990944710E+03  0.00000000000E+00 0.  1.
</event>
<event>
12    1  0.1046899E+000  0.2325540E+03  0.7818608E-02  0.1125673E+00
         21   -1    0    0  503  502  0.00000000000E+00  0.00000000000E+00  0.11408714603E+03  0.11408714603E+03  0.00000000000E+00 0.  1.
         21   -1    0    0  501  503 -0.00000000000E+00 -0.00000000000E+00 -0.63571583328E+03  0.63571583328E+03  0.00000000000E+00 0.  1.
          6    2    1    2  501    0  0.60262353369E+02  0.13550735264E+03 -0.68234673344E+02  0.24235784892E+03  0.17913001545E+03 0.  0.
         24    2    3    3    0    0  0.47489013150E+01  0.31797050006E+02  0.27042040669E+02  0.90907155741E+02  0.80617830215E+02 0.  0.
         -6    2    1    2    0  502 -0.60262353369E+02 -0.13550735264E+03 -0.45339401391E+03  0.50744513039E+03  0.17303362292E+03 0.  0.
        -24    2    5    5    0    0 -0.17991913283E+02 -0.13978375421E+03 -0.42835025689E+03  0.45790365806E+03  0.79552565020E+02 0.  0.
          5    1    3    3  501    0  0.55513452054E+02  0.10371030263E+03 -0.95276714014E+02  0.15145069318E+03  0.47000000000E+01 0. -1.
        -11    1    4    4    0    0 -0.32702740804E+01 -0.26320426087E+02  0.16677716432E+02  0.31330588046E+02  0.00000000000E+00 0.  1.
         12    1    4    4    0    0  0.80191753954E+01  0.58117476093E+02  0.10364324237E+02  0.59576567695E+02  0.00000000000E+00 0. -1.
         -5    1    5    5    0  502 -0.42270440086E+02  0.42764015755E+01 -0.25043757019E+02  0.49541472335E+02  0.47000000000E+01 0.  1.
         11    1    6    6    0    0 -0.11719308810E+02 -0.71926629188E+02 -0.10734620754E+03  0.12974586876E+03  0.00000000000E+00 0. -1.
        -12    1    6    6    0    0 -0.62726044727E+01 -0.67857125026E+02 -0.32100404935E+03  0.32815778930E+03  0.00000000000E+00 0.  1.
</event>
<event>
12    1  0.1077988E+000  0.2335769E+03  0.7818608E-02  0.1126012E+00
         21   -1    0    0  503  502  0.00000000000E+00  0.00000000000E+00  0.47091363587E+03  0.47091363587E+03  0.00000000000E+00 0. -1.
         21   -1    0    0  501  503 -0.00000000000E+00 -0.00000000000E+00 -0.82324610844E+03  0.82324610844E+03  0.00000000000E+00 0. -1.
          6    2    1    2  501    0  0.12840725260E+03  0.93095846233E+02  0.42637038192E+03  0.48117986105E+03  0.15680273274E+03 0.  0.
         24    2    3    3    0    0  0.12561479837E+03  0.11792631203E+03  0.38965177924E+03  0.43651784569E+03  0.95045399192E+02 0.  0.
         -6    2    1    2    0  502 -0.12840725260E+03 -0.93095846233E+02 -0.77870285450E+03  0.81297988326E+03  0.17147272633E+03 0.  0.
        -24    2    5    5    0    0 -0.36732548729E+02  0.17627720351E+02 -0.29560093342E+03  0.30892282728E+03  0.79958643807E+02 0.  0.
          5    1    3    3  501    0  0.27924542308E+01 -0.24830465800E+02  0.36718602685E+02  0.44662015356E+02  0.47000000000E+01 0. -1.
        -13    1    4    4    0    0  0.50680106407E+02 -0.28884540720E+01  0.68080086362E+02  0.84921814108E+02  0.00000000000E+00 0.  1.
         14    1    4    4    0    0  0.74934691965E+02  0.12081476611E+03  0.32157169287E+03  0.35159603159E+03  0.00000000000E+00 0. -1.
         -5    1    5    5    0  502 -0.91674703873E+02 -0.11072356658E+03 -0.48310192108E+03  0.50405705598E+03  0.47000000000E+01 0.  1.
         13    1    6    6    0    0  0.17532564198E+02  0.20550439290E+02 -0.16908505583E+03  0.17122928332E+03  0.00000000000E+00 0. -1.
        -14    1    6    6    0    0 -0.54265112927E+02 -0.29227189386E+01 -0.12651587758E+03  0.13769354396E+03  0.00000000000E+00 0.  1.
</event>
<event>
12    1  0.1046899E+000  0.1927423E+03  0.7818608E-02  0.1157474E+00
         21   -1    0    0  503  502  0.00000000000E+00  0.00000000000E+00  0.15233625950E+04  0.15233625950E+04  0.00000000000E+00 0.  1.
         21   -1    0    0  501  503 -0.00000000000E+00 -0.00000000000E+00 -0.24416116021E+02  0.24416116021E+02  0.00000000000E+00 0.  1.
          6    2    1    2  501    0  0.13440350785E+02 -0.81445896654E+02  0.59321476625E+03  0.62176599661E+03  0.16695843355E+03 0.  0.
         24    2    3    3    0    0 -0.54026667258E+02 -0.66093886845E+02  0.35967232154E+03  0.37814406367E+03  0.79633355778E+02 0.  0.
         -6    2    1    2    0  502 -0.13440350785E+02  0.81445896654E+02  0.90573171270E+03  0.92601271439E+03  0.17417099269E+03 0.  0.
        -24    2    5    5    0    0 -0.67603539986E+02  0.84908851033E+02  0.71855469201E+03  0.73106920925E+03  0.79759586926E+02 0.  0.
          5    1    3    3  501    0  0.67467018044E+02 -0.15352009809E+02  0.23354244471E+03  0.24362193294E+03  0.47000000000E+01 0. -1.
        -11    1    4    4    0    0 -0.49596633912E+02 -0.12875595470E+02  0.26065783237E+03  0.26564659348E+03  0.00000000000E+00 0.  1.
         12    1    4    4    0    0 -0.44300333462E+01 -0.53218291375E+02  0.99014489176E+02  0.11249747019E+03  0.00000000000E+00 0. -1.
         -5    1    5    5    0  502  0.54163189200E+02 -0.34629543791E+01  0.18717702070E+03  0.19494350514E+03  0.47000000000E+01 0.  1.
         13    1    6    6    0    0 -0.61378128909E+02  0.74259519630E+02  0.70886806283E+03  0.71538498829E+03  0.00000000000E+00 0. -1.
        -14    1    6    6    0    0 -0.62254110762E+01  0.10649331403E+02  0.96866291715E+01  0.15684220959E+02  0.00000000000E+00 0.  1.
</event>
<event>
12    1  0.1046899E+000  0.1994919E+03  0.7818608E-02  0.1150237E+00
         21   -1    0    0  503  502  0.00000000000E+00  0.00000000000E+00  0.77923767413E+03  0.77923767413E+03  0.00000000000E+00 0.  1.
         21   -1    0    0  501  503 -0.00000000000E+00 -0.00000000000E+00 -0.52951846547E+02  0.52951846547E+02  0.00000000000E+00 0.  1.
          6    2    1    2  501    0 -0.98485288913E+02  0.22722196216E+02  0.28330571900E+03  0.34649552124E+03  0.17199234136E+03 0.  0.
         24    2    3    3    0    0 -0.45987342153E+02  0.58937095794E+02  0.86917238294E+02  0.13995719860E+03  0.80280721394E+02 0.  0.
         -6    2    1    2    0  502  0.98485288913E+02 -0.22722196216E+02  0.44298010859E+03  0.48569399944E+03  0.17161478420E+03 0.  0.
        -24    2    5    5    0    0  0.46700342219E+02 -0.69083398171E+02  0.35665400295E+03  0.37476461530E+03  0.79328438766E+02 0.  0.
          5    1    3    3  501    0 -0.52497946760E+02 -0.36214899578E+02  0.19638848071E+03  0.20653832264E+03  0.47000000000E+01 0. -1.
        -11    1    4    4    0    0  0.97377797691E+01  0.23157732823E+02 -0.60264575627E+01  0.25834533770E+02  0.00000000000E+00 0.  1.
         12    1    4    4    0    0 -0.55725121922E+02  0.35779362971E+02  0.92943695857E+02  0.11412266483E+03  0.00000000000E+00 0. -1.
         -5    1    5    5    0  502  0.51784946694E+02  0.46361201955E+02  0.86326105635E+02  0.11092938414E+03  0.47000000000E+01 0.  1.
         11    1    6    6    0    0  0.66455176454E+02 -0.36925795790E+02  0.26372186214E+03  0.27446133689E+03  0.00000000000E+00 0. -1.
        -12    1    6    6    0    0 -0.19754834235E+02 -0.32157602382E+02  0.92932140805E+02  0.10030327842E+03  0.00000000000E+00 0.  1.
</event>
<event>
12    1  0.1046899E+000  0.3035280E+03  0.7818608E-02  0.1083738E+00
         21   -1    0    0  503  502  0.00000000000E+00  0.00000000000E+00  0.38581520619E+03  0.38581520619E+03  0.00000000000E+00 0. -1.
         21   -1    0    0  501  503 -0.00000000000E+00 -0.00000000000E+00 -0.24278225338E+03  0.24278225338E+03  0.00000000000E+00 0. -1.
          6    2    1    2  501    0 -0.10474262448E+03 -0.22657969520E+03  0.23698575928E+02  0.30245343855E+03  0.16913628922E+03 0.  0.
         24    2    3    3    0    0 -0.80752689846E+02 -0.13807802570E+03  0.76742856308E+02  0.19641642544E+03  0.84281718602E+02 0.  0.
         -6    2    1    2    0  502  0.10474262448E+03  0.22657969520E+03  0.11933437688E+03  0.32614402102E+03  0.17268425892E+03 0.  0.
        -24    2    5    5    0    0 -0.53826805931E+01  0.11586488208E+03  0.92717873189E+02  0.16766411399E+03  0.77852469204E+02 0.  0.
          5    1    3    3  501    0 -0.23989934639E+02 -0.88501669506E+02 -0.53044280380E+02  0.10603701312E+03  0.47000000000E+01 0. -1.
        -13    1    4    4    0    0 -0.71222436030E+02 -0.13158110861E+03  0.35750275751E+02  0.15383206998E+03  0.00000000000E+00 0.  1.
         14    1    4    4    0    0 -0.95302538159E+01 -0.64969170859E+01  0.40992580557E+02  0.42584355462E+02  0.00000000000E+00 0. -1.
         -5    1    5    5    0  502  0.11012530508E+03  0.11071481312E+03  0.26616503688E+02  0.15847990703E+03  0.47000000000E+01 0.  1.
         13    1    6    6    0    0  0.10642117973E+02  0.81667912021E+02  0.99638306798E+02  0.12926985229E+03  0.00000000000E+00 0. -1.
        -14    1    6    6    0    0 -0.16024798566E+02  0.34196970061E+02 -0.69204336082E+01  0.38394261704E+02  0.00000000000E+00 0.  1.
</event>
<event>
12    1  0.1046899E+000  0.1916840E+03  0.7818608E-02  0.1157300E+00
         21   -1    0    0  501  502  0.00000000000E+00  0.00000000000E+00  0.31950271526E+03  0.31950271526E+03  0.00000000000E+00 0.  1.
         21   -1    0    0  502  503 -0.00000000000E+00 -0.00000000000E+00 -0.11830960984E+03  0.11830960984E+03  0.00000000000E+00 0.  1.
         -6    2    1    2    0  503 -0.16212060932E+02 -0.80778124947E+02  0.14165489029E+03  0.23709475133E+03  0.17134724035E+03 0.  0.
        -24    2    3    3    0    0 -0.40570017351E+02 -0.54312473352E+02  0.16415316074E+03  0.19440982509E+03  0.79076854030E+02 0.  0.
          6    2    1    2  501    0  0.16212060932E+02  0.80778124947E+02  0.59538215133E+02  0.20071757377E+03  0.17307457632E+03 0.  0.
         24    2    5    5    0    0  0.63393219631E+02  0.38787962102E+02 -0.95486711844E+01  0.10699285252E+03  0.76374649392E+02 0.  0.
          5    1    5    5  501    0 -0.47181158698E+02  0.41990162845E+02  0.69086886317E+02  0.93724721247E+02  0.47000000000E+01 0. -1.
        -11    1    6    6    0    0 -0.13888650032E+02 -0.79826998594E+01  0.97699227010E+00  0.16049068840E+02  0.00000000000E+00 0.  1.
         12    1    6    6    0    0  0.77281869662E+02  0.46770661962E+02 -0.10525663454E+02  0.90943783680E+02  0.00000000000E+00 0. -1.
         -5    1    3    3    0  503  0.24357956419E+02 -0.26465651595E+02 -0.22498270444E+02  0.42684926241E+02  0.47000000000E+01 0.  1.
         13    1    4    4    0    0 -0.44008629474E+02 -0.25888076783E+02  0.34472510248E+02  0.61606054496E+02  0.00000000000E+00 0. -1.
        -14    1    4    4    0    0  0.34386121229E+01 -0.28424396569E+02  0.12968065049E+03  0.13280377060E+03  0.00000000000E+00 0.  1.
</event>
<event>
12    1  0.1046899E+000  0.1747179E+03  0.7818608E-02  0.1173477E+00
         21   -1    0    0  501  502  0.00000000000E+00  0.00000000000E+00  0.19019472852E+03  0.19019472852E+03  0.00000000000E+00 0.  1.
         21   -1    0    0  502  503 -0.00000000000E+00 -0.00000000000E+00 -0.31880258940E+03  0.31880258940E+03  0.00000000000E+00 0.  1.
         -6    2    1    2    0  503  0.32048966187E+02  0.16135642116E+02  0.11614304420E+03  0.20828257295E+03  0.16912991545E+03 0.  0.
        -24    2    3    3    0    0 -0.42486035751E+02  0.30629899581E+02  0.50521710926E+02  0.10781467065E+03  0.79550650213E+02 0.  0.
          6    2    1    2  501    0 -0.32048966187E+02 -0.16135642116E+02 -0.24475090508E+03  0.30071474497E+03  0.17099373415E+03 0.  0.
         24    2    5    5    0    0  0.45304626376E+02 -0.28154374359E+02 -0.14697819785E+03  0.17537672006E+03  0.79430632185E+02 0.  0.
          5    1    5    5  501    0 -0.77353592563E+02  0.12018732243E+02 -0.97772707235E+02  0.12533802491E+03  0.47000000000E+01 0. -1.
        -13    1    6    6    0    0  0.11929121903E+01 -0.40629264597E+02 -0.10732612546E+03  0.11476522726E+03  0.00000000000E+00 0.  1.
         14    1    6    6    0    0  0.44111714186E+02  0.12474890238E+02 -0.39652072385E+02  0.60611492799E+02  0.00000000000E+00 0. -1.
         -5    1    3    3    0  503  0.74535001938E+02 -0.14494257465E+02  0.65621333272E+02  0.10046790231E+03  0.47000000000E+01 0.  1.
         11    1    4    4    0    0 -0.18959539972E+02  0.20229304489E+02 -0.19050531992E+02  0.33639436459E+02  0.00000000000E+00 0. -1.
        -12    1    4    4    0    0 -0.23526495779E+02  0.10400595092E+02  0.69572242919E+02  0.74175234187E+02  0.00000000000E+00 0.  1.
</event>
<event>
12    1  0.1046899E+000  0.2070891E+03  0.7818608E-02  0.1144551E+00
         21   -1    0    0  501  502  0.00000000000E+00  0.00000000000E+00  0.13522521480E+03  0.13522521480E+03  0.00000000000E+00 0. -1.
         21   -1    0    0  502  503 -0.00000000000E+00 -0.00000000000E+00 -0.32473949029E+03  0.32473949029E+03  0.00000000000E+00 0. -1.
         -6    2    1    2    0  503 -0.10078441082E+03 -0.56192110897E+02 -0.50288166621E+02  0.21310743561E+03  0.17196170684E+03 0.  0.
        -24    2    3    3    0    0  0.44812818047E+01 -0.63375830632E+01 -0.54167149123E+02  0.96473493319E+02  0.79453181329E+02 0.  0.
          6    2    1    2  501    0  0.10078441082E+03  0.56192110897E+02 -0.13922610887E+03  0.24685726949E+03  0.16804627731E+03 0.  0.
         24    2    5    5    0    0  0.10023339569E+03  0.88858338949E+02 -0.74304524697E+02  0.17402672531E+03  0.82592982277E+02 0.  0.
          5    1    5    5  501    0  0.55101512773E+00 -0.32666228052E+02 -0.64921584173E+02  0.72830544172E+02  0.47000000000E+01 0. -1.
        -11    1    6    6    0    0  0.82772111982E+02  0.49133600856E+02 -0.86006984861E+02  0.12908344084E+03  0.00000000000E+00 0.  1.
         12    1    6    6    0    0  0.17461283707E+02  0.39724738093E+02  0.11702460164E+02  0.44943284472E+02  0.00000000000E+00 0. -1.
         -5    1    3    3    0  503 -0.10526569262E+03 -0.49854527833E+02  0.38789825023E+01  0.11663394229E+03  0.47000000000E+01 0.  1.
         13    1    4    4    0    0 -0.10110761850E+02  0.29159452176E+02 -0.48772360648E+02  0.57716932693E+02  0.00000000000E+00 0. -1.
        -14    1    4    4    0    0  0.14592043655E+02 -0.35497035239E+02 -0.53947884751E+01  0.38756560625E+02  0.00000000000E+00 0.  1.
</event>
<event>
12    1  0.1046899E+000  0.2480441E+03  0.7818608E-02  0.1115486E+00
         21   -1    0    0  501  502  0.00000000000E+00  0.00000000000E+00  0.15116809472E+03  0.15116809472E+03  0.00000000000E+00 0.  1.
         21   -1    0    0  502  503 -0.00000000000E+00 -0.00000000000E+00 -0.46255112202E+03  0.46255112202E+03  0.00000000000E+00 0.  1.
         -6    2    1    2    0  503 -0.14163198869E+03  0.99433028040E+02 -0.27232206523E+03  0.36835471946E+03  0.17770578170E+03 0.  0.
        -24    2    3    3    0    0 -0.27375888822E+02 -0.83680091536E+01 -0.15601879474E+03  0.17284497366E+03  0.68658996051E+02 0.  0.
          6    2    1    2  501    0  0.14163198869E+03 -0.99433028040E+02 -0.39060962068E+02  0.24536449728E+03  0.16950348221E+03 0.  0.
         24    2    5    5    0    0  0.55736724825E+02 -0.74420293460E+02 -0.82484056490E+02  0.14580904351E+03  0.76234473973E+02 0.  0.
          5    1    5    5  501    0  0.85895263862E+02 -0.25012734579E+02  0.43423094421E+02  0.99555453764E+02  0.47000000000E+01 0. -1.
        -11    1    6    6    0    0  0.37891180477E+01 -0.15247676178E+02  0.14159060325E+02  0.21150130820E+02  0.00000000000E+00 0.  1.
         12    1    6    6    0    0  0.51947606777E+02 -0.59172617282E+02 -0.96643116815E+02  0.12465891269E+03  0.00000000000E+00 0. -1.
         -5    1    3    3    0  503 -0.11425609986E+03  0.10780103719E+03 -0.11630327049E+03  0.19550974580E+03  0.47000000000E+01 0.  1.
         13    1    4    4    0    0 -0.28780827369E+01 -0.18125962396E+01  0.70438798334E+01  0.78220910552E+01  0.00000000000E+00 0. -1.
        -14    1    4    4    0    0 -0.24497806085E+02 -0.65554129140E+01 -0.16306267458E+03  0.16502288260E+03  0.00000000000E+00 0.  1.
</event>
<event>
12    1  0.1046899E+000  0.1966486E+03  0.7818608E-02  0.1152721E+00
         21   -1    0    0  501  502  0.00000000000E+00  0.00000000000E+00  0.23416271959E+03  0.23416271959E+03  0.00000000000E+00 0. -1.
         21   -1    0    0  502  503 -0.00000000000E+00 -0.00000000000E+00 -0.17569112912E+03  0.17569112912E+03  0.00000000000E+00 0. -1.
         -6    2    1    2    0  503 -0.29166909081E+02 -0.89309367746E+02 -0.22140866926E+02  0.19732373015E+03  0.17210335481E+03 0.  0.
        -24    2    3    3    0    0  0.46741681573E+02 -0.73498139885E+02 -0.14916154655E+02  0.11930837570E+03  0.80157566583E+02 0.  0.
          6    2    1    2  501    0  0.29166909081E+02  0.89309367746E+02  0.80612457399E+02  0.21253011857E+03  0.17275361431E+03 0.  0.
         24    2    5    5    0    0  0.76864756622E+02  0.76602046959E+02  0.91017425715E+02  0.16186539684E+03  0.78359240059E+02 0.  0.
          5    1    5    5  501    0 -0.47697847541E+02  0.12707320787E+02 -0.10404968317E+02  0.50664721724E+02  0.47000000000E+01 0. -1.
        -13    1    6    6    0    0  0.16196930211E+02  0.70960970118E+02  0.45902253457E+02  0.86051244620E+02  0.00000000000E+00 0.  1.
         14    1    6    6    0    0  0.60667826411E+02  0.56410768411E+01  0.45115172259E+02  0.75814152223E+02  0.00000000000E+00 0. -1.
         -5    1    3    3    0  503 -0.75908590653E+02 -0.15811227861E+02 -0.72247122715E+01  0.78015354443E+02  0.47000000000E+01 0.  1.
         13    1    4    4    0    0  0.54840988800E+02 -0.81746877900E+02 -0.27513160426E+02  0.10221086095E+03  0.00000000000E+00 0. -1.
        -14    1    4    4    0    0 -0.80993072275E+01  0.82487380153E+01  0.12597005771E+02  0.17097514755E+02  0.00000000000E+00 0.  1.
</event>
<event>
12    1  0.1046899E+000  0.2789344E+03  0.7818608E-02  0.1096416E+00
         21   -1    0    0  501  502  0.00000000000E+00  0.00000000000E+00  0.10659144395E+03  0.10659144395E+03  0.00000000000E+00 0. -1.
         21   -1    0    0  502  503 -0.00000000000E+00 -0.00000000000E+00 -0.72876009706E+03  0.72876009706E+03  0.00000000000E+00 0. -1.
         -6    2    1    2    0  503 -0.15644116112E+03 -0.15234562339E+03 -0.29228641841E+03  0.40402445510E+03  0.17355513266E+03 0.  0.
        -24    2    3    3    0    0 -0.77783311636E+02 -0.44169206365E+02 -0.22226924780E+03  0.25298244549E+03  0.81211679273E+02 0.  0.
          6    2    1    2  501    0  0.15644116112E+03  0.15234562339E+03 -0.32988223469E+03  0.43132708591E+03  0.17186547186E+03 0.  0.
         24    2    5    5    0    0  0.14656875438E+03  0.60127986160E+02 -0.26276712651E+03  0.31674923125E+03  0.78649464375E+02 0.  0.
          5    1    5    5  501    0  0.98724067411E+01  0.92217637233E+02 -0.67115108182E+02  0.11457785466E+03  0.47000000000E+01 0. -1.
        -13    1    6    6    0    0  0.15274411869E+03  0.43436515596E+02 -0.23064031803E+03  0.28002223659E+03  0.00000000000E+00 0.  1.
         14    1    6    6    0    0 -0.61753643184E+01  0.16691470565E+02 -0.32126808476E+02  0.36726994662E+02  0.00000000000E+00 0. -1.
         -5    1    3    3    0  503 -0.78657849481E+02 -0.10817641703E+03 -0.70017170617E+02  0.15104200961E+03  0.47000000000E+01 0.  1.
         11    1    4    4    0    0 -0.71451262980E+02 -0.26407289983E+01 -0.17863557080E+03  0.19241341842E+03  0.00000000000E+00 0. -1.
        -12    1    4    4    0    0 -0.63320486554E+01 -0.41528477367E+02 -0.43633676996E+02  0.60569027075E+02  0.00000000000E+00 0.  1.
</event>
<event>
12    1  0.1046899E+000  0.2311759E+03  0.7818608E-02  0.1125859E+00
         21   -1    0    0  503  502  0.00000000000E+00  0.00000000000E+00  0.15593178351E+03  0.15593178351E+03  0.00000000000E+00 0.  1.
         21   -1    0    0  501  503 -0.00000000000E+00 -0.00000000000E+00 -0.40720468729E+03  0.40720468729E+03  0.00000000000E+00 0.  1.
          6    2    1    2  501    0 -0.14313225256E+02 -0.15365828286E+03 -0.23806009970E+03  0.33183567332E+03  0.17212369596E+03 0.  0.
         24    2    3    3    0    0 -0.68498884574E+02 -0.76163886884E+02 -0.16704930773E+03  0.21348834695E+03  0.84727611891E+02 0.  0.
         -6    2    1    2    0  502  0.14313225256E+02  0.15365828286E+03 -0.13212804087E+02  0.23130079749E+03  0.17178400513E+03 0.  0.
        -24    2    5    5    0    0  0.67455985339E+02  0.85743586275E+02  0.23665496452E+02  0.13739308741E+03  0.80090774747E+02 0.  0.
          5    1    3    3  501    0  0.54185659319E+02 -0.77494395976E+02 -0.71010791964E+02  0.11834732637E+03  0.47000000000E+01 0. -1.
        -13    1    4    4    0    0 -0.33751499182E+02 -0.81048866558E+02 -0.76757916453E+02  0.11661843853E+03  0.00000000000E+00 0.  1.
         14    1    4    4    0    0 -0.34747385392E+02  0.48849796737E+01 -0.90291391279E+02  0.96869908419E+02  0.00000000000E+00 0. -1.
         -5    1    5    5    0  502 -0.53142760084E+02  0.67914696586E+02 -0.36878300539E+02  0.93907710079E+02  0.47000000000E+01 0.  1.
         11    1    6    6    0    0  0.72621605169E+02  0.40592267731E+02 -0.55257332350E+01  0.83379634591E+02  0.00000000000E+00 0. -1.
        -12    1    6    6    0    0 -0.51656198290E+01  0.45151318544E+02  0.29191229687E+02  0.54013452816E+02  0.00000000000E+00 0.  1.
</event>
<event>
12    1  0.1046899E+000  0.1954421E+03  0.7818608E-02  0.1153718E+00
         21   -1    0    0  503  502  0.00000000000E+00  0.00000000000E+00  0.99092657614E+03  0.99092657614E+03  0.00000000000E+00 0. -1.
         21   -1    0    0  501  503 -0.00000000000E+00 -0.00000000000E+00 -0.38514628239E+02  0.38514628239E+02  0.00000000000E+00 0. -1.
          6    2    1    2  501    0 -0.70379374379E+02  0.60435226043E+02  0.46017940526E+03  0.49982765727E+03  0.17163021024E+03 0.  0.
         24    2    3    3    0    0 -0.68473989389E+02 -0.68211198811E+01  0.38073120824E+03  0.39561080370E+03  0.82561735559E+02 0.  0.
         -6    2    1    2    0  502  0.70379374379E+02 -0.60435226043E+02  0.49223254264E+03  0.52961354710E+03  0.17202313901E+03 0.  0.
        -24    2    5    5    0    0  0.10883113146E+03 -0.52100104464E+02  0.29285987018E+03  0.32634140342E+03  0.78569535838E+02 0.  0.
          5    1    3    3  501    0 -0.19053849903E+01  0.67256345924E+02  0.79448197016E+02  0.10421685357E+03  0.47000000000E+01 0. -1.
        -13    1    4    4    0    0 -0.68195814255E+01 -0.64759208413E+01 -0.50801950476E+00  0.94181911947E+01  0.00000000000E+00 0.  1.
         14    1    4    4    0    0 -0.61654407963E+02 -0.34519903971E+00  0.38123922775E+03  0.38619261251E+03  0.00000000000E+00 0. -1.
         -5    1    5    5    0  502 -0.38451757082E+02 -0.83351215785E+01  0.19937267246E+03  0.20327214368E+03  0.47000000000E+01 0.  1.
         11    1    6    6    0    0  0.10502155903E+02  0.19575886330E+02  0.49517332421E+02  0.54272247183E+02  0.00000000000E+00 0. -1.
        -12    1    6    6    0    0  0.98328975558E+02 -0.71675990794E+02  0.24334253776E+03  0.27206915623E+03  0.00000000000E+00 0.  1.
</event>
<event>
12    1  0.1046899E+000  0.3268266E+03  0.7818608E-02  0.1072603E+00
         21   -1    0    0  501  502  0.00000000000E+00  0.00000000000E+00  0.20187374141E+03  0.20187374141E+03  0.00000000000E+00 0. -1.
         21   -1    0    0  502  503 -0.00000000000E+00 -0.00000000000E+00 -0.57189952406E+03  0.57189952406E+03  0.00000000000E+00 0. -1.
         -6    2    1    2    0  503  0.23641940414E+03 -0.14566867625E+03 -0.29189570599E+03  0.43819944216E+03  0.17234311717E+03 0.  0.
        -24    2    3    3    0    0  0.10622078142E+03 -0.14486297469E+03 -0.15107952998E+03  0.24635675676E+03  0.74823067171E+02 0.  0.
          6    2    1    2  501    0 -0.23641940414E+03  0.14566867625E+03 -0.78130076658E+02  0.33557382331E+03  0.17144090561E+03 0.  0.
         24    2    5    5    0    0 -0.64575185489E+02  0.10611164038E+03 -0.51907406365E+02  0.15723450345E+03  0.81232231504E+02 0.  0.
          5    1    5    5  501    0 -0.17184421865E+03  0.39557035875E+02 -0.26222670293E+02  0.17833931986E+03  0.47000000000E+01 0. -1.
        -11    1    6    6    0    0 -0.60680246096E+02  0.48084953302E+02  0.26842933328E+01  0.77469093392E+02  0.00000000000E+00 0.  1.
         12    1    6    6    0    0 -0.38949393930E+01  0.58026687075E+02 -0.54591699698E+02  0.79765410057E+02  0.00000000000E+00 0. -1.
         -5    1    3    3    0  503  0.13019862272E+03 -0.80570155638E+00 -0.14081617601E+03  0.19184268539E+03  0.47000000000E+01 0.  1.
         13    1    4    4    0    0  0.14300597511E+01  0.80995507104E+00 -0.29625053622E+02  0.29670606671E+02  0.00000000000E+00 0. -1.
        -14    1    4    4    0    0  0.10479072167E+03 -0.14567292977E+03 -0.12145447636E+03  0.21668615009E+03  0.00000000000E+00 0.  1.
</event>
<event>
12    1  0.1046899E+000  0.3610616E+03  0.7818608E-02  0.1058197E+00
         21   -1    0    0  503  502  0.00000000000E+00  0.00000000000E+00  0.11190079332E+03  0.11190079332E+03  0.00000000000E+00 0. -1.
         21   -1    0    0  501  503 -0.00000000000E+00 -0.00000000000E+00 -0.20010841088E+04  0.20010841088E+04  0.00000000000E+00 0. -1.
          6    2    1    2  501    0 -0.29813559604E+03 -0.10946629319E+03 -0.26150995423E+03  0.44581713389E+03  0.17174911276E+03 0.  0.
         24    2    3    3    0    0 -0.19458561842E+03 -0.13966503963E+03 -0.18025899243E+03  0.31069359433E+03  0.81653652773E+02 0.  0.
         -6    2    1    2    0  502  0.29813559604E+03  0.10946629319E+03 -0.16276733612E+04  0.16671677682E+04  0.17105581993E+03 0.  0.
        -24    2    5    5    0    0  0.28213538429E+03  0.13160147063E+03 -0.15740565656E+04  0.16068119596E+04  0.85271799251E+02 0.  0.
          5    1    3    3  501    0 -0.10354997762E+03  0.30198746434E+02 -0.81250961799E+02  0.13512353956E+03  0.47000000000E+01 0. -1.
        -13    1    4    4    0    0 -0.99804207451E+02 -0.76957551839E+02 -0.14408973233E+03  0.19142934877E+03  0.00000000000E+00 0.  1.
         14    1    4    4    0    0 -0.94781410970E+02 -0.62707487790E+02 -0.36169260106E+02  0.11926424555E+03  0.00000000000E+00 0. -1.
         -5    1    5    5    0  502  0.16000211749E+02 -0.22135177438E+02 -0.53616795617E+02  0.60355808573E+02  0.47000000000E+01 0.  1.
         11    1    6    6    0    0  0.94315525406E+02  0.45596789828E+02 -0.74885884677E+03  0.75615081694E+03  0.00000000000E+00 0. -1.
        -12    1    6    6    0    0  0.18781985888E+03  0.86004680805E+02 -0.82519771882E+03  0.85066114268E+03  0.00000000000E+00 0.  1.
</event>
<event>
12    1  0.1046899E+000  0.2157953E+03  0.7818608E-02  0.1137517E+00
         21   -1    0    0  501  502  0.00000000000E+00  0.00000000000E+00  0.33451451880E+03  0.33451451880E+03  0.00000000000E+00 0.  1.
         21   -1    0    0  502  503 -0.00000000000E+00 -0.00000000000E+00 -0.14464058045E+03  0.14464058045E+03  0.00000000000E+00 0.  1.
         -6    2    1    2    0  503 -0.64262839573E+02  0.11413218582E+03  0.42851366081E+02  0.22000874901E+03  0.17149851800E+03 0.  0.
        -24    2    3    3    0    0 -0.99247385494E+02  0.10837754749E+03  0.61638512746E+01  0.16877303824E+03  0.82768406086E+02 0.  0.
          6    2    1    2  501    0  0.64262839573E+02 -0.11413218582E+03  0.14702257227E+03  0.25914635025E+03  0.16847945186E+03 0.  0.
         24    2    5    5    0    0 -0.15512645653E+02 -0.15093734157E+02  0.83031648388E+02  0.11670453304E+03  0.79102657426E+02 0.  0.
          5    1    5    5  501    0  0.79775485226E+02 -0.99038451660E+02  0.63990923881E+02  0.14244181721E+03  0.47000000000E+01 0. -1.
        -13    1    6    6    0    0  0.14617818654E+02 -0.16709466784E+02  0.83628155728E+02  0.86524882738E+02  0.00000000000E+00 0.  1.
         14    1    6    6    0    0 -0.30130464307E+02  0.16157326264E+01 -0.59650733967E+00  0.30179650301E+02  0.00000000000E+00 0. -1.
         -5    1    3    3    0  503  0.34984545921E+02  0.57546383281E+01  0.36687514806E+02  0.51235710771E+02  0.47000000000E+01 0.  1.
         11    1    4    4    0    0 -0.41223753541E+02  0.60811789766E+02  0.43067267165E+02  0.85160208616E+02  0.00000000000E+00 0. -1.
        -12    1    4    4    0    0 -0.58023631953E+02  0.47565757723E+02 -0.36903415890E+02  0.83612829620E+02  0.00000000000E+00 0.  1.
</event>
<event>
12    1  0.1046899E+000  0.1892066E+03  0.7818608E-02  0.1159390E+00
         21   -1    0    0  501  502  0.00000000000E+00  0.00000000000E+00  0.80398207937E+02  0.80398207937E+02  0.00000000000E+00 0.  1.
         21   -1    0    0  502  503 -0.00000000000E+00 -0.00000000000E+00 -0.45582524435E+03  0.45582524435E+03  0.00000000000E+00 0.  1.
         -6    2    1    2    0  503 -0.14654344586E+02  0.74339404438E+02 -0.14335343085E+03  0.23738018653E+03  0.17337257556E+03 0.  0.
        -24    2    3    3    0    0 -0.36630712287E+02  0.45641019240E+02 -0.10487674401E+02  0.99605162360E+02  0.79914237371E+02 0.  0.
          6    2    1    2  501    0  0.14654344586E+02 -0.74339404438E+02 -0.23207360557E+03  0.29884326576E+03  0.17236021066E+03 0.  0.
         24    2    5    5    0    0 -0.56466901908E+02 -0.38035513658E+02 -0.10447870729E+03  0.14824860364E+03  0.80166307733E+02 0.  0.
          5    1    5    5  501    0  0.71121246494E+02 -0.36303890780E+02 -0.12759489828E+03  0.15059466211E+03  0.47000000000E+01 0. -1.
        -13    1    6    6    0    0 -0.43813833351E+02  0.18075607425E+02 -0.42045932136E+02  0.63358030161E+02  0.00000000000E+00 0.  1.
         14    1    6    6    0    0 -0.12653068557E+02 -0.56111121083E+02 -0.62432775151E+02  0.84890573482E+02  0.00000000000E+00 0. -1.
         -5    1    3    3    0  503  0.21976367701E+02  0.28698385199E+02 -0.13286575644E+03  0.13777502417E+03  0.47000000000E+01 0.  1.
         11    1    4    4    0    0 -0.37392301297E+02  0.60825756189E+02  0.12059090644E+02  0.72411176481E+02  0.00000000000E+00 0. -1.
        -12    1    4    4    0    0  0.76158900985E+00 -0.15184736949E+02 -0.22546765045E+02  0.27193985879E+02  0.00000000000E+00 0.  1.
</event>
<event>
12    1  0.1046899E+000  0.1931916E+03  0.7818608E-02  0.1155639E+00
         21   -1    0    0  503  502  0.00000000000E+00  0.00000000000E+00  0.14544809035E+03  0.14544809035E+03  0.00000000000E+00 0. -1.
         21   -1    0    0  501  503 -0.00000000000E+00 -0.00000000000E+00 -0.28335690171E+03  0.28335690171E+03  0.00000000000E+00 0. -1.
          6    2    1    2  501    0  0.28201586436E+02  0.82760276125E+02 -0.13499706130E+03  0.23559140890E+03  0.17214677635E+03 0.  0.
         24    2    3    3    0    0  0.19167294937E+02 -0.10551694582E+01 -0.12821525385E+03  0.15088762945E+03  0.77197323934E+02 0.  0.
         -6    2    1    2    0  502 -0.28201586436E+02 -0.82760276125E+02 -0.29117500575E+01  0.19321358315E+03  0.17227425125E+03 0.  0.
        -24    2    5    5    0    0 -0.55778716612E+02 -0.11254804056E+03 -0.11234326940E+02  0.15151029426E+03  0.83969235448E+02 0.  0.
          5    1    3    3  501    0  0.90342914990E+01  0.83815445583E+02 -0.67818074497E+01  0.84703779452E+02  0.47000000000E+01 0. -1.
        -13    1    4    4    0    0  0.32071178125E+02  0.21178440187E+02 -0.11642768139E+03  0.12260706256E+03  0.00000000000E+00 0.  1.
         14    1    4    4    0    0 -0.12903883189E+02 -0.22233609646E+02 -0.11787572465E+02  0.28280566894E+02  0.00000000000E+00 0. -1.
         -5    1    5    5    0  502  0.27577130176E+02  0.29787764440E+02  0.83225768826E+01  0.41703288900E+02  0.47000000000E+01 0.  1.
         11    1    6    6    0    0 -0.47950835323E+02 -0.11210048760E+02  0.69211203365E-01  0.49243807647E+02  0.00000000000E+00 0. -1.
        -12    1    6    6    0    0 -0.78278812881E+01 -0.10133799181E+03 -0.11303538143E+02  0.10226648661E+03  0.00000000000E+00 0.  1.
</event>
<event>
12    1  0.1046899E+000  0.2107775E+03  0.7818608E-02  0.1141410E+00
         21   -1    0    0  503  502  0.00000000000E+00  0.00000000000E+00  0.28556667973E+03  0.28556667973E+03  0.00000000000E+00 0.  1.
         21   -1    0    0  501  503 -0.00000000000E+00 -0.00000000000E+00 -0.17584122396E+03  0.17584122396E+03  0.00000000000E+00 0.  1.
          6    2    1    2  501    0  0.12137753836E+03  0.29955843230E+01  0.13614004509E+03  0.24898167547E+03  0.16945879292E+03 0.  0.
         24    2    3    3    0    0  0.78315186564E+02  0.42310305201E+02  0.23049165103E+02  0.12165669538E+03  0.79659633100E+02 0.  0.
         -6    2    1    2    0  502 -0.12137753836E+03 -0.29955843230E+01 -0.26414589317E+02  0.21242622821E+03  0.17229536140E+03 0.  0.
        -24    2    5    5    0    0 -0.64494847493E+02 -0.52609315505E+02  0.27511065877E+02  0.11954334965E+03  0.81279937678E+02 0.  0.
          5    1    3    3  501    0  0.43062351797E+02 -0.39314720878E+02  0.11309087998E+03  0.12732498009E+03  0.47000000000E+01 0. -1.
        -11    1    4    4    0    0  0.15594773248E+02  0.53511788955E+02  0.10353965686E+02  0.56691384842E+02  0.00000000000E+00 0.  1.
         12    1    4    4    0    0  0.62720413316E+02 -0.11201483754E+02  0.12695199418E+02  0.64965310537E+02  0.00000000000E+00 0. -1.
         -5    1    5    5    0  502 -0.56882690868E+02  0.49613731182E+02 -0.53925655194E+02  0.92882878564E+02  0.47000000000E+01 0.  1.
         13    1    6    6    0    0 -0.36999148587E+01 -0.36442500275E+02 -0.19041980802E+02  0.41283679937E+02  0.00000000000E+00 0. -1.
        -14    1    6    6    0    0 -0.60794932634E+02 -0.16166815231E+02  0.46553046679E+02  0.78259669714E+02  0.00000000000E+00 0.  1.
</event>
<event>
12    1  0.1046899E+000  0.6158599E+03  0.7818608E-02  0.9873185E-01
         21   -1    0    0  503  502  0.00000000000E+00  0.00000000000E+00  0.59823040582E+03  0.59823040582E+03  0.00000000000E+00 0.  1.
         21   -1    0    0  501  503 -0.00000000000E+00 -0.00000000000E+00 -0.69012424842E+03  0.69012424842E+03  0.00000000000E+00 0.  1.
          6    2    1    2  501    0  0.17000149976E+03 -0.56620800722E+03  0.13822763458E+03  0.63118166309E+03  0.17260184097E+03 0.  0.
         24    2    3    3    0    0  0.16596877607E+03 -0.52964735658E+03  0.16493782789E+03  0.58548189874E+03  0.86675312059E+02 0.  0.
         -6    2    1    2    0  502 -0.17000149976E+03  0.56620800722E+03 -0.23012147718E+03  0.65717299115E+03  0.17154716169E+03 0.  0.
        -24    2    5    5    0    0 -0.15491664462E+03  0.35531287023E+03 -0.98180496551E+02  0.40790441305E+03  0.80623803889E+02 0.  0.
          5    1    3    3  501    0  0.40327236924E+01 -0.36560650637E+02 -0.26710193311E+02  0.45699764354E+02  0.47000000000E+01 0. -1.
        -13    1    4    4    0    0  0.91791310322E+01 -0.14972968165E+03  0.57678359321E+02  0.16071722729E+03  0.00000000000E+00 0.  1.
         14    1    4    4    0    0  0.15678964503E+03 -0.37991767493E+03  0.10725946857E+03  0.42476467145E+03  0.00000000000E+00 0. -1.
         -5    1    5    5    0  502 -0.15084855143E+02  0.21089513699E+03 -0.13194098063E+03  0.24926857810E+03  0.47000000000E+01 0.  1.
         11    1    6    6    0    0 -0.81278406242E+02  0.27163325918E+03 -0.57910435257E+02  0.28938629083E+03  0.00000000000E+00 0. -1.
        -12    1    6    6    0    0 -0.73638238374E+02  0.83679611054E+02 -0.40270061295E+02  0.11851812222E+03  0.00000000000E+00 0.  1.
</event>
<event>
12    1  0.1046899E+000  0.4378839E+03  0.7818608E-02  0.1031675E+00
         21   -1    0    0  501  502  0.00000000000E+00  0.00000000000E+00  0.28434332699E+03  0.28434332699E+03  0.00000000000E+00 0. -1.
         21   -1    0    0  502  503 -0.00000000000E+00 -0.00000000000E+00 -0.66913016104E+03  0.66913016104E+03  0.00000000000E+00 0. -1.
         -6    2    1    2    0  503 -0.30561878550E+03  0.25662183649E+03 -0.18179588556E+03  0.47082699442E+03  0.17137883665E+03 0.  0.
        -24    2    3    3    0    0 -0.94873153461E+02  0.12447662589E+03 -0.38316179615E+02  0.18362568153E+03  0.88061998928E+02 0.  0.
          6    2    1    2  501    0  0.30561878550E+03 -0.25662183649E+03 -0.20299094849E+03  0.48264649361E+03  0.18023513425E+03 0.  0.
         24    2    5    5    0    0  0.31366333503E+03 -0.26941475787E+03 -0.20111007124E+03  0.46670907494E+03  0.80019375037E+02 0.  0.
          5    1    5    5  501    0 -0.80445495292E+01  0.12792921384E+02 -0.18808772519E+01  0.15937418671E+02  0.47000000000E+01 0. -1.
        -11    1    6    6    0    0  0.13435782637E+03 -0.74658319726E+02 -0.99766787950E+02  0.18324656119E+03  0.00000000000E+00 0.  1.
         12    1    6    6    0    0  0.17930550866E+03 -0.19475643814E+03 -0.10134328329E+03  0.28346251375E+03  0.00000000000E+00 0. -1.
         -5    1    3    3    0  503 -0.21074563204E+03  0.13214521060E+03 -0.14347970595E+03  0.28720131289E+03  0.47000000000E+01 0.  1.
         11    1    4    4    0    0 -0.87759303115E+02  0.48627553565E+02 -0.49384170663E+01  0.10045258689E+03  0.00000000000E+00 0. -1.
        -12    1    4    4    0    0 -0.71138503454E+01  0.75849072324E+02 -0.33377762549E+02  0.83173094640E+02  0.00000000000E+00 0.  1.
</event>
<event>
12    1  0.1046899E+000  0.3133607E+03  0.7818608E-02  0.1078790E+00
         21   -1    0    0  503  502  0.00000000000E+00  0.00000000000E+00  0.34804637838E+04  0.34804637838E+04  0.00000000000E+00 0. -1.
         21   -1    0    0  501  503 -0.00000000000E+00 -0.00000000000E+00 -0.39397231808E+02  0.39397231808E+02  0.00000000000E+00 0. -1.
          6    2    1    2  501    0  0.91780017685E+02 -0.24502487789E+03  0.26603532002E+04  0.26787448755E+04  0.17243606195E+03 0.  0.
         24    2    3    3    0    0 -0.60838254832E+00 -0.15099244639E+03  0.11766767184E+04  0.11892161891E+04  0.82873131295E+02 0.  0.
         -6    2    1    2    0  502 -0.91780017685E+02  0.24502487789E+03  0.78071335181E+03  0.84111614018E+03  0.17176222271E+03 0.  0.
        -24    2    5    5    0    0 -0.52445889282E+02  0.25346123023E+03  0.63713156492E+03  0.69193113683E+03  0.76412699006E+02 0.  0.
          5    1    3    3  501    0  0.92388400233E+02 -0.94032431499E+02  0.14836764819E+04  0.14895286864E+04  0.47000000000E+01 0. -1.
        -11    1    4    4    0    0  0.36387907968E+02 -0.69037139885E+02  0.68022697525E+03  0.68468893987E+03  0.00000000000E+00 0.  1.
         12    1    4    4    0    0 -0.36996290516E+02 -0.81955306507E+02  0.49644974314E+03  0.50452724925E+03  0.00000000000E+00 0. -1.
         -5    1    5    5    0  502 -0.39334128403E+02 -0.84363523382E+01  0.14358178688E+03  0.14918500334E+03  0.47000000000E+01 0.  1.
         11    1    6    6    0    0 -0.92745950512E+01  0.95872219435E+02  0.33344804732E+03  0.34708082753E+03  0.00000000000E+00 0. -1.
        -12    1    6    6    0    0 -0.43171294231E+02  0.15758901080E+03  0.30368351760E+03  0.34485030931E+03  0.00000000000E+00 0.  1.
</event>
<event>
12    1  0.2487101E+000  0.4039817E+03  0.7818608E-02  0.1042473E+00
         21   -1    0    0  501  502  0.00000000000E+00  0.00000000000E+00  0.45504221306E+03  0.45504221306E+03  0.00000000000E+00 0. -1.
         21   -1    0    0  502  503 -0.00000000000E+00 -0.00000000000E+00 -0.11264324835E+04  0.11264324835E+04  0.00000000000E+00 0. -1.
         -6    2    1    2    0  503 -0.24043783856E+03  0.27572281713E+03  0.31750911686E+03  0.51324099939E+03  0.16961974550E+03 0.  0.
        -24    2    3    3    0    0 -0.10620434087E+03  0.73895805003E+02  0.17720258686E+03  0.23313247205E+03  0.78803811563E+02 0.  0.
          6    2    1    2  501    0  0.24043783856E+03 -0.27572281713E+03 -0.98889938732E+03  0.10682336972E+04  0.17137038097E+03 0.  0.
         24    2    5    5    0    0  0.12001519073E+03 -0.23750136559E+03 -0.68088514382E+03  0.73528121159E+03  0.78888125726E+02 0.  0.
          5    1    5    5  501    0  0.12042264783E+03 -0.38221451545E+02 -0.30801424350E+03  0.33295248560E+03  0.47000000000E+01 0. -1.
        -13    1    6    6    0    0  0.89457632047E+02 -0.90117497668E+02 -0.30449862310E+03  0.32991399301E+03  0.00000000000E+00 0.  1.
         14    1    6    6    0    0  0.30557558685E+02 -0.14738386792E+03 -0.37638652072E+03  0.40536721858E+03  0.00000000000E+00 0. -1.
         -5    1    3    3    0  503 -0.13423349770E+03  0.20182701213E+03  0.14030653001E+03  0.28010852734E+03  0.47000000000E+01 0.  1.
         13    1    4    4    0    0 -0.86960316695E+01 -0.16252363367E+02  0.17314713838E+02  0.25289515557E+02  0.00000000000E+00 0. -1.
        -14    1    4    4    0    0 -0.97508309199E+02  0.90148168370E+02  0.15988787302E+03  0.20784295649E+03  0.00000000000E+00 0.  1.
</event>
<event>
12    1  0.1046899E+000  0.3122126E+03  0.7818608E-02  0.1079485E+00
         21   -1    0    0  501  502  0.00000000000E+00  0.00000000000E+00  0.11292646140E+03  0.11292646140E+03  0.00000000000E+00 0.  1.
         21   -1    0    0  502  503 -0.00000000000E+00 -0.00000000000E+00 -0.10440811000E+04  0.10440811000E+04  0.00000000000E+00 0.  1.
         -6    2    1    2    0  503  0.55542474492E+02 -0.25450302510E+03 -0.22079294735E+03  0.38106268924E+03  0.16912271068E+03 0.  0.
        -24    2    3    3    0    0 -0.26164765000E+02 -0.17453174966E+03 -0.11386122685E+03  0.22444863900E+03  0.79163665930E+02 0.  0.
          6    2    1    2  501    0 -0.55542474492E+02  0.25450302510E+03 -0.71036169130E+03  0.77594487220E+03  0.17210449146E+03 0.  0.
         24    2    5    5    0    0 -0.90651474292E+02  0.19269833991E+03 -0.42761398494E+03  0.48436157977E+03  0.80012997964E+02 0.  0.
          5    1    5    5  501    0  0.35108999800E+02  0.61804685186E+02 -0.28274770635E+03  0.29158329243E+03  0.47000000000E+01 0. -1.
        -13    1    6    6    0    0 -0.76697051293E+02  0.17676461267E+03 -0.41957872949E+03  0.46170821545E+03  0.00000000000E+00 0.  1.
         14    1    6    6    0    0 -0.13954422999E+02  0.15933727242E+02 -0.80352554528E+01  0.22653364325E+02  0.00000000000E+00 0. -1.
         -5    1    3    3    0  503  0.81707239491E+02 -0.79971275444E+02 -0.10693172051E+03  0.15661405024E+03  0.47000000000E+01 0.  1.
         13    1    4    4    0    0 -0.67579607156E+01 -0.10856030998E+03 -0.11131578143E+03  0.15563487441E+03  0.00000000000E+00 0. -1.
        -14    1    4    4    0    0 -0.19406804284E+02 -0.65971439671E+02 -0.25454454203E+01  0.68813764591E+02  0.00000000000E+00 0.  1.
</event>
<event>
12    1  0.1046899E+000  0.2142247E+03  0.7818608E-02  0.1138637E+00
         21   -1    0    0  503  502  0.00000000000E+00  0.00000000000E+00  0.27268145227E+02  0.27268145227E+02  0.00000000000E+00 0.  1.
         21   -1    0    0  501  503 -0.00000000000E+00 -0.00000000000E+00 -0.22701266299E+04  0.22701266299E+04  0.00000000000E+00 0.  1.
          6    2    1    2  501    0 -0.64349127710E+02 -0.11036764811E+03 -0.53351329247E+03  0.57491622295E+03  0.17196046691E+03 0.  0.
         24    2    3    3    0    0 -0.95507179651E+02 -0.58460372669E+02 -0.45440175711E+03  0.47518701724E+03  0.82355983084E+02 0.  0.
         -6    2    1    2    0  502  0.64349127710E+02  0.11036764811E+03 -0.17093451922E+04  0.17224785522E+04  0.16955691857E+03 0.  0.
        -24    2    5    5    0    0  0.91771585143E+02  0.20995146749E+02 -0.73932715048E+03  0.74795480879E+03  0.62999527978E+02 0.  0.
          5    1    3    3  501    0  0.31158051941E+02 -0.51907275436E+02 -0.79111535357E+02  0.99729205705E+02  0.47000000000E+01 0. -1.
        -13    1    4    4    0    0 -0.85530349107E+01  0.14388085631E+02 -0.13903862492E+03  0.14004253152E+03  0.00000000000E+00 0.  1.
         14    1    4    4    0    0 -0.86954144740E+02 -0.72848458301E+02 -0.31536313220E+03  0.33514448573E+03  0.00000000000E+00 0. -1.
         -5    1    5    5    0  502 -0.27422457433E+02  0.89372501356E+02 -0.97001804170E+03  0.97452374337E+03  0.47000000000E+01 0.  1.
         13    1    6    6    0    0  0.35217206248E+02  0.40789514531E+01 -0.50727006041E+03  0.50850742733E+03  0.00000000000E+00 0. -1.
        -14    1    6    6    0    0  0.56554378895E+02  0.16916195296E+02 -0.23205709006E+03  0.23944738145E+03  0.00000000000E+00 0.  1.
</event>
<event>
12    1  0.1046899E+000  0.2081591E+03  0.7818608E-02  0.1143278E+00
         21   -1    0    0  503  502  0.00000000000E+00  0.00000000000E+00  0.19806902472E+02  0.19806902472E+02  0.00000000000E+00 0. -1.
         21   -1    0    0  501  503 -0.00000000000E+00 -0.00000000000E+00 -0.25264685777E+04  0.25264685777E+04  0.00000000000E+00 0. -1.
          6    2    1    2  501    0  0.10524294591E+03 -0.46295283888E+02 -0.17315031885E+04  0.17439706103E+04  0.17352483067E+03 0.  0.
         24    2    3    3    0    0  0.27480007337E+02 -0.30170359859E+02 -0.14131068183E+04  0.14157855614E+04  0.76892616262E+02 0.  0.
         -6    2    1    2    0  502 -0.10524294591E+03  0.46295283888E+02 -0.77515848677E+03  0.80230486990E+03  0.17205549596E+03 0.  0.
        -24    2    5    5    0    0 -0.12518291104E+03  0.28886913419E+02 -0.75092966365E+03  0.76611399479E+03  0.80808899783E+02 0.  0.
          5    1    3    3  501    0  0.77762938573E+02 -0.16124924029E+02 -0.31839637015E+03  0.32818504889E+03  0.47000000000E+01 0. -1.
        -11    1    4    4    0    0  0.63845622330E+01 -0.21739593868E+02 -0.10218176869E+03  0.10466368247E+03  0.00000000000E+00 0.  1.
         12    1    4    4    0    0  0.21095445104E+02 -0.84307659917E+01 -0.13109250497E+04  0.13111218789E+04  0.00000000000E+00 0. -1.
         -5    1    5    5    0  502  0.19939965128E+02  0.17408370469E+02 -0.24228823119E+02  0.36190875113E+02  0.47000000000E+01 0.  1.
         13    1    6    6    0    0 -0.51379666134E+02 -0.77128142853E+01 -0.13419192932E+03  0.14389868481E+03  0.00000000000E+00 0. -1.
        -14    1    6    6    0    0 -0.73803244905E+02  0.36599727705E+02 -0.61673773433E+03  0.62221530998E+03  0.00000000000E+00 0.  1.
</event>
<event>
12    1  0.1046899E+000  0.1999329E+03  0.7818608E-02  0.1150049E+00
         21   -1    0    0  503  502  0.00000000000E+00  0.00000000000E+00  0.24688927478E+03  0.24688927478E+03  0.00000000000E+00 0.  1.
         21   -1    0    0  501  503 -0.00000000000E+00 -0.00000000000E+00 -0.16138585554E+03  0.16138585554E+03  0.00000000000E+00 0.  1.
          6    2    1    2  501    0  0.24661659543E+02  0.98622464774E+02  0.53602388081E+02  0.20699368806E+03  0.17215859804E+03 0.  0.
         24    2    3    3    0    0  0.70148873542E+02  0.19039491238E+02  0.18460916236E+02  0.10871068160E+03  0.78700954127E+02 0.  0.
         -6    2    1    2    0  502 -0.24661659543E+02 -0.98622464774E+02  0.31901031158E+02  0.20128144226E+03  0.17076871844E+03 0.  0.
        -24    2    5    5    0    0  0.60465240960E+00 -0.11669965499E+03  0.64586488520E+02  0.15594271214E+03  0.80793192112E+02 0.  0.
          5    1    3    3  501    0 -0.45487213999E+02  0.79582973536E+02  0.35141471846E+02  0.98283006454E+02  0.47000000000E+01 0. -1.
        -13    1    4    4    0    0  0.21970626500E+02 -0.96539263678E+01  0.41618462133E+02  0.48041681002E+02  0.00000000000E+00 0.  1.
         14    1    4    4    0    0  0.48178247042E+02  0.28693417606E+02 -0.23157545898E+02  0.60669000601E+02  0.00000000000E+00 0. -1.
         -5    1    5    5    0  502 -0.25266311952E+02  0.18077190213E+02 -0.32685457361E+02  0.45338730116E+02  0.47000000000E+01 0.  1.
         11    1    6    6    0    0  0.20454199739E+01 -0.20358561399E+02  0.55513975431E+02  0.59164653580E+02  0.00000000000E+00 0. -1.
        -12    1    6    6    0    0 -0.14407675643E+01 -0.96341093587E+02  0.90725130889E+01  0.96778058559E+02  0.00000000000E+00 0.  1.
</event>
<event>
12    1  0.1046899E+000  0.2257398E+03  0.7818608E-02  0.1130364E+00
         21   -1    0    0  501  502  0.00000000000E+00  0.00000000000E+00  0.26394096146E+03  0.26394096146E+03  0.00000000000E+00 0. -1.
         21   -1    0    0  502  503 -0.00000000000E+00 -0.00000000000E+00 -0.20782125916E+03  0.20782125916E+03  0.00000000000E+00 0. -1.
         -6    2    1    2    0  503 -0.67176572195E+02  0.12541994202E+03 -0.41534804537E+02  0.22580520038E+03  0.17035256037E+03 0.  0.
        -24    2    3    3    0    0 -0.70506607405E+02  0.14179925423E+03  0.33725207913E+01  0.17765824958E+03  0.80454145704E+02 0.  0.
          6    2    1    2  501    0  0.67176572195E+02 -0.12541994202E+03  0.97654506840E+02  0.24595702023E+03  0.17525866423E+03 0.  0.
         24    2    5    5    0    0 -0.11125140944E+02 -0.81403904253E+02  0.10669256990E+03  0.15555598902E+03  0.77871669176E+02 0.  0.
          5    1    5    5  501    0  0.78301713140E+02 -0.44016037762E+02 -0.90380630553E+01  0.90401031215E+02  0.47000000000E+01 0. -1.
        -13    1    6    6    0    0 -0.42981112889E+02 -0.50309097319E+02  0.47320838399E+02  0.81348897258E+02  0.00000000000E+00 0.  1.
         14    1    6    6    0    0  0.31855971945E+02 -0.31094806934E+02  0.59371731496E+02  0.74207091761E+02  0.00000000000E+00 0. -1.
         -5    1    3    3    0  503  0.33300352093E+01 -0.16379312212E+02 -0.44907325328E+02  0.48146950798E+02  0.47000000000E+01 0.  1.
         13    1    4    4    0    0 -0.14918359757E+02  0.63780564126E+02 -0.35231507887E+02  0.74375916573E+02  0.00000000000E+00 0. -1.
        -14    1    4    4    0    0 -0.55588247648E+02  0.78018690101E+02  0.38604028678E+02  0.10328233301E+03  0.00000000000E+00 0.  1.
</event>
<event>
12    1  0.1046899E+000  0.1718839E+03  0.7818608E-02  0.1176095E+00
         21   -1    0    0  501  502  0.00000000000E+00  0.00000000000E+00  0.20281569826E+03  0.20281569826E+03  0.00000000000E+00 0.  1.
         21   -1    0    0  502  503 -0.00000000000E+00 -0.00000000000E+00 -0.14648581517E+03  0.14648581517E+03  0.00000000000E+00 0.  1.
         -6    2    1    2    0  503  0.21348594848E+01  0.18785144542E+00  0.45697171418E+02  0.17785472121E+03  0.17187052530E+03 0.  0.
        -24    2    3    3    0    0 -0.50007835648E+02  0.95139677750E+01 -0.15548381018E+02  0.96744026507E+02  0.80785860789E+02 0.  0.
          6    2    1    2  501    0 -0.21348594848E+01 -0.18785144542E+00  0.10632711670E+02  0.17144679222E+03  0.17110334623E+03 0.  0.
         24    2    5    5    0    0  0.14487916812E+02  0.13583226347E+02 -0.55927122282E+02  0.10131647944E+03  0.82114445911E+02 0.  0.
          5    1    5    5  501    0 -0.16622776297E+02 -0.13771077793E+02  0.66559833953E+02  0.70130312784E+02  0.47000000000E+01 0. -1.
        -13    1    6    6    0    0  0.93069172922E+01  0.27441844047E+02  0.12317528298E+02  0.31486425926E+02  0.00000000000E+00 0.  1.
         14    1    6    6    0    0  0.51809995198E+01 -0.13858617700E+02 -0.68244650581E+02  0.69830053512E+02  0.00000000000E+00 0. -1.
         -5    1    3    3    0  503  0.52142695133E+02 -0.93261163296E+01  0.61245552436E+02  0.81110694700E+02  0.47000000000E+01 0.  1.
         11    1    4    4    0    0 -0.41996658938E+02  0.41401106443E+02  0.28997277418E+01  0.59043876885E+02  0.00000000000E+00 0. -1.
        -12    1    4    4    0    0 -0.80111767100E+01 -0.31887138668E+02 -0.18448108760E+02  0.37700149622E+02  0.00000000000E+00 0.  1.
</event>
<event>
12    1  0.1046899E+000  0.1742884E+03  0.7818608E-02  0.1173528E+00
         21   -1    0    0  503  502  0.00000000000E+00  0.00000000000E+00  0.49181095630E+03  0.49181095630E+03  0.00000000000E+00 0.  1.
         21   -1    0    0  501  503 -0.00000000000E+00 -0.00000000000E+00 -0.63515017187E+02  0.63515017187E+02  0.00000000000E+00 0.  1.
          6    2    1    2  501    0 -0.23624067604E+02  0.49938006837E+01  0.16640998749E+03  0.24074578574E+03  0.17228817371E+03 0.  0.
         24    2    3    3    0    0  0.33107987299E+02  0.37668129639E+02  0.14285960916E+03  0.17101166106E+03  0.79505304688E+02 0.  0.
         -6    2    1    2    0  502  0.23624067604E+02 -0.49938006837E+01  0.26188595162E+03  0.31458018775E+03  0.17260767147E+03 0.  0.
        -24    2    5    5    0    0  0.53362522415E+02 -0.59062805638E+02  0.16926154367E+03  0.20318358125E+03  0.79360718965E+02 0.  0.
          5    1    3    3  501    0 -0.56732054903E+02 -0.32674328955E+02  0.23550378331E+02  0.69734124686E+02  0.47000000000E+01 0. -1.
        -13    1    4    4    0    0  0.14684545118E+02 -0.20218818777E+02  0.79067059832E+02  0.82921869543E+02  0.00000000000E+00 0.  1.
         14    1    4    4    0    0  0.18423442181E+02  0.57886948416E+02  0.63792549330E+02  0.88089791513E+02  0.00000000000E+00 0. -1.
         -5    1    5    5    0  502 -0.29738454812E+02  0.54069004954E+02  0.92624407949E+02  0.11139660650E+03  0.47000000000E+01 0.  1.
         11    1    6    6    0    0  0.25384600087E+01 -0.22971700794E+02  0.12403542083E+03  0.12617023594E+03  0.00000000000E+00 0. -1.
        -12    1    6    6    0    0  0.50824062407E+02 -0.36091104843E+02  0.45226122841E+02  0.77013345308E+02  0.00000000000E+00 0.  1.
</event>
<event>
12    1  0.1046899E+000  0.1847192E+03  0.7818608E-02  0.1163513E+00
         21   -1    0    0  501  502  0.00000000000E+00  0.00000000000E+00  0.11899753017E+04  0.11899753017E+04  0.00000000000E+00 0. -1.
         21   -1    0    0  502  503 -0.00000000000E+00 -0.00000000000E+00 -0.81107055510E+02  0.81107055510E+02  0.00000000000E+00 0. -1.
         -6    2    1    2    0  503  0.63692772257E+02  0.22948604911E+02  0.10665299366E+04  0.10824081031E+04  0.17186561116E+03 0.  0.
        -24    2    3    3    0    0  0.40804503524E+02 -0.33277106397E+02  0.90288785929E+03  0.90780563198E+03  0.78308401087E+02 0.  0.
          6    2    1    2  501    0 -0.63692772257E+02 -0.22948604911E+02  0.42338309574E+02  0.18867425409E+03  0.17094453485E+03 0.  0.
         24    2    5    5    0    0 -0.10141564911E+03 -0.45594791852E+02  0.47909889624E+02  0.14407607335E+03  0.78093139650E+02 0.  0.
          5    1    5    5  501    0  0.37722876851E+02  0.22646186941E+02 -0.55715800503E+01  0.44598180738E+02  0.47000000000E+01 0. -1.
        -11    1    6    6    0    0 -0.67349347839E+02  0.84521731401E+01  0.70564932226E+01  0.68243446438E+02  0.00000000000E+00 0.  1.
         12    1    6    6    0    0 -0.34066301269E+02 -0.54046964992E+02  0.40853396401E+02  0.75832626913E+02  0.00000000000E+00 0. -1.
         -5    1    3    3    0  503  0.22888268733E+02  0.56225711308E+02  0.16364207733E+03  0.17460247115E+03  0.47000000000E+01 0.  1.
         13    1    4    4    0    0 -0.97841882271E+01 -0.85341729625E+00  0.15266692135E+02  0.18152976315E+02  0.00000000000E+00 0. -1.
        -14    1    4    4    0    0  0.50588691751E+02 -0.32423689101E+02  0.88762116716E+03  0.88965265567E+03  0.00000000000E+00 0.  1.
</event>
<event>
12    1  0.1046899E+000  0.1811782E+03  0.7818608E-02  0.1167370E+00
         21   -1    0    0  501  502  0.00000000000E+00  0.00000000000E+00  0.34564265352E+02  0.34564265352E+02  0.00000000000E+00 0.  1.
         21   -1    0    0  502  503 -0.00000000000E+00 -0.00000000000E+00 -0.93802600597E+03  0.93802600597E+03  0.00000000000E+00 0.  1.
         -6    2    1    2    0  503  0.44281603138E+02 -0.16484371888E+02 -0.41843698446E+03  0.45483112212E+03  0.17189893772E+03 0.  0.
        -24    2    3    3    0    0  0.62207199580E+02 -0.58039213433E+02 -0.37104771811E+03  0.38913512202E+03  0.80693544340E+02 0.  0.
          6    2    1    2  501    0 -0.44281603138E+02  0.16484371888E+02 -0.48502475616E+03  0.51775914921E+03  0.17490834058E+03 0.  0.
         24    2    5    5    0    0 -0.45788198894E+02 -0.49185723570E+02 -0.20387509728E+03  0.22899964381E+03  0.79749526729E+02 0.  0.
          5    1    5    5  501    0  0.15065957555E+01  0.65670095458E+02 -0.28114965888E+03  0.28875950539E+03  0.47000000000E+01 0. -1.
        -13    1    6    6    0    0 -0.34046187109E+02 -0.33899602897E+02 -0.36036750259E+02  0.60058082741E+02  0.00000000000E+00 0.  1.
         14    1    6    6    0    0 -0.11742011784E+02 -0.15286120673E+02 -0.16783834702E+03  0.16894156107E+03  0.00000000000E+00 0. -1.
         -5    1    3    3    0  503 -0.17925596442E+02  0.41554841545E+02 -0.47389266348E+02  0.65696000096E+02  0.47000000000E+01 0.  1.
         11    1    4    4    0    0  0.30635728423E+02 -0.54248273374E+02 -0.11215723228E+03  0.12829913396E+03  0.00000000000E+00 0. -1.
        -12    1    4    4    0    0  0.31571471156E+02 -0.37909400591E+01 -0.25889048583E+03  0.26083598807E+03  0.00000000000E+00 0.  1.
</event>
<event>
12    1  0.1046899E+000  0.1755783E+03  0.7818608E-02  0.1172670E+00
         21   -1    0    0  501  502  0.00000000000E+00  0.00000000000E+00  0.98788442140E+02  0.98788442140E+02  0.00000000000E+00 0. -1.
         21   -1    0    0  502  503 -0.00000000000E+00 -0.00000000000E+00 -0.34832803291E+03  0.34832803291E+03  0.00000000000E+00 0. -1.
         -6    2    1    2    0  503 -0.37821005526E+00 -0.19848401444E+02 -0.49742913254E+02  0.18248863541E+03  0.17445240770E+03 0.  0.
        -24    2    3    3    0    0  0.44458600194E+02  0.22027286235E+02 -0.70249908684E+02  0.11763079368E+03  0.80250766240E+02 0.  0.
          6    2    1    2  501    0  0.37821005526E+00  0.19848401444E+02 -0.19979667752E+03  0.26462783964E+03  0.17238062271E+03 0.  0.
         24    2    5    5    0    0  0.64930235238E+02  0.14973679467E+01 -0.14643311234E+03  0.17875884364E+03  0.79334042078E+02 0.  0.
          5    1    5    5  501    0 -0.64552025183E+02  0.18351033497E+02 -0.53363565181E+02  0.85868996002E+02  0.47000000000E+01 0. -1.
        -11    1    6    6    0    0 -0.14638745263E+02 -0.15331967247E+02 -0.30588250618E+02  0.37215630566E+02  0.00000000000E+00 0.  1.
         12    1    6    6    0    0  0.79568980501E+02  0.16829335194E+02 -0.11584486172E+03  0.14154321307E+03  0.00000000000E+00 0. -1.
         -5    1    3    3    0  503 -0.44836810250E+02 -0.41875687679E+02  0.20506995429E+02  0.64857841727E+02  0.47000000000E+01 0.  1.
         11    1    4    4    0    0  0.54740026637E+02  0.35706554461E+02 -0.26268531779E+02  0.70437662579E+02  0.00000000000E+00 0. -1.
        -12    1    4    4    0    0 -0.10281426443E+02 -0.13679268226E+02 -0.43981376905E+02  0.47193131104E+02  0.00000000000E+00 0.  1.
</event>
<event>
12    1  0.1046899E+000  0.2075523E+03  0.7818608E-02  0.1143526E+00
         21   -1    0    0  501  502  0.00000000000E+00  0.00000000000E+00  0.58087434204E+03  0.58087434204E+03  0.00000000000E+00 0.  1.
         21   -1    0    0  502  503 -0.00000000000E+00 -0.00000000000E+00 -0.92785882988E+02  0.92785882988E+02  0.00000000000E+00 0. -1.
         -6    2    1    2    0  503  0.76594307682E+02 -0.86584399932E+02  0.39498991143E+03  0.44618432245E+03  0.17233651149E+03 0.  0.
        -24    2    3    3    0    0  0.84309180811E+02 -0.11799237105E+03  0.36685473212E+03  0.40306056761E+03  0.82735657906E+02 0.  0.
          6    2    1    2  501    0 -0.76594307682E+02  0.86584399932E+02  0.93098547631E+02  0.22747590258E+03  0.17237865414E+03 0.  0.
         24    2    5    5    0    0 -0.88320297264E+02  0.39304035823E+02  0.11861610646E+03  0.17228380649E+03  0.79162157167E+02 0.  0.
          5    1    5    5  501    0  0.11725989582E+02  0.47280364109E+02 -0.25517558830E+02  0.55192096088E+02  0.47000000000E+01 0. -1.
        -13    1    6    6    0    0  0.52549979832E+01  0.56547465727E+01  0.52049327980E+02  0.52618663094E+02  0.00000000000E+00 0.  1.
         14    1    6    6    0    0 -0.93575295247E+02  0.33649289251E+02  0.66566778480E+02  0.11966514340E+03  0.00000000000E+00 0. -1.
         -5    1    3    3    0  503 -0.77148731290E+01  0.31407971115E+02  0.28135179310E+02  0.43123754843E+02  0.47000000000E+01 0.  1.
         13    1    4    4    0    0  0.43902979436E+02 -0.52547327320E+02  0.76399042612E+02  0.10259389321E+03  0.00000000000E+00 0. -1.
        -14    1    4    4    0    0  0.40406201375E+02 -0.65445043727E+02  0.29045568951E+03  0.30046667440E+03  0.00000000000E+00 0.  1.
</event>
<event>
12    1  0.1046899E+000  0.2794674E+03  0.7818608E-02  0.1096218E+00
         21   -1    0    0  503  502  0.00000000000E+00  0.00000000000E+00  0.46337661303E+02  0.46337661303E+02  0.00000000000E+00 0.  1.
         21   -1    0    0  501  503 -0.00000000000E+00 -0.00000000000E+00 -0.17467680345E+04  0.17467680345E+04  0.00000000000E+00 0.  1.
          6    2    1    2  501    0  0.90242877640E+02 -0.19854225537E+03 -0.67111463997E+03  0.72697791610E+03  0.17475476067E+03 0.  0.
         24    2    3    3    0    0 -0.14668646883E+02 -0.13006597565E+03 -0.34685226412E+03  0.37932347954E+03  0.80296212770E+02 0.  0.
         -6    2    1    2    0  502 -0.90242877640E+02  0.19854225537E+03 -0.10293157332E+04  0.10661277797E+04  0.17197313703E+03 0.  0.
        -24    2    5    5    0    0 -0.78703388719E+01  0.17437092750E+03 -0.71506841545E+03  0.74033190041E+03  0.79380862965E+02 0.  0.
          5    1    3    3  501    0  0.10491152452E+03 -0.68476279722E+02 -0.32426237585E+03  0.34765443656E+03  0.47000000000E+01 0. -1.
        -13    1    4    4    0    0 -0.48313586127E+01 -0.11579713006E+02 -0.14135339396E+03  0.14190917435E+03  0.00000000000E+00 0.  1.
         14    1    4    4    0    0 -0.98372882705E+01 -0.11848626264E+03 -0.20549887015E+03  0.23741430519E+03  0.00000000000E+00 0. -1.
         -5    1    5    5    0  502 -0.82372538768E+02  0.24171327872E+02 -0.31424731775E+03  0.32579587927E+03  0.47000000000E+01 0.  1.
         11    1    6    6    0    0  0.12314666543E+01  0.10096152629E+03 -0.25340429856E+03  0.27277918695E+03  0.00000000000E+00 0. -1.
        -12    1    6    6    0    0 -0.91018055262E+01  0.73409401211E+02 -0.46166411689E+03  0.46755271347E+03  0.00000000000E+00 0.  1.
</event>
<event>
12    1  0.1046899E+000  0.2658510E+03  0.7818608E-02  0.1103715E+00
         21   -1    0    0  501  502  0.00000000000E+00  0.00000000000E+00  0.62724975928E+02  0.62724975928E+02  0.00000000000E+00 0. -1.
         21   -1    0    0  502  503 -0.00000000000E+00 -0.00000000000E+00 -0.13556241501E+04  0.13556241501E+04  0.00000000000E+00 0. -1.
         -6    2    1    2    0  503 -0.18559260344E+03 -0.81405139630E+02 -0.93825636837E+03  0.97512426856E+03  0.17167095019E+03 0.  0.
        -24    2    3    3    0    0 -0.16958164694E+03 -0.45802852294E+02 -0.90070188091E+03  0.92075237214E+03  0.75267631002E+02 0.  0.
          6    2    1    2  501    0  0.18559260344E+03  0.81405139630E+02 -0.35464280577E+03  0.44322485743E+03  0.17206203344E+03 0.  0.
         24    2    5    5    0    0  0.20807747923E+03  0.60686113604E+02 -0.33417077459E+03  0.40612982085E+03  0.79323912223E+02 0.  0.
          5    1    5    5  501    0 -0.22484875781E+02  0.20719026027E+02 -0.20472031180E+02  0.37095036582E+02  0.47000000000E+01 0. -1.
        -11    1    6    6    0    0  0.75751561538E+02  0.60480996065E+02 -0.16481871277E+03  0.19121050714E+03  0.00000000000E+00 0.  1.
         12    1    6    6    0    0  0.13232591769E+03  0.20511753835E+00 -0.16935206182E+03  0.21491931371E+03  0.00000000000E+00 0. -1.
         -5    1    3    3    0  503 -0.16010956506E+02 -0.35602287337E+02 -0.37554487465E+02  0.54371896423E+02  0.47000000000E+01 0.  1.
         13    1    4    4    0    0 -0.36509970126E+01  0.69689595815E+01 -0.14654199292E+03  0.14675303017E+03  0.00000000000E+00 0. -1.
        -14    1    4    4    0    0 -0.16593064993E+03 -0.52771811875E+02 -0.75415988799E+03  0.77399934197E+03  0.00000000000E+00 0.  1.
</event>
<event>
12    1  0.1046899E+000  0.2798865E+03  0.7818608E-02  0.1096051E+00
         21   -1    0    0  501  502  0.00000000000E+00  0.00000000000E+00  0.92963497355E+02  0.92963497355E+02  0.00000000000E+00 0. -1.
         21   -1    0    0  502  503 -0.00000000000E+00 -0.00000000000E+00 -0.98204286104E+03  0.98204286104E+03  0.00000000000E+00 0. -1.
         -6    2    1    2    0  503  0.21412028156E+03 -0.37486850497E+02 -0.65027223870E+03  0.70708612975E+03  0.17281218568E+03 0.  0.
        -24    2    3    3    0    0  0.91399851516E+02 -0.66493474200E+02 -0.23017059292E+03  0.26844143190E+03  0.79416531920E+02 0.  0.
          6    2    1    2  501    0 -0.21412028156E+03  0.37486850497E+02 -0.23880712498E+03  0.36792022864E+03  0.17630567992E+03 0.  0.
         24    2    5    5    0    0 -0.49505647229E+02  0.47527770919E+02 -0.48923869158E+02  0.11637194549E+03  0.80244542539E+02 0.  0.
          5    1    5    5  501    0 -0.16461463433E+03 -0.10040920422E+02 -0.18988325582E+03  0.25154828316E+03  0.47000000000E+01 0. -1.
        -13    1    6    6    0    0 -0.50588941757E+02 -0.69806373214E+01 -0.23433739704E+02  0.56188170303E+02  0.00000000000E+00 0.  1.
         14    1    6    6    0    0  0.10832945281E+01  0.54508408240E+02 -0.25490129453E+02  0.60183775185E+02  0.00000000000E+00 0. -1.
         -5    1    3    3    0  503  0.12272043004E+03  0.29006623703E+02 -0.42010164578E+03  0.43864469785E+03  0.47000000000E+01 0.  1.
         13    1    4    4    0    0  0.13021683499E+01 -0.28578833290E+02 -0.15441245415E+02  0.32509651099E+02  0.00000000000E+00 0. -1.
        -14    1    4    4    0    0  0.90097683166E+02 -0.37914640909E+02 -0.21472934751E+03  0.23593178080E+03  0.00000000000E+00 0.  1.
</event>
<event>
12    1  0.1046899E+000  0.6053011E+03  0.7818608E-02  0.9895250E-01
         21   -1    0    0  503  502  0.00000000000E+00  0.00000000000E+00  0.18197635420E+03  0.18197635420E+03  0.00000000000E+00 0. -1.
         21   -1    0    0  501  503 -0.00000000000E+00 -0.00000000000E+00 -0.20222671780E+04  0.20222671780E+04  0.00000000000E+00 0.  1.
          6    2    1    2  501    0 -0.12283304472E+03 -0.56759315031E+03 -0.82980663318E+03  0.10271165913E+04  0.17070296553E+03 0.  0.
         24    2    3    3    0    0 -0.66592682109E+02 -0.49097771140E+03 -0.62927205290E+03  0.80515012589E+03  0.82399698149E+02 0.  0.
         -6    2    1    2    0  502  0.12283304472E+03  0.56759315031E+03 -0.10104841907E+04  0.11771269410E+04  0.16522588916E+03 0.  0.
        -24    2    5    5    0    0  0.32873534142E+01  0.17104348438E+03 -0.33736289122E+03  0.38677437179E+03  0.80709442209E+02 0.  0.
          5    1    3    3  501    0 -0.56240362611E+02 -0.76615438906E+02 -0.20053458028E+03  0.22196646538E+03  0.47000000000E+01 0. -1.
        -11    1    4    4    0    0 -0.43423738733E+02 -0.15665897553E+03 -0.25853790372E+03  0.30540056214E+03  0.00000000000E+00 0.  1.
         12    1    4    4    0    0 -0.23168943375E+02 -0.33431873588E+03 -0.37073414918E+03  0.49974956374E+03  0.00000000000E+00 0. -1.
         -5    1    5    5    0  502  0.11954569131E+03  0.39654966593E+03 -0.67312129944E+03  0.79035256918E+03  0.47000000000E+01 0.  1.
         11    1    6    6    0    0  0.21791638840E+02  0.47740950887E+02 -0.45737868916E+02  0.69613407961E+02  0.00000000000E+00 0. -1.
        -12    1    6    6    0    0 -0.18504285426E+02  0.12330253349E+03 -0.29162502230E+03  0.31716096383E+03  0.00000000000E+00 0.  1.
</event>
<event>
12    1  0.1046899E+000  0.2160606E+03  0.7818608E-02  0.1137176E+00
         21   -1    0    0  503  502  0.00000000000E+00  0.00000000000E+00  0.16712989451E+03  0.16712989451E+03  0.00000000000E+00 0. -1.
         21   -1    0    0  501  503 -0.00000000000E+00 -0.00000000000E+00 -0.27723547934E+03  0.27723547934E+03  0.00000000000E+00 0. -1.
          6    2    1    2  501    0  0.12128433058E+03  0.39831777416E+02 -0.50977289033E+02  0.22036017366E+03  0.17223084161E+03 0.  0.
         24    2    3    3    0    0  0.14374011435E+03  0.57691073678E+02 -0.17502549952E+02  0.17602209923E+03  0.81779946851E+02 0.  0.
         -6    2    1    2    0  502 -0.12128433058E+03 -0.39831777416E+02 -0.59128295798E+02  0.22400520019E+03  0.17431498791E+03 0.  0.
        -24    2    5    5    0    0 -0.90885876837E+02 -0.13615069705E+02 -0.10606627197E+03  0.16206454020E+03  0.81050900119E+02 0.  0.
          5    1    3    3  501    0 -0.22455783772E+02 -0.17859296262E+02 -0.33474739081E+02  0.44338074432E+02  0.47000000000E+01 0. -1.
        -13    1    4    4    0    0  0.17242019262E+01  0.32933938980E+01 -0.23533072396E+02  0.23824878007E+02  0.00000000000E+00 0.  1.
         14    1    4    4    0    0  0.14201591242E+03  0.54397679780E+02  0.60305224444E+01  0.15219722122E+03  0.00000000000E+00 0. -1.
         -5    1    5    5    0  502 -0.30398453740E+02 -0.26216707710E+02  0.46937976168E+02  0.61940659987E+02  0.47000000000E+01 0.  1.
         13    1    6    6    0    0 -0.43520457489E+02  0.19389651161E+02 -0.80632232766E+01  0.48321882847E+02  0.00000000000E+00 0. -1.
        -14    1    6    6    0    0 -0.47365419347E+02 -0.33004720867E+02 -0.98003048689E+02  0.11374265735E+03  0.00000000000E+00 0.  1.
</event>
<event>
12    1  0.1046899E+000  0.2090295E+03  0.7818608E-02  0.1142341E+00
         21   -1    0    0  501  502  0.00000000000E+00  0.00000000000E+00  0.45764876231E+03  0.45764876231E+03  0.00000000000E+00 0.  1.
         21   -1    0    0  502  503 -0.00000000000E+00 -0.00000000000E+00 -0.12004708905E+03  0.12004708905E+03  0.00000000000E+00 0.  1.
         -6    2    1    2    0  503  0.97895816365E+02 -0.69173806994E+02  0.29950468228E+03  0.36522304065E+03  0.17121976604E+03 0.  0.
        -24    2    3    3    0    0 -0.85667255154E+01 -0.25026645239E+02  0.18118611170E+03  0.19998194752E+03  0.80403050348E+02 0.  0.
          6    2    1    2  501    0 -0.97895816365E+02  0.69173806994E+02  0.38096990978E+02  0.21247281071E+03  0.17124458571E+03 0.  0.
         24    2    5    5    0    0 -0.11515436943E+03  0.98610739605E+02  0.16032669177E+02  0.17156663817E+03  0.78698526590E+02 0.  0.
          5    1    5    5  501    0  0.17258553066E+02 -0.29436932611E+02  0.22064321801E+02  0.40906172542E+02  0.47000000000E+01 0. -1.
        -11    1    6    6    0    0 -0.45886915781E+02  0.49456147705E+02  0.45825632920E+02  0.81556779107E+02  0.00000000000E+00 0.  1.
         12    1    6    6    0    0 -0.69267453650E+02  0.49154591899E+02 -0.29792963743E+02  0.90009859063E+02  0.00000000000E+00 0. -1.
         -5    1    3    3    0  503  0.10646254188E+03 -0.44147161755E+02  0.11831857058E+03  0.16524109313E+03  0.47000000000E+01 0.  1.
         11    1    4    4    0    0  0.33852990147E+02 -0.24067290657E+02  0.77033923015E+02  0.87518482142E+02  0.00000000000E+00 0. -1.
        -12    1    4    4    0    0 -0.42419715662E+02 -0.95935458217E+00  0.10415218868E+03  0.11246346538E+03  0.00000000000E+00 0.  1.
</event>
<event>
12    1  0.1046899E+000  0.3039394E+03  0.7818608E-02  0.1083420E+00
         21   -1    0    0  501  502  0.00000000000E+00  0.00000000000E+00  0.17132615266E+04  0.17132615266E+04  0.00000000000E+00 0. -1.
         21   -1    0    0  502  503 -0.00000000000E+00 -0.00000000000E+00 -0.54382559897E+02  0.54382559897E+02  0.00000000000E+00 0.  1.
         -6    2    1    2    0  503 -0.82161336385E+02 -0.23577586206E+03  0.73403624067E+03  0.79447363560E+03  0.17331593325E+03 0.  0.
        -24    2    3    3    0    0 -0.95737576335E+02 -0.23438939227E+03  0.56510154438E+03  0.62492347134E+03  0.84175523996E+02 0.  0.
          6    2    1    2  501    0  0.82161336385E+02  0.23577586206E+03  0.92484272605E+03  0.97317045091E+03  0.17142320810E+03 0.  0.
         24    2    5    5    0    0 -0.13653219650E+02  0.11653901011E+03  0.55480275523E+03  0.57273378174E+03  0.80312740301E+02 0.  0.
          5    1    5    5  501    0  0.95814556035E+02  0.11923685195E+03  0.37003997082E+03  0.40043666917E+03  0.47000000000E+01 0. -1.
        -13    1    6    6    0    0 -0.23267407611E+02  0.80399357853E+02  0.21242181713E+03  0.22831657275E+03  0.00000000000E+00 0.  1.
         14    1    6    6    0    0  0.96141879611E+01  0.36139652257E+02  0.34238093810E+03  0.34441720899E+03  0.00000000000E+00 0. -1.
         -5    1    3    3    0  503  0.13576239950E+02 -0.13864697912E+01  0.16893469629E+03  0.16955016426E+03  0.47000000000E+01 0.  1.
         11    1    4    4    0    0 -0.10744355201E+02  0.54547951266E+01  0.19891597732E+02  0.23256646768E+02  0.00000000000E+00 0. -1.
        -12    1    4    4    0    0 -0.84993221133E+02 -0.23984418740E+03  0.54520994665E+03  0.60166682458E+03  0.00000000000E+00 0.  1.
</event>
<event>
12    1  0.1046899E+000  0.1830157E+03  0.7818608E-02  0.1166681E+00
         21   -1    0    0  503  502  0.00000000000E+00  0.00000000000E+00  0.42087830519E+03  0.42087830519E+03  0.00000000000E+00 0.  1.
         21   -1    0    0  501  503 -0.00000000000E+00 -0.00000000000E+00 -0.77675177930E+02  0.77675177930E+02  0.00000000000E+00 0.  1.
          6    2    1    2  501    0  0.53882162986E+02  0.25776033744E+02  0.14363653263E+03  0.23265037529E+03  0.17299437047E+03 0.  0.
         24    2    3    3    0    0  0.93313077859E+02  0.26294616311E+02  0.14668380048E+03  0.19282021314E+03  0.79150236429E+02 0.  0.
         -6    2    1    2    0  502 -0.53882162986E+02 -0.25776033744E+02  0.19956659464E+03  0.26590310783E+03  0.16525721060E+03 0.  0.
        -24    2    5    5    0    0  0.85562919085E+01  0.10905778438E+02  0.16875139079E+03  0.18706287202E+03  0.79519431970E+02 0.  0.
          5    1    3    3  501    0 -0.39430914872E+02 -0.51858256761E+00 -0.30472678539E+01  0.39830162150E+02  0.47000000000E+01 0. -1.
        -13    1    4    4    0    0 -0.91291086887E+01  0.66169297507E+01 -0.17371664464E+01  0.11407985451E+02  0.00000000000E+00 0.  1.
         14    1    4    4    0    0  0.10244218655E+03  0.19677686561E+02  0.14842096693E+03  0.18141222769E+03  0.00000000000E+00 0. -1.
         -5    1    5    5    0  502 -0.62438454895E+02 -0.36681812181E+02  0.30815203850E+02  0.78840235812E+02  0.47000000000E+01 0.  1.
         13    1    6    6    0    0 -0.26454721983E+02 -0.20442532476E+02  0.62425142796E+02  0.70814178682E+02  0.00000000000E+00 0. -1.
        -14    1    6    6    0    0  0.35011013891E+02  0.31348310914E+02  0.10632624799E+03  0.11624869334E+03  0.00000000000E+00 0.  1.
</event>
<event>
12    1  0.1046899E+000  0.2377295E+03  0.7818608E-02  0.1121385E+00
         21   -1    0    0  501  502  0.00000000000E+00  0.00000000000E+00  0.51556452559E+03  0.51556452559E+03  0.00000000000E+00 0. -1.
         21   -1    0    0  502  503 -0.00000000000E+00 -0.00000000000E+00 -0.10944382210E+03  0.10944382210E+03  0.00000000000E+00 0. -1.
         -6    2    1    2    0  503  0.13155187427E+03  0.96869895149E+02  0.20669389619E+03  0.31470791010E+03  0.17213085066E+03 0.  0.
        -24    2    3    3    0    0  0.29847929750E+02  0.80500367353E+02  0.16696746756E+03  0.20420029542E+03  0.80302038394E+02 0.  0.
          6    2    1    2  501    0 -0.13155187427E+03 -0.96869895149E+02  0.19942680731E+03  0.31030043758E+03  0.17270100718E+03 0.  0.
         24    2    5    5    0    0 -0.15940468116E+03 -0.10521710028E+03  0.18129383771E+03  0.27571215530E+03  0.81665454276E+02 0.  0.
          5    1    5    5  501    0  0.27852806887E+02  0.83472051312E+01  0.18132969598E+02  0.34588282285E+02  0.47000000000E+01 0. -1.
        -11    1    6    6    0    0 -0.31282206104E+02 -0.67007545059E+02  0.68167774919E+02  0.10057550920E+03  0.00000000000E+00 0.  1.
         12    1    6    6    0    0 -0.12812247506E+03 -0.38209555221E+02  0.11312606279E+03  0.17513664610E+03  0.00000000000E+00 0. -1.
         -5    1    3    3    0  503  0.10170394452E+03  0.16369527796E+02  0.39726428625E+02  0.11050761468E+03  0.47000000000E+01 0.  1.
         13    1    4    4    0    0 -0.27857539154E+02  0.23730320885E+02  0.50576751635E+02  0.62427385201E+02  0.00000000000E+00 0. -1.
        -14    1    4    4    0    0  0.57705468904E+02  0.56770046468E+02  0.11639071593E+03  0.14177291022E+03  0.00000000000E+00 0.  1.
</event>
<event>
12    1  0.1046899E+000  0.3861653E+03  0.7818608E-02  0.1048732E+00
         21   -1    0    0  503  502  0.00000000000E+00  0.00000000000E+00  0.14417593557E+03  0.14417593557E+03  0.00000000000E+00 0. -1.
         21   -1    0    0  501  503 -0.00000000000E+00 -0.00000000000E+00 -0.17659054901E+04  0.17659054901E+04  0.00000000000E+00 0. -1.
          6    2    1    2  501    0  0.29665894461E+02  0.34398225103E+03 -0.19512458163E+03  0.43213508365E+03  0.17164869311E+03 0.  0.
         24    2    3    3    0    0  0.66451431091E+02  0.16903209057E+03 -0.14504392403E+03  0.24641783454E+03  0.81831344522E+02 0.  0.
         -6    2    1    2    0  502 -0.29665894461E+02 -0.34398225103E+03 -0.14266049729E+04  0.14779463420E+04  0.17297337046E+03 0.  0.
        -24    2    5    5    0    0 -0.73287892207E+02 -0.17225352631E+03 -0.77978278151E+03  0.80727900955E+03  0.92713647565E+02 0.  0.
          5    1    3    3  501    0 -0.36785536630E+02  0.17495016046E+03 -0.50080657602E+02  0.18571724911E+03  0.47000000000E+01 0. -1.
        -11    1    4    4    0    0  0.31099487041E+02  0.10475289745E+03 -0.36106635847E+02  0.11508273880E+03  0.00000000000E+00 0.  1.
         12    1    4    4    0    0  0.35351944051E+02  0.64279193118E+02 -0.10893728818E+03  0.13133509574E+03  0.00000000000E+00 0. -1.
         -5    1    5    5    0  502  0.43621997746E+02 -0.17172872472E+03 -0.64682219139E+03  0.67066733248E+03  0.47000000000E+01 0.  1.
         13    1    6    6    0    0 -0.23867231090E+02 -0.29591396290E+02 -0.54507397799E+02  0.66455638354E+02  0.00000000000E+00 0. -1.
        -14    1    6    6    0    0 -0.49420661117E+02 -0.14266213002E+03 -0.72527538371E+03  0.74082337119E+03  0.00000000000E+00 0.  1.
</event>
<event>
12    1  0.1046899E+000  0.2149910E+03  0.7818608E-02  0.1138207E+00
         21   -1    0    0  501  502  0.00000000000E+00  0.00000000000E+00  0.53725579591E+03  0.53725579591E+03  0.00000000000E+00 0. -1.
         21   -1    0    0  502  503 -0.00000000000E+00 -0.00000000000E+00 -0.86074081880E+02  0.86074081880E+02  0.00000000000E+00 0. -1.
         -6    2    1    2    0  503 -0.12419212455E+03 -0.61169882851E+01  0.26005420073E+03  0.33566535641E+03  0.17199401975E+03 0.  0.
        -24    2    3    3    0    0  0.12741442273E+01 -0.15724469112E+02  0.68340740970E+02  0.10629615851E+03  0.79871985490E+02 0.  0.
          6    2    1    2  501    0  0.12419212455E+03  0.61169882851E+01  0.19112751330E+03  0.28766452139E+03  0.17538543035E+03 0.  0.
         24    2    5    5    0    0  0.58165629618E+02  0.70449742381E+02  0.92844574069E+02  0.15283193101E+03  0.79944215133E+02 0.  0.
          5    1    5    5  501    0  0.66026494930E+02 -0.64332754096E+02  0.98282939235E+02  0.13483259037E+03  0.47000000000E+01 0. -1.
        -11    1    6    6    0    0  0.67686515171E+02  0.66843318429E+02  0.10175906798E+03  0.13929968223E+03  0.00000000000E+00 0.  1.
         12    1    6    6    0    0 -0.95208855527E+01  0.36064239528E+01 -0.89144939091E+01  0.13532248782E+02  0.00000000000E+00 0. -1.
         -5    1    3    3    0  503 -0.12546626878E+03  0.96074808272E+01  0.19171345976E+03  0.22936919789E+03  0.47000000000E+01 0.  1.
         13    1    4    4    0    0 -0.17580692479E+02  0.27890541987E+02  0.36015744621E+02  0.48827215167E+02  0.00000000000E+00 0. -1.
        -14    1    4    4    0    0  0.18854836706E+02 -0.43615011100E+02  0.32324996350E+02  0.57468943347E+02  0.00000000000E+00 0.  1.
</event>
<event>
12    1  0.1046899E+000  0.2789291E+03  0.7818608E-02  0.1098073E+00
         21   -1    0    0  501  502  0.00000000000E+00  0.00000000000E+00  0.65481397531E+03  0.65481397531E+03  0.00000000000E+00 0.  1.
         21   -1    0    0  502  503 -0.00000000000E+00 -0.00000000000E+00 -0.11487864066E+03  0.11487864066E+03  0.00000000000E+00 0.  1.
         -6    2    1    2    0  503 -0.19848468968E+03 -0.42194268230E+02  0.31934871307E+03  0.42401063680E+03  0.19137630800E+03 0.  0.
        -24    2    3    3    0    0 -0.32593828551E+02 -0.53173470170E+02  0.65294236541E+02  0.12035608352E+03  0.79576842890E+02 0.  0.
          6    2    1    2  501    0  0.19848468968E+03  0.42194268230E+02  0.22058662158E+03  0.34568197918E+03  0.17222382180E+03 0.  0.
         24    2    5    5    0    0  0.15021229310E+02  0.20177156004E+02  0.72869044349E+02  0.10906801690E+03  0.77156851484E+02 0.  0.
          5    1    5    5  501    0  0.18346346037E+03  0.22017112226E+02  0.14771757723E+03  0.23661396228E+03  0.47000000000E+01 0. -1.
        -11    1    6    6    0    0 -0.57932770045E+01  0.14138639602E+02 -0.13274223936E+02  0.20240262087E+02  0.00000000000E+00 0.  1.
         12    1    6    6    0    0  0.20814506314E+02  0.60385164022E+01  0.86143268285E+02  0.88827754808E+02  0.00000000000E+00 0. -1.
         -5    1    3    3    0  503 -0.16589086113E+03  0.10979201940E+02  0.25405447653E+03  0.30365455328E+03  0.47000000000E+01 0.  1.
         13    1    4    4    0    0 -0.39602910880E+02 -0.64151739928E+02  0.27284404048E+02  0.80176523935E+02  0.00000000000E+00 0. -1.
        -14    1    4    4    0    0  0.70090823294E+01  0.10978269758E+02  0.38009832493E+02  0.40179559581E+02  0.00000000000E+00 0.  1.
</event>
<event>
12    1  0.1046899E+000  0.1918788E+03  0.7818608E-02  0.1156929E+00
         21   -1    0    0  501  502  0.00000000000E+00  0.00000000000E+00  0.59178511971E+03  0.59178511971E+03  0.00000000000E+00 0. -1.
         21   -1    0    0  502  503 -0.00000000000E+00 -0.00000000000E+00 -0.62248742697E+02  0.62248742697E+02  0.00000000000E+00 0. -1.
         -6    2    1    2    0  503  0.87556350300E+02  0.79926543903E+01  0.24338839472E+03  0.30950790527E+03  0.16978585260E+03 0.  0.
        -24    2    3    3    0    0  0.53587343145E+02  0.54298636649E+02  0.22155884295E+03  0.24789007692E+03  0.80877834183E+02 0.  0.
          6    2    1    2  501    0 -0.87556350300E+02 -0.79926543903E+01  0.28614798230E+03  0.34452595714E+03  0.17055049213E+03 0.  0.
         24    2    5    5    0    0 -0.32396145080E+02  0.26876784268E+02  0.25817427005E+03  0.27337018036E+03  0.79406738037E+02 0.  0.
          5    1    5    5  501    0 -0.55160205220E+02 -0.34869438658E+02  0.27973712255E+02  0.71155776783E+02  0.47000000000E+01 0. -1.
        -11    1    6    6    0    0  0.93386607969E+01  0.18993615617E+02  0.13651069445E+02  0.25185704609E+02  0.00000000000E+00 0.  1.
         12    1    6    6    0    0 -0.41734805877E+02  0.78831686507E+01  0.24452320060E+03  0.24818447575E+03  0.00000000000E+00 0. -1.
         -5    1    3    3    0  503  0.33969007155E+02 -0.46305982259E+02  0.21829551771E+02  0.61617828350E+02  0.47000000000E+01 0.  1.
         11    1    4    4    0    0 -0.25875147158E+01  0.35062884133E+02  0.15392967952E+03  0.15789378491E+03  0.00000000000E+00 0. -1.
        -12    1    4    4    0    0  0.56174857861E+02  0.19235752516E+02  0.67629163430E+02  0.89996292017E+02  0.00000000000E+00 0.  1.
</event>
<event>
12    1  0.1046899E+000  0.1753678E+03  0.7818608E-02  0.1172934E+00
         21   -1    0    0  503  502  0.00000000000E+00  0.00000000000E+00  0.25282024435E+03  0.25282024435E+03  0.00000000000E+00 0. -1.
         21   -1    0    0  501  503 -0.00000000000E+00 -0.00000000000E+00 -0.12726464243E+03  0.12726464243E+03  0.00000000000E+00 0. -1.
          6    2    1    2  501    0  0.25426957360E+01 -0.20904093355E+02  0.10755444943E+03  0.20379562417E+03  0.17181749159E+03 0.  0.
         24    2    3    3    0    0 -0.11116796884E+02 -0.32049487271E+02  0.14294665076E+03  0.16397729348E+03  0.72828943467E+02 0.  0.
         -6    2    1    2    0  502 -0.25426957360E+01  0.20904093355E+02  0.18001152495E+02  0.17628926261E+03  0.17409886903E+03 0.  0.
        -24    2    5    5    0    0  0.36428186750E+01 -0.56026462991E+02  0.36623973749E+01  0.97649190211E+02  0.79810503765E+02 0.  0.
          5    1    3    3  501    0  0.13659492620E+02  0.11145393916E+02 -0.35392201327E+02  0.39818330690E+02  0.47000000000E+01 0. -1.
        -13    1    4    4    0    0  0.26491348133E+02  0.55119683380E+01  0.43884697373E+02  0.51556182795E+02  0.00000000000E+00 0.  1.
         14    1    4    4    0    0 -0.37608145017E+02 -0.37561455609E+02  0.99061953387E+02  0.11242111069E+03  0.00000000000E+00 0. -1.
         -5    1    5    5    0  502 -0.61855144111E+01  0.76930556346E+02  0.14338755121E+02  0.78640072397E+02  0.47000000000E+01 0.  1.
         11    1    6    6    0    0 -0.21193096724E+02  0.41163001058E+01  0.21200497386E+02  0.30258095854E+02  0.00000000000E+00 0. -1.
        -12    1    6    6    0    0  0.24835915399E+02 -0.60142763096E+02 -0.17538100011E+02  0.67391094357E+02  0.00000000000E+00 0.  1.
</event>
<event>
12    1  0.1046899E+000  0.2058179E+03  0.7818608E-02  0.1144949E+00
         21   -1    0    0  503  502  0.00000000000E+00  0.00000000000E+00  0.19317683445E+03  0.19317683445E+03  0.00000000000E+00 0.  1.
         21   -1    0    0  501  503 -0.00000000000E+00 -0.00000000000E+00 -0.22073558554E+03  0.22073558554E+03  0.00000000000E+00 0.  1.
          6    2    1    2  501    0  0.24918842198E+02  0.11023452140E+03  0.38091255079E+01  0.20585317894E+03  0.17201285836E+03 0.  0.
         24    2    3    3    0    0  0.19695459513E+02  0.40578319698E+02  0.59667180456E+02  0.11629044973E+03  0.89043725885E+02 0.  0.
         -6    2    1    2    0  502 -0.24918842198E+02 -0.11023452140E+03 -0.31367876600E+02  0.20805924105E+03  0.17184907826E+03 0.  0.
        -24    2    5    5    0    0 -0.43744293057E+02 -0.10749512063E+03 -0.75489660001E+02  0.15978167186E+03  0.79766720878E+02 0.  0.
          5    1    3    3  501    0  0.52233826854E+01  0.69656201700E+02 -0.55858054948E+02  0.89562729216E+02  0.47000000000E+01 0. -1.
        -13    1    4    4    0    0  0.26071342236E+02 -0.13355671605E+02 -0.71819280195E+01  0.30160718494E+02  0.00000000000E+00 0.  1.
         14    1    4    4    0    0 -0.63758827232E+01  0.53933991303E+02  0.66849108476E+02  0.86129731234E+02  0.00000000000E+00 0. -1.
         -5    1    5    5    0  502  0.18825450858E+02 -0.27394007651E+01  0.44121783401E+02  0.48277569192E+02  0.47000000000E+01 0.  1.
         13    1    6    6    0    0  0.10040368273E+01 -0.28445367124E+02  0.14476831716E+02  0.31933143555E+02  0.00000000000E+00 0. -1.
        -14    1    6    6    0    0 -0.44748329884E+02 -0.79049753509E+02 -0.89966491717E+02  0.12784852830E+03  0.00000000000E+00 0.  1.
</event>
<event>
12    1  0.1046899E+000  0.2068498E+03  0.7818608E-02  0.1144257E+00
         21   -1    0    0  503  502  0.00000000000E+00  0.00000000000E+00  0.35410727839E+03  0.35410727839E+03  0.00000000000E+00 0.  1.
         21   -1    0    0  501  503 -0.00000000000E+00 -0.00000000000E+00 -0.14347344801E+03  0.14347344801E+03  0.00000000000E+00 0.  1.
          6    2    1    2  501    0 -0.11291621602E+03 -0.16147651798E+02  0.20504966430E+03  0.29065560329E+03  0.17153570006E+03 0.  0.
         24    2    3    3    0    0 -0.74778609500E+02 -0.35527896511E+02  0.21853603773E+03  0.24555523539E+03  0.75400941456E+02 0.  0.
         -6    2    1    2    0  502  0.11291621602E+03  0.16147651798E+02  0.55841660763E+01  0.20692512312E+03  0.17255725186E+03 0.  0.
        -24    2    5    5    0    0 -0.93851198752E+01  0.14875825737E+02  0.16456728630E+02  0.84044950110E+02  0.80519308587E+02 0.  0.
          5    1    3    3  501    0 -0.38137606516E+02  0.19380244712E+02 -0.13486373429E+02  0.45100367894E+02  0.47000000000E+01 0. -1.
        -11    1    4    4    0    0 -0.90131122416E+02 -0.25969296904E+02  0.17932752856E+03  0.20237684183E+03  0.00000000000E+00 0.  1.
         12    1    4    4    0    0  0.15352512916E+02 -0.95585996064E+01  0.39208509174E+02  0.43178393566E+02  0.00000000000E+00 0. -1.
         -5    1    5    5    0  502  0.12230133589E+03  0.12718260617E+01 -0.10872562554E+02  0.12288017301E+03  0.47000000000E+01 0.  1.
         13    1    6    6    0    0  0.89780421412E+01  0.18260792613E+02  0.45314131313E+02  0.49673255220E+02  0.00000000000E+00 0. -1.
        -14    1    6    6    0    0 -0.18363162016E+02 -0.33849668758E+01 -0.28857402683E+02  0.34371694890E+02  0.00000000000E+00 0.  1.
</event>
<event>
12    1  0.1046899E+000  0.3042667E+03  0.7818608E-02  0.1083522E+00
         21   -1    0    0  503  502  0.00000000000E+00  0.00000000000E+00  0.10332072498E+03  0.10332072498E+03  0.00000000000E+00 0. -1.
         21   -1    0    0  501  503 -0.00000000000E+00 -0.00000000000E+00 -0.17139908154E+04  0.17139908154E+04  0.00000000000E+00 0. -1.
          6    2    1    2  501    0  0.30186418432E+01 -0.25086084466E+03 -0.17182173757E+03  0.34664407770E+03  0.16643056065E+03 0.  0.
         24    2    3    3    0    0 -0.12258459133E+02 -0.20938580143E+03 -0.19421105877E+03  0.29687520460E+03  0.80151532086E+02 0.  0.
         -6    2    1    2    0  502 -0.30186418432E+01  0.25086084466E+03 -0.14388483529E+04  0.14706674627E+04  0.17215669513E+03 0.  0.
        -24    2    5    5    0    0 -0.35213870825E+01  0.63901706636E+02 -0.75292056106E+03  0.75970122044E+03  0.78490412099E+02 0.  0.
          5    1    3    3  501    0  0.15277100976E+02 -0.41475043232E+02  0.22389321206E+02  0.49768873097E+02  0.47000000000E+01 0. -1.
        -13    1    4    4    0    0  0.23799199699E+02 -0.52831264691E+02 -0.23702462018E+02  0.62604721394E+02  0.00000000000E+00 0.  1.
         14    1    4    4    0    0 -0.36057658832E+02 -0.15655453674E+03 -0.17050859675E+03  0.23427048321E+03  0.00000000000E+00 0. -1.
         -5    1    5    5    0  502  0.50274523931E+00  0.18695913803E+03 -0.68592779181E+03  0.71096624225E+03  0.47000000000E+01 0.  1.
         13    1    6    6    0    0 -0.15627454717E+02 -0.11466391109E+02 -0.27899873397E+03  0.27967121593E+03  0.00000000000E+00 0. -1.
        -14    1    6    6    0    0  0.12106067634E+02  0.75368097745E+02 -0.47392182710E+03  0.48003000451E+03  0.00000000000E+00 0.  1.
</event>
<event>
12    1  0.1046899E+000  0.1833009E+03  0.7818608E-02  0.1165104E+00
         21   -1    0    0  503  502  0.00000000000E+00  0.00000000000E+00  0.56580606398E+03  0.56580606398E+03  0.00000000000E+00 0.  1.
         21   -1    0    0  501  503 -0.00000000000E+00 -0.00000000000E+00 -0.85051079041E+02  0.85051079041E+02  0.00000000000E+00 0.  1.
          6    2    1    2  501    0 -0.31326380128E+02 -0.53043350764E+02  0.42218301026E+03  0.46025831899E+03  0.17263918124E+03 0.  0.
         24    2    3    3    0    0 -0.35731037530E+02 -0.31301088190E+02  0.10019887635E+03  0.13747665985E+03  0.81262242261E+02 0.  0.
         -6    2    1    2    0  502  0.31326380128E+02  0.53043350764E+02  0.58571974676E+02  0.19059882402E+03  0.17059395168E+03 0.  0.
        -24    2    5    5    0    0 -0.27487584098E+02  0.34752735200E+02 -0.16603978170E+02  0.93299579977E+02  0.80410196178E+02 0.  0.
          5    1    3    3  501    0  0.44046574022E+01 -0.21742262575E+02  0.32198413391E+03  0.32278165914E+03  0.47000000000E+01 0. -1.
        -11    1    4    4    0    0 -0.54733495265E+02 -0.49214828969E+00  0.42224388073E+02  0.69129564312E+02  0.00000000000E+00 0.  1.
         12    1    4    4    0    0  0.19002457735E+02 -0.30808939900E+02  0.57974488275E+02  0.68347095538E+02  0.00000000000E+00 0. -1.
         -5    1    5    5    0  502  0.58813964226E+02  0.18290615565E+02  0.75175952846E+02  0.97299244047E+02  0.47000000000E+01 0.  1.
         11    1    6    6    0    0 -0.39371207732E+02  0.50486040364E+02  0.47946400871E+01  0.64202187218E+02  0.00000000000E+00 0. -1.
        -12    1    6    6    0    0  0.11883623634E+02 -0.15733305165E+02 -0.21398618257E+02  0.29097392759E+02  0.00000000000E+00 0.  1.
</event>
<event>
12    1  0.1046899E+000  0.1932239E+03  0.7818608E-02  0.1156476E+00
         21   -1    0    0  501  502  0.00000000000E+00  0.00000000000E+00  0.68783495142E+02  0.68783495142E+02  0.00000000000E+00 0. -1.
         21   -1    0    0  502  503 -0.00000000000E+00 -0.00000000000E+00 -0.57421921023E+03  0.57421921023E+03  0.00000000000E+00 0. -1.
         -6    2    1    2    0  503 -0.44297761530E+02 -0.65854815614E+02 -0.16273071843E+03  0.24957901241E+03  0.17178256111E+03 0.  0.
        -24    2    3    3    0    0 -0.91714426407E+01 -0.89583216291E+02 -0.51895114214E+02  0.13082078558E+03  0.79446252651E+02 0.  0.
          6    2    1    2  501    0  0.44297761530E+02  0.65854815614E+02 -0.34270499666E+03  0.39342369296E+03  0.17617133431E+03 0.  0.
         24    2    5    5    0    0  0.96280903090E+02  0.24387741542E+02 -0.23130707193E+03  0.26360322897E+03  0.78223567793E+02 0.  0.
          5    1    5    5  501    0 -0.51983141560E+02  0.41467074072E+02 -0.11139792473E+03  0.12982046400E+03  0.47000000000E+01 0. -1.
        -13    1    6    6    0    0  0.56887980631E+01  0.80019982175E+01  0.42474247411E+01  0.10697430337E+02  0.00000000000E+00 0.  1.
         14    1    6    6    0    0  0.90592105027E+02  0.16385743324E+02 -0.23555449667E+03  0.25290579863E+03  0.00000000000E+00 0. -1.
         -5    1    3    3    0  503 -0.35126318890E+02  0.23728400677E+02 -0.11083560422E+03  0.11875822683E+03  0.47000000000E+01 0.  1.
         11    1    4    4    0    0  0.10806393233E+02  0.12209206146E+02 -0.83362909544E+01  0.18312198019E+02  0.00000000000E+00 0. -1.
        -12    1    4    4    0    0 -0.19977835873E+02 -0.10179242244E+03 -0.43558823259E+02  0.11250858756E+03  0.00000000000E+00 0.  1.
</event>
<event>
12    1  0.1046899E+000  0.2443363E+03  0.7818608E-02  0.1117748E+00
         21   -1    0    0  501  502  0.00000000000E+00  0.00000000000E+00  0.41849475519E+03  0.41849475519E+03  0.00000000000E+00 0.  1.
         21   -1    0    0  502  503 -0.00000000000E+00 -0.00000000000E+00 -0.14067342979E+03  0.14067342979E+03  0.00000000000E+00 0.  1.
         -6    2    1    2    0  503  0.30921018927E+02  0.16407428934E+03  0.16244944906E+03  0.29341107744E+03  0.17839213835E+03 0.  0.
        -24    2    3    3    0    0 -0.16361737377E+02  0.17351039977E+03  0.10529962609E+03  0.21849184433E+03  0.79228211540E+02 0.  0.
          6    2    1    2  501    0 -0.30921018927E+02 -0.16407428934E+03  0.11537187633E+03  0.26575710754E+03  0.17157997705E+03 0.  0.
         24    2    5    5    0    0 -0.75701149441E+02 -0.81496145250E+02  0.10158147240E+03  0.17069567892E+03  0.80286571409E+02 0.  0.
          5    1    5    5  501    0  0.44780130515E+02 -0.82578144094E+02  0.13790403929E+02  0.95061428621E+02  0.47000000000E+01 0. -1.
        -11    1    6    6    0    0  0.17558120433E+01 -0.77357530982E+01 -0.12188566566E+02  0.14542555032E+02  0.00000000000E+00 0.  1.
         12    1    6    6    0    0 -0.77456961485E+02 -0.73760392151E+02  0.11377003897E+03  0.15615312389E+03  0.00000000000E+00 0. -1.
         -5    1    3    3    0  503  0.47282756303E+02 -0.94361104311E+01  0.57149822970E+02  0.74919233106E+02  0.47000000000E+01 0.  1.
         11    1    4    4    0    0 -0.34783744687E+02  0.87048316645E+02  0.20423548850E+02  0.95939771070E+02  0.00000000000E+00 0. -1.
        -12    1    4    4    0    0  0.18422007310E+02  0.86462083129E+02  0.84876077245E+02  0.12255207326E+03  0.00000000000E+00 0.  1.
</event>
<event>
12    1  0.1046899E+000  0.2664643E+03  0.7818608E-02  0.1103349E+00
         21   -1    0    0  503  502  0.00000000000E+00  0.00000000000E+00  0.28318004260E+04  0.28318004260E+04  0.00000000000E+00 0.  1.
         21   -1    0    0  501  503 -0.00000000000E+00 -0.00000000000E+00 -0.25058553312E+02  0.25058553312E+02  0.00000000000E+00 0.  1.
          6    2    1    2  501    0 -0.20304277507E+03  0.98354595647E+01  0.13863345719E+04  0.14116738267E+04  0.17197774018E+03 0.  0.
         24    2    3    3    0    0 -0.21208044247E+03  0.43705884355E+01  0.13799850290E+04  0.13984847804E+04  0.80023650032E+02 0.  0.
         -6    2    1    2    0  502  0.20304277507E+03 -0.98354595647E+01  0.14204073008E+04  0.14451851526E+04  0.17227919280E+03 0.  0.
        -24    2    5    5    0    0  0.22562234486E+03 -0.30973985773E+01  0.12317954308E+04  0.12550489752E+04  0.83143914091E+02 0.  0.
          5    1    3    3  501    0  0.90376673967E+01  0.54648711292E+01  0.63495428418E+01  0.13189046316E+02  0.47000000000E+01 0. -1.
        -11    1    4    4    0    0  0.27675614156E+01  0.11361201535E+02  0.64251429534E+02  0.65306833437E+02  0.00000000000E+00 0.  1.
         12    1    4    4    0    0 -0.21484800388E+03 -0.69906130997E+01  0.13157335995E+04  0.13331779470E+04  0.00000000000E+00 0. -1.
         -5    1    5    5    0  502 -0.22579569790E+02 -0.67380609873E+01  0.18861186999E+03  0.19013617735E+03  0.47000000000E+01 0.  1.
         13    1    6    6    0    0  0.21794286901E+03 -0.22885480259E+02  0.11119209252E+04  0.11333097473E+04  0.00000000000E+00 0. -1.
        -14    1    6    6    0    0  0.76794758522E+01  0.19788081682E+02  0.11987450560E+03  0.12173922794E+03  0.00000000000E+00 0.  1.
</event>
<event>
12    1  0.1094200E+000  0.3044299E+03  0.7818608E-02  0.1083077E+00
         21   -1    0    0  503  502  0.00000000000E+00  0.00000000000E+00  0.54938938413E+03  0.54938938413E+03  0.00000000000E+00 0. -1.
         21   -1    0    0  501  503 -0.00000000000E+00 -0.00000000000E+00 -0.21209428725E+03  0.21209428725E+03  0.00000000000E+00 0. -1.
          6    2    1    2  501    0  0.59124081131E+02 -0.24356222265E+03  0.34109579148E+03  0.45703006858E+03  0.17237149228E+03 0.  0.
         24    2    3    3    0    0  0.92082156734E+01 -0.21286921985E+03  0.19790593466E+03  0.30224286259E+03  0.82376531937E+02 0.  0.
         -6    2    1    2    0  502 -0.59124081131E+02  0.24356222265E+03 -0.38006946021E+01  0.30445360280E+03  0.17279854660E+03 0.  0.
        -24    2    5    5    0    0 -0.99356233677E+02  0.12251925115E+03 -0.94732827180E+01  0.17668703713E+03  0.79031246547E+02 0.  0.
          5    1    3    3  501    0  0.49915865457E+02 -0.30693002805E+02  0.14318985681E+03  0.15478720599E+03  0.47000000000E+01 0. -1.
        -11    1    4    4    0    0  0.25503381830E+02 -0.90960451491E+02  0.13311092150E+03  0.16322605075E+03  0.00000000000E+00 0.  1.
         12    1    4    4    0    0 -0.16295166157E+02 -0.12190876836E+03  0.64795013163E+02  0.13901681184E+03  0.00000000000E+00 0. -1.
         -5    1    5    5    0  502  0.40232152546E+02  0.12104297151E+03  0.56725881159E+01  0.12776656568E+03  0.47000000000E+01 0.  1.
         13    1    6    6    0    0 -0.10071893739E+02 -0.51015184093E+01  0.15260741530E+02  0.18983117911E+02  0.00000000000E+00 0. -1.
        -14    1    6    6    0    0 -0.89284339937E+02  0.12762076956E+03 -0.24734024248E+02  0.15770391921E+03  0.00000000000E+00 0.  1.
</event>
<event>
12    1  0.1046899E+000  0.1890412E+03  0.7818608E-02  0.1159399E+00
         21   -1    0    0  503  502  0.00000000000E+00  0.00000000000E+00  0.12206071245E+03  0.12206071245E+03  0.00000000000E+00 0. -1.
         21   -1    0    0  501  503 -0.00000000000E+00 -0.00000000000E+00 -0.31205156178E+03  0.31205156178E+03  0.00000000000E+00 0. -1.
          6    2    1    2  501    0 -0.59241788816E+02  0.50481755830E+02 -0.14953588045E+03  0.24079079329E+03  0.17193379359E+03 0.  0.
         24    2    3    3    0    0  0.26613826611E+02  0.53179949766E+02 -0.81867838902E+02  0.13133979605E+03  0.83734080013E+02 0.  0.
         -6    2    1    2    0  502  0.59241788816E+02 -0.50481755830E+02 -0.40454968879E+02  0.19332148094E+03  0.17227476098E+03 0.  0.
        -24    2    5    5    0    0  0.83987453750E+02 -0.86799292894E+02 -0.33174552104E+02  0.14852855851E+03  0.79825886471E+02 0.  0.
          5    1    3    3  501    0 -0.85855615427E+02 -0.26981939357E+01 -0.67668041550E+02  0.10945099725E+03  0.47000000000E+01 0. -1.
        -11    1    4    4    0    0 -0.24863266207E+02  0.38844995902E+02 -0.54196210905E+02  0.71164211438E+02  0.00000000000E+00 0.  1.
         12    1    4    4    0    0  0.51477092818E+02  0.14334953864E+02 -0.27671627997E+02  0.60175584611E+02  0.00000000000E+00 0. -1.
         -5    1    5    5    0  502 -0.24745664934E+02  0.36317537063E+02 -0.72804167756E+01  0.44792922430E+02  0.47000000000E+01 0.  1.
         13    1    6    6    0    0  0.28205740105E+02 -0.22075577722E+02  0.26288505412E+02  0.44429499473E+02  0.00000000000E+00 0. -1.
        -14    1    6    6    0    0  0.55781713645E+02 -0.64723715172E+02 -0.59463057516E+02  0.10409905903E+03  0.00000000000E+00 0.  1.
</event>
<event>
12    1  0.1046899E+000  0.2017082E+03  0.7818608E-02  0.1149138E+00
         21   -1    0    0  501  502  0.00000000000E+00  0.00000000000E+00  0.22856313651E+02  0.22856313651E+02  0.00000000000E+00 0.  1.
         21   -1    0    0  502  503 -0.00000000000E+00 -0.00000000000E+00 -0.20334186495E+04  0.20334186495E+04  0.00000000000E+00 0.  1.
         -6    2    1    2    0  503  0.10199298089E+03 -0.19356306481E+02 -0.13836701508E+04  0.13977311175E+04  0.16832099050E+03 0.  0.
        -24    2    3    3    0    0 -0.16293660045E+01  0.26366548728E+02 -0.60503301718E+03  0.61088548707E+03  0.80114147995E+02 0.  0.
          6    2    1    2  501    0 -0.10199298089E+03  0.19356306481E+02 -0.62689218506E+03  0.65854384567E+03  0.17294204297E+03 0.  0.
         24    2    5    5    0    0 -0.40385784222E+02 -0.54636772881E+02 -0.34889003309E+03  0.36430294271E+03  0.79851051072E+02 0.  0.
          5    1    5    5  501    0 -0.61607196671E+02  0.73993079362E+02 -0.27800215197E+03  0.29424090296E+03  0.47000000000E+01 0. -1.
        -11    1    6    6    0    0  0.14496091447E+02 -0.34757072007E+01 -0.11936700517E+02  0.19097173273E+02  0.00000000000E+00 0.  1.
         12    1    6    6    0    0 -0.54881875669E+02 -0.51161065680E+02 -0.33695333258E+03  0.34520576944E+03  0.00000000000E+00 0. -1.
         -5    1    3    3    0  503  0.10362234690E+03 -0.45722855209E+02 -0.77863713361E+03  0.78684563041E+03  0.47000000000E+01 0.  1.
         11    1    4    4    0    0  0.26473644118E+02 -0.17048101322E+02 -0.27981450618E+03  0.28158062693E+03  0.00000000000E+00 0. -1.
        -12    1    4    4    0    0 -0.28103010123E+02  0.43414650049E+02 -0.32521851100E+03  0.32930486015E+03  0.00000000000E+00 0.  1.
</event>
<event>
12    1  0.1046899E+000  0.2001002E+03  0.7818608E-02  0.1149805E+00
         21   -1    0    0  501  502  0.00000000000E+00  0.00000000000E+00  0.66989732145E+03  0.66989732145E+03  0.00000000000E+00 0. -1.
         21   -1    0    0  502  503 -0.00000000000E+00 -0.00000000000E+00 -0.15433835247E+03  0.15433835247E+03  0.00000000000E+00 0.  1.
         -6    2    1    2    0  503  0.10231315952E+03 -0.18467169455E+01 -0.64999701106E+02  0.21039260222E+03  0.17195549700E+03 0.  0.
        -24    2    3    3    0    0  0.78230879121E+01 -0.41709626839E+02 -0.56916556842E+00  0.89186954134E+02  0.78441667262E+02 0.  0.
          6    2    1    2  501    0 -0.10231315952E+03  0.18467169455E+01  0.58055867008E+03  0.61384307170E+03  0.17112438251E+03 0.  0.
         24    2    5    5    0    0  0.12950402022E+02 -0.48489502774E+01  0.29553195423E+03  0.30628358261E+03  0.79241856199E+02 0.  0.
          5    1    5    5  501    0 -0.11526356154E+03  0.66956672229E+01  0.28502671585E+03  0.30755948909E+03  0.47000000000E+01 0. -1.
        -11    1    6    6    0    0  0.85657087332E+01  0.31983503474E+02  0.66713955654E+02  0.74478639485E+02  0.00000000000E+00 0.  1.
         12    1    6    6    0    0  0.43846932889E+01 -0.36832453751E+02  0.22881799858E+03  0.23180494313E+03  0.00000000000E+00 0. -1.
         -5    1    3    3    0  503  0.94490071611E+02  0.39862909893E+02 -0.64430535538E+02  0.12120564809E+03  0.47000000000E+01 0.  1.
         11    1    4    4    0    0  0.17491414681E+02 -0.31278769721E+02  0.35482473590E+02  0.50431309272E+02  0.00000000000E+00 0. -1.
        -12    1    4    4    0    0 -0.96683267693E+01 -0.10430857118E+02 -0.36051639158E+02  0.38755644863E+02  0.00000000000E+00 0.  1.
</event>
<event>
12    1  0.1046899E+000  0.1851578E+03  0.7818608E-02  0.1163001E+00
         21   -1    0    0  503  502  0.00000000000E+00  0.00000000000E+00  0.13235803732E+03  0.13235803732E+03  0.00000000000E+00 0.  1.
         21   -1    0    0  501  503 -0.00000000000E+00 -0.00000000000E+00 -0.40259266929E+03  0.40259266929E+03  0.00000000000E+00 0.  1.
          6    2    1    2  501    0 -0.56785214977E+02  0.26984825109E+02  0.24841512273E+02  0.18681674238E+03  0.17415697825E+03 0.  0.
         24    2    3    3    0    0 -0.69750176258E+02 -0.40073046201E+02  0.32392202821E+02  0.11794039482E+03  0.79935885597E+02 0.  0.
         -6    2    1    2    0  502  0.56785214977E+02 -0.26984825109E+02 -0.29507614424E+03  0.34813396423E+03  0.17370833234E+03 0.  0.
        -24    2    5    5    0    0  0.10361012034E+01  0.48747395935E+02 -0.10696907929E+03  0.13777785932E+03  0.71853827155E+02 0.  0.
          5    1    3    3  501    0  0.12964961281E+02  0.67057871311E+02 -0.75506905479E+01  0.68876347562E+02  0.47000000000E+01 0. -1.
        -11    1    4    4    0    0 -0.36901427417E+02 -0.56336820476E+01  0.54020515154E+02  0.65663306163E+02  0.00000000000E+00 0.  1.
         12    1    4    4    0    0 -0.32848748841E+02 -0.34439364154E+02 -0.21628312333E+02  0.52277088654E+02  0.00000000000E+00 0. -1.
         -5    1    5    5    0  502  0.55749113774E+02 -0.75732221045E+02 -0.18810706494E+03  0.21035610491E+03  0.47000000000E+01 0.  1.
         11    1    6    6    0    0  0.65466444315E+01  0.33230614704E+02 -0.47026302025E+01  0.34194254455E+02  0.00000000000E+00 0. -1.
        -12    1    6    6    0    0 -0.55105432281E+01  0.15516781232E+02 -0.10226644909E+03  0.10358360486E+03  0.00000000000E+00 0.  1.
</event>
<event>
12    1  0.1046899E+000  0.4686061E+03  0.7818608E-02  0.1022366E+00
         21   -1    0    0  503  502  0.00000000000E+00  0.00000000000E+00  0.25704777891E+03  0.25704777891E+03  0.00000000000E+00 0.  1.
         21   -1    0    0  501  503 -0.00000000000E+00 -0.00000000000E+00 -0.94565908263E+03  0.94565908263E+03  0.00000000000E+00 0. -1.
          6    2    1    2  501    0  0.37047136234E+03  0.22990344475E+03 -0.53235129528E+03  0.70873429303E+03  0.16971084913E+03 0.  0.
         24    2    3    3    0    0  0.20853773513E+03  0.81970053915E+02 -0.20072659945E+03  0.31111158665E+03  0.79323230575E+02 0.  0.
         -6    2    1    2    0  502 -0.37047136234E+03 -0.22990344475E+03 -0.15626000843E+03  0.49397256851E+03  0.17171803629E+03 0.  0.
        -24    2    5    5    0    0 -0.15740891272E+03 -0.13020600921E+03 -0.15666218449E+02  0.21988519216E+03  0.79830424619E+02 0.  0.
          5    1    3    3  501    0  0.16193362721E+03  0.14793339083E+03 -0.33162469584E+03  0.39762270638E+03  0.47000000000E+01 0. -1.
        -13    1    4    4    0    0  0.20495489241E+03  0.82038712769E+02 -0.20780185557E+03  0.30318058891E+03  0.00000000000E+00 0.  1.
         14    1    4    4    0    0  0.35828427245E+01 -0.68658854756E-01  0.70752561179E+01  0.79309977405E+01  0.00000000000E+00 0. -1.
         -5    1    5    5    0  502 -0.21306244962E+03 -0.99697435534E+02 -0.14059378998E+03  0.27408737635E+03  0.47000000000E+01 0.  1.
         11    1    6    6    0    0 -0.69703448029E+02 -0.23466291583E+02 -0.33074193209E+02  0.80642047123E+02  0.00000000000E+00 0. -1.
        -12    1    6    6    0    0 -0.87705464688E+02 -0.10673971763E+03  0.17407974759E+02  0.13924314504E+03  0.00000000000E+00 0.  1.
</event>
<event>
12    1  0.1046899E+000  0.2058796E+03  0.7818608E-02  0.1147160E+00
         21   -1    0    0  501  502  0.00000000000E+00  0.00000000000E+00  0.56469268049E+03  0.56469268049E+03  0.00000000000E+00 0. -1.
         21   -1    0    0  502  503 -0.00000000000E+00 -0.00000000000E+00 -0.77108152743E+02  0.77108152743E+02  0.00000000000E+00 0. -1.
         -6    2    1    2    0  503 -0.95306163569E+01  0.89694927845E+02  0.16056718454E+03  0.26109046052E+03  0.18506862267E+03 0.  0.
        -24    2    3    3    0    0 -0.74382470631E+02  0.51624576464E+02  0.56199775938E+02  0.13236687824E+03  0.78515774263E+02 0.  0.
          6    2    1    2  501    0  0.95306163569E+01 -0.89694927845E+02  0.32701734321E+03  0.38071037271E+03  0.17281213036E+03 0.  0.
         24    2    5    5    0    0 -0.96961782105E+01  0.38943602038E+01  0.23320945021E+03  0.24673039191E+03  0.79875257180E+02 0.  0.
          5    1    5    5  501    0  0.19226794567E+02 -0.93589288049E+02  0.93807892994E+02  0.13397998080E+03  0.47000000000E+01 0. -1.
        -13    1    6    6    0    0  0.31343675724E+02 -0.15663798453E+02  0.10601254754E+03  0.11165321682E+03  0.00000000000E+00 0.  1.
         14    1    6    6    0    0 -0.41039853934E+02  0.19558158657E+02  0.12719690267E+03  0.13507717509E+03  0.00000000000E+00 0. -1.
         -5    1    3    3    0  503  0.64851854275E+02  0.38070351381E+02  0.10436740860E+03  0.12872358228E+03  0.47000000000E+01 0.  1.
         11    1    4    4    0    0 -0.32626335690E+01  0.32384404209E+02  0.48334338877E+02  0.58271800456E+02  0.00000000000E+00 0. -1.
        -12    1    4    4    0    0 -0.71119837062E+02  0.19240172255E+02  0.78654370617E+01  0.74095077788E+02  0.00000000000E+00 0.  1.
</event>
<event>
12    1  0.1046899E+000  0.2075033E+03  0.7818608E-02  0.1144335E+00
         21   -1    0    0  501  502  0.00000000000E+00  0.00000000000E+00  0.20433244932E+03  0.20433244932E+03  0.00000000000E+00 0.  1.
         21   -1    0    0  502  503 -0.00000000000E+00 -0.00000000000E+00 -0.44158465620E+03  0.44158465620E+03  0.00000000000E+00 0.  1.
         -6    2    1    2    0  503 -0.70567757959E+02  0.89032293528E+02 -0.35460152893E+03  0.41085263108E+03  0.17364067033E+03 0.  0.
        -24    2    3    3    0    0 -0.92610330569E+02  0.11399798613E+02 -0.25102988126E+03  0.27946825044E+03  0.79874107093E+02 0.  0.
          6    2    1    2  501    0  0.70567757959E+02 -0.89032293528E+02  0.11734932205E+03  0.23506447445E+03  0.16904995122E+03 0.  0.
         24    2    5    5    0    0  0.39273314020E+02 -0.94938937098E+02  0.22201922211E+02  0.13461872613E+03  0.84103989820E+02 0.  0.
          5    1    5    5  501    0  0.31294443939E+02  0.59066435697E+01  0.95147399838E+02  0.10044574832E+03  0.47000000000E+01 0. -1.
        -11    1    6    6    0    0  0.43097175903E+02 -0.62871945895E+02  0.50701656476E+02  0.91547288986E+02  0.00000000000E+00 0.  1.
         12    1    6    6    0    0 -0.38238618825E+01 -0.32066991203E+02 -0.28499734264E+02  0.43071437144E+02  0.00000000000E+00 0. -1.
         -5    1    3    3    0  503  0.22042572611E+02  0.77632494915E+02 -0.10357164767E+03  0.13138438063E+03  0.47000000000E+01 0.  1.
         13    1    4    4    0    0 -0.40760558787E+02  0.80589132449E+01 -0.27138711605E+02  0.49627400726E+02  0.00000000000E+00 0. -1.
        -14    1    4    4    0    0 -0.51849771783E+02  0.33408853682E+01 -0.22389116965E+03  0.22984084972E+03  0.00000000000E+00 0.  1.
</event>
<event>
12    1  0.1046899E+000  0.2083482E+03  0.7818608E-02  0.1143193E+00
         21   -1    0    0  503  502  0.00000000000E+00  0.00000000000E+00  0.21702808727E+03  0.21702808727E+03  0.00000000000E+00 0.  1.
         21   -1    0    0  501  503 -0.00000000000E+00 -0.00000000000E+00 -0.59347296824E+03  0.59347296824E+03  0.00000000000E+00 0.  1.
          6    2    1    2  501    0  0.10413235246E+03  0.47729333816E+02  0.14260442166E+03  0.25119688119E+03  0.17216914911E+03 0.  0.
         24    2    3    3    0    0  0.36766670103E+02 -0.22394890043E+01 -0.10120744396E+02  0.76892306491E+02  0.66732255986E+02 0.  0.
         -6    2    1    2    0  502 -0.10413235246E+03 -0.47729333816E+02 -0.51904930263E+03  0.55930417432E+03  0.17403259669E+03 0.  0.
        -24    2    5    5    0    0 -0.31812438863E+02 -0.14853139918E+02 -0.43510174605E+03  0.44363094369E+03  0.79134301996E+02 0.  0.
          5    1    3    3  501    0  0.67365682356E+02  0.49968822821E+02  0.15272516606E+03  0.17430457470E+03  0.47000000000E+01 0. -1.
        -13    1    4    4    0    0 -0.14904211648E+02  0.25535716259E+01  0.13132401995E+02  0.20027886435E+02  0.00000000000E+00 0.  1.
         14    1    4    4    0    0  0.51670881751E+02 -0.47930606303E+01 -0.23253146392E+02  0.56864420056E+02  0.00000000000E+00 0. -1.
         -5    1    5    5    0  502 -0.72319913597E+02 -0.32876193898E+02 -0.83947556583E+02  0.11567323063E+03  0.47000000000E+01 0.  1.
         13    1    6    6    0    0  0.14542638405E+02 -0.20086193668E+02 -0.29343997222E+03  0.29448592632E+03  0.00000000000E+00 0. -1.
        -14    1    6    6    0    0 -0.46355077268E+02  0.52330537494E+01 -0.14166177383E+03  0.14914501737E+03  0.00000000000E+00 0.  1.
</event>
<event>
12    1  0.1046899E+000  0.1934079E+03  0.7818608E-02  0.1155870E+00
         21   -1    0    0  501  502  0.00000000000E+00  0.00000000000E+00  0.29149428941E+03  0.29149428941E+03  0.00000000000E+00 0. -1.
         21   -1    0    0  502  503 -0.00000000000E+00 -0.00000000000E+00 -0.12701435349E+03  0.12701435349E+03  0.00000000000E+00 0. -1.
         -6    2    1    2    0  503 -0.33757300563E+02 -0.77285586005E+02  0.85387954863E+02  0.21141833650E+03  0.17405169642E+03 0.  0.
        -24    2    3    3    0    0 -0.39023285162E+02 -0.51603607842E+02 -0.15594906559E+02  0.10698212201E+03  0.83762904626E+02 0.  0.
          6    2    1    2  501    0  0.33757300563E+02  0.77285586005E+02  0.79091981048E+02  0.20709030640E+03  0.17180872037E+03 0.  0.
         24    2    5    5    0    0 -0.28404736257E+02  0.26785613287E+02  0.88716458022E+02  0.12628754269E+03  0.80954526707E+02 0.  0.
          5    1    5    5  501    0  0.62162036819E+02  0.50499972718E+02 -0.96244769746E+01  0.80802763710E+02  0.47000000000E+01 0. -1.
        -13    1    6    6    0    0 -0.30281544737E+02  0.21892562429E+02 -0.49973395602E-01  0.37366545715E+02  0.00000000000E+00 0.  1.
         14    1    6    6    0    0  0.18768084799E+01  0.48930508577E+01  0.88766431418E+02  0.88920996977E+02  0.00000000000E+00 0. -1.
         -5    1    3    3    0  503  0.52659845997E+01 -0.25681978163E+02  0.10098286142E+03  0.10443621449E+03  0.47000000000E+01 0.  1.
         13    1    4    4    0    0 -0.42021859107E+02 -0.72978926532E+02 -0.11192467328E+02  0.84953114631E+02  0.00000000000E+00 0. -1.
        -14    1    4    4    0    0  0.29985739450E+01  0.21375318690E+02 -0.44024392305E+01  0.22029007376E+02  0.00000000000E+00 0.  1.
</event>
<event>
12    1  0.1046899E+000  0.1783710E+03  0.7818608E-02  0.1169780E+00
         21   -1    0    0  501  502  0.00000000000E+00  0.00000000000E+00  0.94096047768E+02  0.94096047768E+02  0.00000000000E+00 0. -1.
         21   -1    0    0  502  503 -0.00000000000E+00 -0.00000000000E+00 -0.36989564872E+03  0.36989564872E+03  0.00000000000E+00 0. -1.
         -6    2    1    2    0  503 -0.31363864387E+01  0.46546276681E+02 -0.67324346902E+02  0.19065352989E+03  0.17216215606E+03 0.  0.
        -24    2    3    3    0    0 -0.13453996183E+02 -0.40823918767E+02 -0.32054866045E+02  0.95753422388E+02  0.79332219842E+02 0.  0.
          6    2    1    2  501    0  0.31363864387E+01 -0.46546276681E+02 -0.20847525405E+03  0.27333816660E+03  0.17051518694E+03 0.  0.
         24    2    5    5    0    0 -0.50681792279E+02 -0.41177319146E+02 -0.18788973374E+03  0.21527720112E+03  0.82325607194E+02 0.  0.
          5    1    5    5  501    0  0.53818178718E+02 -0.53689575350E+01 -0.20585520313E+02  0.58060965477E+02  0.47000000000E+01 0. -1.
        -13    1    6    6    0    0 -0.44869218557E+02  0.89103629712E+01 -0.46782399916E+02  0.65431141547E+02  0.00000000000E+00 0.  1.
         14    1    6    6    0    0 -0.58125737215E+01 -0.50087682117E+02 -0.14110733382E+03  0.14984605958E+03  0.00000000000E+00 0. -1.
         -5    1    3    3    0  503  0.10317609744E+02  0.87370195448E+02 -0.35269480857E+02  0.94900107499E+02  0.47000000000E+01 0.  1.
         13    1    4    4    0    0  0.11690918998E+02 -0.19600738663E+02 -0.52339606991E+02  0.57099045554E+02  0.00000000000E+00 0. -1.
        -14    1    4    4    0    0 -0.25144915181E+02 -0.21223180104E+02  0.20284740946E+02  0.38654376834E+02  0.00000000000E+00 0.  1.
</event>
<event>
12    1  0.1046899E+000  0.1905330E+03  0.7818608E-02  0.1158412E+00
         21   -1    0    0  503  502  0.00000000000E+00  0.00000000000E+00  0.33577579178E+03  0.33577579178E+03  0.00000000000E+00 0.  1.
         21   -1    0    0  501  503 -0.00000000000E+00 -0.00000000000E+00 -0.11665597385E+03  0.11665597385E+03  0.00000000000E+00 0.  1.
          6    2    1    2  501    0 -0.27979755982E+02 -0.71888499808E+02  0.45108186986E+02  0.19579984460E+03  0.17421827534E+03 0.  0.
         24    2    3    3    0    0 -0.69712041332E+02 -0.26857835812E+01  0.68559671531E+01  0.10626816364E+03  0.79868242611E+02 0.  0.
         -6    2    1    2    0  502  0.27979755982E+02  0.71888499808E+02  0.17401163095E+03  0.25663192103E+03  0.17213097349E+03 0.  0.
        -24    2    5    5    0    0 -0.13989857155E+02  0.96256271799E+02  0.77305322109E+02  0.14832939609E+03  0.81021669658E+02 0.  0.
          5    1    3    3  501    0  0.41732285350E+02 -0.69202716227E+02  0.38252219833E+02  0.89531680962E+02  0.47000000000E+01 0. -1.
        -11    1    4    4    0    0 -0.54571262703E+02 -0.27351571213E+02 -0.22488111030E+02  0.65052642517E+02  0.00000000000E+00 0.  1.
         12    1    4    4    0    0 -0.15140778629E+02  0.24665787632E+02  0.29344078183E+02  0.41215521123E+02  0.00000000000E+00 0. -1.
         -5    1    5    5    0  502  0.41969613137E+02 -0.24367771991E+02  0.96706308837E+02  0.10830252494E+03  0.47000000000E+01 0.  1.
         13    1    6    6    0    0  0.20767430207E+02  0.69178928526E+02  0.17981050219E+02  0.74433382809E+02  0.00000000000E+00 0. -1.
        -14    1    6    6    0    0 -0.34757287363E+02  0.27077343273E+02  0.59324271890E+02  0.73896013281E+02  0.00000000000E+00 0.  1.
</event>
<event>
12    1  0.1046899E+000  0.2060174E+03  0.7818608E-02  0.1147329E+00
         21   -1    0    0  503  502  0.00000000000E+00  0.00000000000E+00  0.63456441621E+03  0.63456441621E+03  0.00000000000E+00 0. -1.
         21   -1    0    0  501  503 -0.00000000000E+00 -0.00000000000E+00 -0.63003080761E+02  0.63003080761E+02  0.00000000000E+00 0. -1.
          6    2    1    2  501    0 -0.72343479416E+02 -0.43240776139E+02  0.30292064831E+03  0.36633874685E+03  0.18798886813E+03 0.  0.
         24    2    3    3    0    0 -0.11880460256E+03 -0.25979094948E+02  0.26332577444E+03  0.30272706838E+03  0.86681990554E+02 0.  0.
         -6    2    1    2    0  502  0.72343479416E+02  0.43240776139E+02  0.26864068714E+03  0.33122875011E+03  0.17447441755E+03 0.  0.
        -24    2    5    5    0    0  0.10078820244E+03  0.66882775648E+02  0.15789009122E+03  0.21437058435E+03  0.79961860290E+02 0.  0.
          5    1    3    3  501    0  0.46461123141E+02 -0.17261681192E+02  0.39594873870E+02  0.63611678471E+02  0.47000000000E+01 0. -1.
        -13    1    4    4    0    0 -0.38121622895E+02 -0.51389722982E+02  0.12876670636E+03  0.14378813034E+03  0.00000000000E+00 0.  1.
         14    1    4    4    0    0 -0.80682979662E+02  0.25410628035E+02  0.13455906808E+03  0.15893893805E+03  0.00000000000E+00 0. -1.
         -5    1    5    5    0  502 -0.28444723022E+02 -0.23641999509E+02  0.11075059592E+03  0.11685816576E+03  0.47000000000E+01 0.  1.
         11    1    6    6    0    0 -0.29587667673E+01  0.91733425621E+01 -0.64776938216E+01  0.11613140479E+02  0.00000000000E+00 0. -1.
        -12    1    6    6    0    0  0.10374696921E+03  0.57709433086E+02  0.16436778504E+03  0.20275744387E+03  0.00000000000E+00 0.  1.
</event>
<event>
12    1  0.1046899E+000  0.2213086E+03  0.7818608E-02  0.1133060E+00
         21   -1    0    0  501  502  0.00000000000E+00  0.00000000000E+00  0.12757489924E+04  0.12757489924E+04  0.00000000000E+00 0. -1.
         21   -1    0    0  502  503 -0.00000000000E+00 -0.00000000000E+00 -0.46160638569E+02  0.46160638569E+02  0.00000000000E+00 0. -1.
         -6    2    1    2    0  503 -0.74517458310E+01 -0.13827467319E+03  0.88929640384E+03  0.91641999128E+03  0.17263282648E+03 0.  0.
        -24    2    3    3    0    0  0.17589498261E+02 -0.78630790194E+01  0.23811692922E+03  0.25182158174E+03  0.79644325527E+02 0.  0.
          6    2    1    2  501    0  0.74517458310E+01  0.13827467319E+03  0.34029194997E+03  0.40548963966E+03  0.17160367974E+03 0.  0.
         24    2    5    5    0    0 -0.39166046679E+02  0.12639806280E+03  0.19080883102E+03  0.24838596274E+03  0.88188020721E+02 0.  0.
          5    1    5    5  501    0  0.46617792510E+02  0.11876610388E+02  0.14948311895E+03  0.15710367692E+03  0.47000000000E+01 0. -1.
        -11    1    6    6    0    0 -0.67577727040E+02  0.91808428033E+02  0.14326974133E+03  0.18308947383E+03  0.00000000000E+00 0.  1.
         12    1    6    6    0    0  0.28411680361E+02  0.34589634768E+02  0.47539089698E+02  0.65296488908E+02  0.00000000000E+00 0. -1.
         -5    1    3    3    0  503 -0.25041244092E+02 -0.13041159417E+03  0.65117947461E+03  0.66459840954E+03  0.47000000000E+01 0.  1.
         13    1    4    4    0    0 -0.42821665635E+01 -0.69950600438E+01 -0.37130307915E+01  0.90030224454E+01  0.00000000000E+00 0. -1.
        -14    1    4    4    0    0  0.21871664824E+02 -0.86801897555E+00  0.24182996002E+03  0.24281855930E+03  0.00000000000E+00 0.  1.
</event>
<event>
12    1  0.1046899E+000  0.1862390E+03  0.7818608E-02  0.1162214E+00
         21   -1    0    0  501  502  0.00000000000E+00  0.00000000000E+00  0.18993106375E+03  0.18993106375E+03  0.00000000000E+00 0.  1.
         21   -1    0    0  502  503 -0.00000000000E+00 -0.00000000000E+00 -0.32338549128E+03  0.32338549128E+03  0.00000000000E+00 0.  1.
         -6    2    1    2    0  503  0.60090772266E+02 -0.39035129887E+02  0.10354337932E+03  0.21189835360E+03  0.17042605018E+03 0.  0.
        -24    2    3    3    0    0  0.10503206644E+03 -0.14200706723E+02  0.68842538273E+02  0.14974767488E+03  0.80322325687E+02 0.  0.
          6    2    1    2  501    0 -0.60090772266E+02  0.39035129887E+02 -0.23699780684E+03  0.30141820143E+03  0.17190209257E+03 0.  0.
         24    2    5    5    0    0 -0.65671755312E+02  0.71051215722E+02 -0.10145700009E+03  0.16195645966E+03  0.81088329963E+02 0.  0.
          5    1    5    5  501    0  0.55809830469E+01 -0.32016085835E+02 -0.13554080676E+03  0.13946174178E+03  0.47000000000E+01 0. -1.
        -13    1    6    6    0    0 -0.13483378273E+02 -0.11267209491E+02  0.43467985109E+01  0.18100998775E+02  0.00000000000E+00 0.  1.
         14    1    6    6    0    0 -0.52188377040E+02  0.82318425213E+02 -0.10580379860E+03  0.14385546088E+03  0.00000000000E+00 0. -1.
         -5    1    3    3    0  503 -0.44941294172E+02 -0.24834423164E+02  0.34700841047E+02  0.62150678718E+02  0.47000000000E+01 0.  1.
         13    1    4    4    0    0  0.92571463141E+02 -0.27333070208E+02  0.21257646973E+02  0.98835520284E+02  0.00000000000E+00 0. -1.
        -14    1    4    4    0    0  0.12460603297E+02  0.13132363486E+02  0.47584891300E+02  0.50912154593E+02  0.00000000000E+00 0.  1.
</event>
<event>
12    1  0.1046899E+000  0.1863778E+03  0.7818608E-02  0.1162107E+00
         21   -1    0    0  503  502  0.00000000000E+00  0.00000000000E+00  0.12842077083E+04  0.12842077083E+04  0.00000000000E+00 0. -1.
         21   -1    0    0  501  503 -0.00000000000E+00 -0.00000000000E+00 -0.27234797385E+02  0.27234797385E+02  0.00000000000E+00 0. -1.
          6    2    1    2  501    0 -0.68465857556E+02 -0.43770531459E+00  0.55182212089E+03  0.58244686818E+03  0.17334628901E+03 0.  0.
         24    2    3    3    0    0 -0.74445139647E+02  0.14145330308E+02  0.55489054878E+03  0.56571599874E+03  0.79930600704E+02 0.  0.
         -6    2    1    2    0  502  0.68465857556E+02  0.43770531459E+00  0.70515079004E+03  0.72899563752E+03  0.17178252993E+03 0.  0.
        -24    2    5    5    0    0  0.58779767949E+02 -0.38645755612E+02  0.23899837657E+03  0.26108378702E+03  0.78076656540E+02 0.  0.
          5    1    3    3  501    0  0.59792820911E+01 -0.14583035623E+02 -0.30684278879E+01  0.16730869433E+02  0.47000000000E+01 0. -1.
        -13    1    4    4    0    0 -0.33637853919E+02  0.31650293686E+02  0.12027983053E+03  0.12884286530E+03  0.00000000000E+00 0.  1.
         14    1    4    4    0    0 -0.40807285729E+02 -0.17504963378E+02  0.43461071824E+03  0.43687313344E+03  0.00000000000E+00 0. -1.
         -5    1    5    5    0  502  0.96860896069E+01  0.39083460927E+02  0.46615241347E+03  0.46791185050E+03  0.47000000000E+01 0.  1.
         13    1    6    6    0    0  0.74861337448E+01 -0.50670175542E+02  0.98278037270E+02  0.11082455277E+03  0.00000000000E+00 0. -1.
        -14    1    6    6    0    0  0.51293634205E+02  0.12024419930E+02  0.14072033930E+03  0.15025923425E+03  0.00000000000E+00 0.  1.
</event>
<event>
12    1  0.1046899E+000  0.1741845E+03  0.7818608E-02  0.1173901E+00
         21   -1    0    0  503  502  0.00000000000E+00  0.00000000000E+00  0.79580804380E+03  0.79580804380E+03  0.00000000000E+00 0.  1.
         21   -1    0    0  501  503 -0.00000000000E+00 -0.00000000000E+00 -0.37859329211E+02  0.37859329211E+02  0.00000000000E+00 0.  1.
          6    2    1    2  501    0  0.10316998155E+02  0.21906716575E+02  0.39290073315E+03  0.42978045660E+03  0.17249321749E+03 0.  0.
         24    2    3    3    0    0 -0.55085254930E+01  0.33355438317E+01  0.72094438948E+02  0.10801329846E+03  0.80173529368E+02 0.  0.
         -6    2    1    2    0  502 -0.10316998155E+02 -0.21906716575E+02  0.36504798143E+03  0.40388691641E+03  0.17110893552E+03 0.  0.
        -24    2    5    5    0    0 -0.25358069923E+02  0.43819048989E+02  0.99455768468E+02  0.12982957991E+03  0.66341006736E+02 0.  0.
          5    1    3    3  501    0  0.15825523648E+02  0.18571172743E+02  0.32080629421E+03  0.32176715814E+03  0.47000000000E+01 0. -1.
        -13    1    4    4    0    0 -0.33704752809E+02  0.54608043612E+01  0.72056705128E+02  0.79737064782E+02  0.00000000000E+00 0.  1.
         14    1    4    4    0    0  0.28196227316E+02 -0.21252605295E+01  0.37733820204E-01  0.28276233678E+02  0.00000000000E+00 0. -1.
         -5    1    5    5    0  502  0.15041071768E+02 -0.65725765564E+02  0.26559221297E+03  0.27405733650E+03  0.47000000000E+01 0.  1.
         13    1    6    6    0    0  0.11975396558E+02  0.44062999991E+02  0.61410143416E+02  0.76525576152E+02  0.00000000000E+00 0. -1.
        -14    1    6    6    0    0 -0.37333466481E+02 -0.24395100276E+00  0.38045625052E+02  0.53304003763E+02  0.00000000000E+00 0.  1.
</event>
<event>
12    1  0.1046899E+000  0.2712402E+03  0.7818608E-02  0.1100680E+00
         21   -1    0    0  501  502  0.00000000000E+00  0.00000000000E+00  0.24269280909E+04  0.24269280909E+04  0.00000000000E+00 0.  1.
         21   -1    0    0  502  503 -0.00000000000E+00 -0.00000000000E+00 -0.10711184320E+03  0.10711184320E+03  0.00000000000E+00 0.  1.
         -6    2    1    2    0  503  0.35308738132E+02  0.20622492205E+03  0.22338087354E+04  0.22502161464E+04  0.17261463995E+03 0.  0.
        -24    2    3    3    0    0  0.73676345977E+02  0.14521818487E+03  0.11702096338E+04  0.11841678200E+04  0.79663754668E+02 0.  0.
          6    2    1    2  501    0 -0.35308738132E+02 -0.20622492205E+03  0.86007512289E+02  0.28382378764E+03  0.17141535754E+03 0.  0.
         24    2    5    5    0    0 -0.50948184615E+02 -0.39115353458E+02  0.23098916046E+02  0.10452018566E+03  0.79152895697E+02 0.  0.
          5    1    5    5  501    0  0.15639446483E+02 -0.16710956859E+03  0.62908596244E+02  0.17930360198E+03  0.47000000000E+01 0. -1.
        -11    1    6    6    0    0 -0.72161221720E+02 -0.28984786898E+02  0.12618549167E+02  0.78781898776E+02  0.00000000000E+00 0.  1.
         12    1    6    6    0    0  0.21213037105E+02 -0.10130566560E+02  0.10480366879E+02  0.25738286889E+02  0.00000000000E+00 0. -1.
         -5    1    3    3    0  503 -0.38367607845E+02  0.61006737178E+02  0.10635991016E+04  0.10660483264E+04  0.47000000000E+01 0.  1.
         11    1    4    4    0    0  0.39615900142E+02  0.12061515801E+02  0.19741712742E+03  0.20171371274E+03  0.00000000000E+00 0. -1.
        -12    1    4    4    0    0  0.34060445834E+02  0.13315666907E+03  0.97279250638E+03  0.98245410731E+03  0.00000000000E+00 0.  1.
</event>
<event>
12    1  0.1046899E+000  0.1993044E+03  0.7818608E-02  0.1152459E+00
         21   -1    0    0  503  502  0.00000000000E+00  0.00000000000E+00  0.11167055200E+04  0.11167055200E+04  0.00000000000E+00 0. -1.
         21   -1    0    0  501  503 -0.00000000000E+00 -0.00000000000E+00 -0.40838991243E+02  0.40838991243E+02  0.00000000000E+00 0. -1.
          6    2    1    2  501    0 -0.41332009975E+02  0.69350739628E+02  0.78861367884E+03  0.81340875040E+03  0.18222074702E+03 0.  0.
         24    2    3    3    0    0  0.13219791085E+02  0.18715966555E+02  0.15853887897E+03  0.17893564406E+03  0.79739189171E+02 0.  0.
         -6    2    1    2    0  502  0.41332009975E+02 -0.69350739628E+02  0.28725284994E+03  0.34413576086E+03  0.17145658917E+03 0.  0.
        -24    2    5    5    0    0 -0.30074359723E+02  0.32231357971E+01  0.11535992651E+03  0.14429806634E+03  0.81235236119E+02 0.  0.
          5    1    3    3  501    0 -0.54551801059E+02  0.50634773072E+02  0.63007479987E+03  0.63447310634E+03  0.47000000000E+01 0. -1.
        -11    1    4    4    0    0 -0.32344407241E+02  0.99287552973E+01  0.45161996651E+02  0.56430016862E+02  0.00000000000E+00 0.  1.
         12    1    4    4    0    0  0.45564198326E+02  0.87872112582E+01  0.11337688232E+03  0.12250562720E+03  0.00000000000E+00 0. -1.
         -5    1    5    5    0  502  0.71406369697E+02 -0.72573875425E+02  0.17189292343E+03  0.19983769452E+03  0.47000000000E+01 0.  1.
         11    1    6    6    0    0 -0.54981268449E+02 -0.59189648176E+01  0.98203080617E+02  0.11270234721E+03  0.00000000000E+00 0. -1.
        -12    1    6    6    0    0  0.24906908726E+02  0.91421006147E+01  0.17156845893E+02  0.31595719124E+02  0.00000000000E+00 0.  1.
</event>
<event>
12    1  0.1046899E+000  0.2095758E+03  0.7818608E-02  0.1142369E+00
         21   -1    0    0  503  502  0.00000000000E+00  0.00000000000E+00  0.39036891639E+03  0.39036891639E+03  0.00000000000E+00 0. -1.
         21   -1    0    0  501  503 -0.00000000000E+00 -0.00000000000E+00 -0.22110570337E+03  0.22110570337E+03  0.00000000000E+00 0. -1.
          6    2    1    2  501    0  0.62788959361E+02 -0.10203573671E+03  0.30036154322E+03  0.36625001005E+03  0.17195426204E+03 0.  0.
         24    2    3    3    0    0  0.36130568210E+02  0.71699138751E+01  0.18878537164E+03  0.20779536038E+03  0.78626774223E+02 0.  0.
         -6    2    1    2    0  502 -0.62788959361E+02  0.10203573671E+03 -0.13109833020E+03  0.24522460970E+03  0.16909935551E+03 0.  0.
        -24    2    5    5    0    0 -0.21095515909E+02  0.12890915132E+03 -0.76773388073E+02  0.17151020827E+03  0.80367955927E+02 0.  0.
          5    1    3    3  501    0  0.26658391152E+02 -0.10920565059E+03  0.11157617158E+03  0.15845464968E+03  0.47000000000E+01 0. -1.
        -13    1    4    4    0    0  0.32066469876E+02 -0.27371056922E+02  0.14948150514E+03  0.15531308260E+03  0.00000000000E+00 0.  1.
         14    1    4    4    0    0  0.40640983338E+01  0.34540970797E+02  0.39303866498E+02  0.52482277776E+02  0.00000000000E+00 0. -1.
         -5    1    5    5    0  502 -0.41693443452E+02 -0.26873414610E+02 -0.54324942131E+02  0.73714401424E+02  0.47000000000E+01 0.  1.
         13    1    6    6    0    0 -0.20949444430E+02  0.12240342938E+02  0.98633195354E+01  0.26191416331E+02  0.00000000000E+00 0. -1.
        -14    1    6    6    0    0 -0.14607147962E+00  0.11666880838E+03 -0.86636707609E+02  0.14531879194E+03  0.00000000000E+00 0.  1.
</event>
<event>
12    1  0.1046899E+000  0.1951265E+03  0.7818608E-02  0.1154972E+00
         21   -1    0    0  501  502  0.00000000000E+00  0.00000000000E+00  0.83847724927E+02  0.83847724927E+02  0.00000000000E+00 0. -1.
         21   -1    0    0  502  503 -0.00000000000E+00 -0.00000000000E+00 -0.46743667060E+03  0.46743667060E+03  0.00000000000E+00 0. -1.
         -6    2    1    2    0  503 -0.54300565818E+02 -0.61248572096E+02 -0.13107388012E+03  0.23506322893E+03  0.17712826006E+03 0.  0.
        -24    2    3    3    0    0 -0.27187272223E+01  0.18991438159E+02 -0.10891610674E+03  0.13702138970E+03  0.80895467889E+02 0.  0.
          6    2    1    2  501    0  0.54300565818E+02  0.61248572096E+02 -0.25251506555E+03  0.31622116660E+03  0.17184885465E+03 0.  0.
         24    2    5    5    0    0  0.31268962658E+02  0.85825947560E+02 -0.25468366705E+03  0.28214338848E+03  0.79982998840E+02 0.  0.
          5    1    5    5  501    0  0.23031603160E+02 -0.24577375464E+02  0.21686014975E+01  0.34077778115E+02  0.47000000000E+01 0. -1.
        -13    1    6    6    0    0  0.19830357323E+02  0.10119425123E+02 -0.15427434050E+03  0.15587244135E+03  0.00000000000E+00 0.  1.
         14    1    6    6    0    0  0.11438605335E+02  0.75706522437E+02 -0.10040932655E+03  0.12627094713E+03  0.00000000000E+00 0. -1.
         -5    1    3    3    0  503 -0.51581838596E+02 -0.80240010255E+02 -0.22157773378E+02  0.98041839231E+02  0.47000000000E+01 0.  1.
         11    1    4    4    0    0 -0.81105697461E+00  0.15200488895E+01 -0.11746475340E+03  0.11747738784E+03  0.00000000000E+00 0. -1.
        -12    1    4    4    0    0 -0.19076702477E+01  0.17471389270E+02  0.85486466594E+01  0.19544001855E+02  0.00000000000E+00 0.  1.
</event>
<event>
12    1  0.1046899E+000  0.1975950E+03  0.7818608E-02  0.1152098E+00
         21   -1    0    0  501  502  0.00000000000E+00  0.00000000000E+00  0.87364886054E+02  0.87364886054E+02  0.00000000000E+00 0. -1.
         21   -1    0    0  502  503 -0.00000000000E+00 -0.00000000000E+00 -0.44620056398E+03  0.44620056398E+03  0.00000000000E+00 0. -1.
         -6    2    1    2    0  503  0.28626263388E+02  0.90807785795E+02 -0.20042404216E+03  0.28144906898E+03  0.17314232537E+03 0.  0.
        -24    2    3    3    0    0  0.21017230418E+01  0.47145206565E+01 -0.45248259861E+01  0.65777572386E+02  0.65418430385E+02 0.  0.
          6    2    1    2  501    0 -0.28626263388E+02 -0.90807785795E+02 -0.15841163577E+03  0.25211638106E+03  0.17147275684E+03 0.  0.
         24    2    5    5    0    0 -0.47752593886E+01 -0.96983606538E+02 -0.18091655980E+03  0.21841812058E+03  0.74478525414E+02 0.  0.
          5    1    5    5  501    0 -0.23851003999E+02  0.61758207437E+01  0.22504924035E+02  0.33698260481E+02  0.47000000000E+01 0. -1.
        -13    1    6    6    0    0 -0.27263332962E+02 -0.86850939490E+02 -0.10693499103E+03  0.14043314182E+03  0.00000000000E+00 0.  1.
         14    1    6    6    0    0  0.22488073573E+02 -0.10132667048E+02 -0.73981568769E+02  0.77984978759E+02  0.00000000000E+00 0. -1.
         -5    1    3    3    0  503  0.26524540346E+02  0.86093265138E+02 -0.19589921618E+03  0.21567149659E+03  0.47000000000E+01 0.  1.
         11    1    4    4    0    0 -0.88984381875E+01 -0.28172355916E+02 -0.88250510557E+01  0.30834159080E+02  0.00000000000E+00 0. -1.
        -12    1    4    4    0    0  0.11000161229E+02  0.32886876573E+02  0.43002250695E+01  0.34943413306E+02  0.00000000000E+00 0.  1.
</event>
<event>
12    1  0.1046899E+000  0.3782207E+03  0.7818608E-02  0.1051615E+00
         21   -1    0    0  503  502  0.00000000000E+00  0.00000000000E+00  0.16795297317E+03  0.16795297317E+03  0.00000000000E+00 0. -1.
         21   -1    0    0  501  503 -0.00000000000E+00 -0.00000000000E+00 -0.86692878650E+03  0.86692878650E+03  0.00000000000E+00 0.  1.
          6    2    1    2  501    0  0.74556597940E+01  0.33622392376E+03 -0.41907583515E+03  0.56435556838E+03  0.17254141006E+03 0.  0.
         24    2    3    3    0    0  0.72303660145E+01  0.11805822241E+03 -0.25015489160E+03  0.28839778325E+03  0.81276008283E+02 0.  0.
         -6    2    1    2    0  502 -0.74556597940E+01 -0.33622392376E+03 -0.27989997818E+03  0.47052619129E+03  0.17305717301E+03 0.  0.
        -24    2    5    5    0    0 -0.58414676801E+02 -0.11411042699E+03 -0.13722056092E+03  0.20161964066E+03  0.73399817067E+02 0.  0.
          5    1    3    3  501    0  0.22529377950E+00  0.21816570136E+03 -0.16892094355E+03  0.27595778513E+03  0.47000000000E+01 0. -1.
        -11    1    4    4    0    0  0.23941325211E+02  0.12129229312E+03 -0.19697154055E+03  0.23255707947E+03  0.00000000000E+00 0.  1.
         12    1    4    4    0    0 -0.16710959197E+02 -0.32340707082E+01 -0.53183351049E+02  0.55840703787E+02  0.00000000000E+00 0. -1.
         -5    1    5    5    0  502  0.50959017007E+02 -0.22211349677E+03 -0.14267941726E+03  0.26890655063E+03  0.47000000000E+01 0.  1.
         13    1    6    6    0    0 -0.31542106114E+02 -0.11358163709E+03 -0.12585122674E+03  0.17243614474E+03  0.00000000000E+00 0. -1.
        -14    1    6    6    0    0 -0.26872570688E+02 -0.52878990212E+00 -0.11369334184E+02  0.29183495916E+02  0.00000000000E+00 0.  1.
</event>
<event>
12    1  0.1046899E+000  0.1941243E+03  0.7818608E-02  0.1154981E+00
         21   -1    0    0  503  502  0.00000000000E+00  0.00000000000E+00  0.70725831381E+03  0.70725831381E+03  0.00000000000E+00 0.  1.
         21   -1    0    0  501  503 -0.00000000000E+00 -0.00000000000E+00 -0.67435828205E+02  0.67435828205E+02  0.00000000000E+00 0.  1.
          6    2    1    2  501    0  0.42999096966E+02  0.77592438855E+02  0.49938924969E+03  0.53579276043E+03  0.17266948344E+03 0.  0.
         24    2    3    3    0    0 -0.37635546788E+02  0.27210813747E+02  0.17275062270E+03  0.19556469491E+03  0.79031066583E+02 0.  0.
         -6    2    1    2    0  502 -0.42999096966E+02 -0.77592438855E+02  0.14043323591E+03  0.23890138159E+03  0.17170575840E+03 0.  0.
        -24    2    5    5    0    0 -0.60839968693E+02  0.16078570136E+02  0.77847854382E+02  0.12474545922E+03  0.74438692606E+02 0.  0.
          5    1    3    3  501    0  0.80634643754E+02  0.50381625109E+02  0.32663862700E+03  0.34022806552E+03  0.47000000000E+01 0. -1.
        -11    1    4    4    0    0  0.10149274982E+02 -0.11851356434E+02  0.95110422335E+02  0.96381818144E+02  0.00000000000E+00 0.  1.
         12    1    4    4    0    0 -0.47784821770E+02  0.39062170180E+02  0.77640200361E+02  0.99182876762E+02  0.00000000000E+00 0. -1.
         -5    1    5    5    0  502  0.17840871727E+02 -0.93671008992E+02  0.62585381530E+02  0.11415592236E+03  0.47000000000E+01 0.  1.
         11    1    6    6    0    0  0.15835683888E+02  0.60811337452E+00  0.27445915125E+02  0.31692537657E+02  0.00000000000E+00 0. -1.
        -12    1    6    6    0    0 -0.76675652581E+02  0.15470456762E+02  0.50401939257E+02  0.93052921567E+02  0.00000000000E+00 0.  1.
</event>
<event>
12    1  0.1046899E+000  0.2320378E+03  0.7818608E-02  0.1125256E+00
         21   -1    0    0  503  502  0.00000000000E+00  0.00000000000E+00  0.52632771649E+03  0.52632771649E+03  0.00000000000E+00 0.  1.
         21   -1    0    0  501  503 -0.00000000000E+00 -0.00000000000E+00 -0.16496765087E+03  0.16496765087E+03  0.00000000000E+00 0. -1.
          6    2    1    2  501    0 -0.13528713199E+03  0.76405538544E+02  0.39384694585E+03  0.45699439137E+03  0.17201175130E+03 0.  0.
         24    2    3    3    0    0 -0.99705472082E+02  0.10409307479E+03  0.22321659606E+03  0.28044564328E+03  0.89708197468E+02 0.  0.
         -6    2    1    2    0  502  0.13528713199E+03 -0.76405538544E+02 -0.32486880233E+02  0.23430097598E+03  0.17234017395E+03 0.  0.
        -24    2    5    5    0    0  0.17429533159E+02 -0.72076886062E+02 -0.38284788486E+02  0.11612798171E+03  0.80753433215E+02 0.  0.
          5    1    3    3  501    0 -0.35581659909E+02 -0.27687536242E+02  0.17063034979E+03  0.17654874810E+03  0.47000000000E+01 0. -1.
        -13    1    4    4    0    0 -0.93294011788E+02  0.35878609713E+02  0.14917844972E+03  0.17956964423E+03  0.00000000000E+00 0.  1.
         14    1    4    4    0    0 -0.64114602943E+01  0.68214465073E+02  0.74038146346E+02  0.10087599904E+03  0.00000000000E+00 0. -1.
         -5    1    5    5    0  502  0.11785759883E+03 -0.43286524820E+01  0.57979082529E+01  0.11817299427E+03  0.47000000000E+01 0.  1.
         13    1    6    6    0    0 -0.13494626194E+02 -0.32492272754E+02  0.18961794256E+02  0.39967516388E+02  0.00000000000E+00 0. -1.
        -14    1    6    6    0    0  0.30924159352E+02 -0.39584613308E+02 -0.57246582742E+02  0.76160465322E+02  0.00000000000E+00 0.  1.
</event>
<event>
12    1  0.1088262E+000  0.7407293E+03  0.7818608E-02  0.9650056E-01
         21   -1    0    0  501  502  0.00000000000E+00  0.00000000000E+00  0.42521666368E+03  0.42521666368E+03  0.00000000000E+00 0.  1.
         21   -1    0    0  502  503 -0.00000000000E+00 -0.00000000000E+00 -0.16769520656E+04  0.16769520656E+04  0.00000000000E+00 0.  1.
         -6    2    1    2    0  503  0.14228057833E+03  0.70661611006E+03 -0.12109913391E+03  0.75056303302E+03  0.17067447476E+03 0.  0.
        -24    2    3    3    0    0  0.10173871121E+03  0.66662895962E+03 -0.88289018583E+02  0.68467518241E+03  0.78995059571E+02 0.  0.
          6    2    1    2  501    0 -0.14228057833E+03 -0.70661611006E+03 -0.11306362680E+04  0.13516056962E+04  0.17014551913E+03 0.  0.
         24    2    5    5    0    0 -0.20157436481E+01 -0.32482056518E+03 -0.51063748998E+03  0.61007846366E+03  0.77023521497E+02 0.  0.
          5    1    5    5  501    0 -0.14026483468E+03 -0.38179554487E+03 -0.61999877799E+03  0.74152723257E+03  0.47000000000E+01 0. -1.
        -13    1    6    6    0    0 -0.24950262551E+01 -0.60921657855E+02 -0.16003101851E+03  0.17125303045E+03  0.00000000000E+00 0.  1.
         14    1    6    6    0    0  0.47928260696E+00 -0.26389890733E+03 -0.35060647147E+03  0.43882543322E+03  0.00000000000E+00 0. -1.
         -5    1    3    3    0  503  0.40541867124E+02  0.39987150432E+02 -0.32810115329E+02  0.65887850606E+02  0.47000000000E+01 0.  1.
         11    1    4    4    0    0  0.82827281425E+02  0.42408680560E+03 -0.22627735704E+02  0.43269156642E+03  0.00000000000E+00 0. -1.
        -12    1    4    4    0    0  0.18911429784E+02  0.24254215403E+03 -0.65661282879E+02  0.25198361599E+03  0.00000000000E+00 0.  1.
</event>
<event>
12    1  0.1046899E+000  0.2042822E+03  0.7818608E-02  0.1150534E+00
         21   -1    0    0  503  502  0.00000000000E+00  0.00000000000E+00  0.12393726537E+03  0.12393726537E+03  0.00000000000E+00 0. -1.
         21   -1    0    0  501  503 -0.00000000000E+00 -0.00000000000E+00 -0.30791255033E+03  0.30791255033E+03  0.00000000000E+00 0. -1.
          6    2    1    2  501    0 -0.55840521232E+02 -0.37305480942E+02 -0.64245653884E+02  0.19506633253E+03  0.17150366563E+03 0.  0.
         24    2    3    3    0    0  0.27071736940E+02 -0.14462844611E+02 -0.67890008880E+02  0.10885960476E+03  0.79368176413E+02 0.  0.
         -6    2    1    2    0  502  0.55840521232E+02  0.37305480942E+02 -0.11972963108E+03  0.23678348317E+03  0.19292840803E+03 0.  0.
        -24    2    5    5    0    0  0.91921944812E+01 -0.55977560875E+02 -0.72304113950E+02  0.12211412390E+03  0.80411383534E+02 0.  0.
          5    1    3    3  501    0 -0.82912258173E+02 -0.22842636331E+02  0.36443549963E+01  0.86206727772E+02  0.47000000000E+01 0. -1.
        -11    1    4    4    0    0 -0.11456843429E+01 -0.40106939623E+02 -0.13296459158E+02  0.42269078824E+02  0.00000000000E+00 0.  1.
         12    1    4    4    0    0  0.28217421283E+02  0.25644095012E+02 -0.54593549722E+02  0.66590525933E+02  0.00000000000E+00 0. -1.
         -5    1    5    5    0  502  0.46648326751E+02  0.93283041816E+02 -0.47425517127E+02  0.11466935926E+03  0.47000000000E+01 0.  1.
         11    1    6    6    0    0  0.29366733922E+02 -0.68369201830E+02 -0.50503011991E+02  0.89929455911E+02  0.00000000000E+00 0. -1.
        -12    1    6    6    0    0 -0.20174539441E+02  0.12391640956E+02 -0.21801101958E+02  0.32184667993E+02  0.00000000000E+00 0.  1.
</event>
<event>
12    1  0.1046899E+000  0.1741502E+03  0.7818608E-02  0.1174024E+00
         21   -1    0    0  503  502  0.00000000000E+00  0.00000000000E+00  0.50775020843E+03  0.50775020843E+03  0.00000000000E+00 0.  1.
         21   -1    0    0  501  503 -0.00000000000E+00 -0.00000000000E+00 -0.63825821221E+02  0.63825821221E+02  0.00000000000E+00 0.  1.
          6    2    1    2  501    0 -0.25805497983E+02 -0.65333166901E+01  0.14557483147E+03  0.22698085236E+03  0.17210365431E+03 0.  0.
         24    2    3    3    0    0 -0.58408773306E+02  0.25316100248E+02  0.21556009418E+02  0.94768458299E+02  0.66812494456E+02 0.  0.
         -6    2    1    2    0  502  0.25805497983E+02  0.65333166901E+01  0.29834955574E+03  0.34459517729E+03  0.17036657785E+03 0.  0.
        -24    2    5    5    0    0  0.38070512304E+02  0.71371087662E+02  0.20619826439E+03  0.23115657002E+03  0.66124424884E+02 0.  0.
          5    1    3    3  501    0  0.32603275323E+02 -0.31849416939E+02  0.12401882205E+03  0.13221239406E+03  0.47000000000E+01 0. -1.
        -13    1    4    4    0    0 -0.43948071461E+02  0.47328274771E+02  0.78012259452E+01  0.65055804539E+02  0.00000000000E+00 0.  1.
         14    1    4    4    0    0 -0.14460701845E+02 -0.22012174523E+02  0.13754783473E+02  0.29712653760E+02  0.00000000000E+00 0. -1.
         -5    1    5    5    0  502 -0.12265014320E+02 -0.64837770972E+02  0.92151291355E+02  0.11343860727E+03  0.47000000000E+01 0.  1.
         13    1    6    6    0    0  0.38761709900E+02  0.32124938366E+02  0.53369085699E+02  0.73367166551E+02  0.00000000000E+00 0. -1.
        -14    1    6    6    0    0 -0.69119759642E+00  0.39246149297E+02  0.15282917869E+03  0.15778940347E+03  0.00000000000E+00 0.  1.
</event>
<event>
12    1  0.1046899E+000  0.2025102E+03  0.7818608E-02  0.1147726E+00
         21   -1    0    0  501  502  0.00000000000E+00  0.00000000000E+00  0.24823425131E+03  0.24823425131E+03  0.00000000000E+00 0. -1.
         21   -1    0    0  502  503 -0.00000000000E+00 -0.00000000000E+00 -0.19723885828E+03  0.19723885828E+03  0.00000000000E+00 0. -1.
         -6    2    1    2    0  503 -0.80254879441E+02 -0.71247808775E+02 -0.64766761513E+02  0.21221089239E+03  0.17123560822E+03 0.  0.
        -24    2    3    3    0    0 -0.61795179150E-02 -0.81680183740E+02 -0.12249584172E+02  0.11562501245E+03  0.80916245207E+02 0.  0.
          6    2    1    2  501    0  0.80254879441E+02  0.71247808775E+02  0.11576215454E+03  0.23326221720E+03  0.17173610460E+03 0.  0.
         24    2    5    5    0    0 -0.13214914629E+02 -0.21867970215E+01  0.66121211822E+02  0.10436087150E+03  0.79622614857E+02 0.  0.
          5    1    5    5  501    0  0.93469794070E+02  0.73434605796E+02  0.49640942714E+02  0.12890134571E+03  0.47000000000E+01 0. -1.
        -11    1    6    6    0    0  0.49768594328E+01  0.37106342602E+02  0.30228093931E+02  0.48118473104E+02  0.00000000000E+00 0.  1.
         12    1    6    6    0    0 -0.18191774062E+02 -0.39293139623E+02  0.35893117890E+02  0.56242398392E+02  0.00000000000E+00 0. -1.
         -5    1    3    3    0  503 -0.80248699923E+02  0.10432374965E+02 -0.52517177341E+02  0.96585879934E+02  0.47000000000E+01 0.  1.
         11    1    4    4    0    0  0.31373408989E+01  0.68054306263E+01  0.20027713654E+02  0.21383781427E+02  0.00000000000E+00 0. -1.
        -12    1    4    4    0    0 -0.31435204168E+01 -0.88485614366E+02 -0.32277297826E+02  0.94241231026E+02  0.00000000000E+00 0.  1.
</event>
<event>
12    1  0.1046899E+000  0.1952633E+03  0.7818608E-02  0.1153827E+00
         21   -1    0    0  501  502  0.00000000000E+00  0.00000000000E+00  0.87098920297E+02  0.87098920297E+02  0.00000000000E+00 0.  1.
         21   -1    0    0  502  503 -0.00000000000E+00 -0.00000000000E+00 -0.43843296257E+03  0.43843296257E+03  0.00000000000E+00 0.  1.
         -6    2    1    2    0  503 -0.81642205942E+02  0.44436738827E+02 -0.18812320485E+03  0.27114221631E+03  0.17171979418E+03 0.  0.
        -24    2    3    3    0    0 -0.26187414619E+02  0.65071147639E+01 -0.18633622301E+03  0.20376882716E+03  0.77925757528E+02 0.  0.
          6    2    1    2  501    0  0.81642205942E+02 -0.44436738827E+02 -0.16321083743E+03  0.25438966656E+03  0.17156996080E+03 0.  0.
         24    2    5    5    0    0  0.60922055837E+02 -0.82103708837E+02 -0.16564396520E+03  0.21107528834E+03  0.81623147742E+02 0.  0.
          5    1    5    5  501    0  0.20720150105E+02  0.37666970009E+02  0.24331277728E+01  0.43314378222E+02  0.47000000000E+01 0. -1.
        -11    1    6    6    0    0 -0.11359817641E+02  0.89802700000E+01 -0.20469489227E+02  0.25073705257E+02  0.00000000000E+00 0.  1.
         12    1    6    6    0    0  0.72281873478E+02 -0.91083978837E+02 -0.14517447597E+03  0.18600158308E+03  0.00000000000E+00 0. -1.
         -5    1    3    3    0  503 -0.55454791323E+02  0.37929624064E+02 -0.17869818360E+01  0.67373389156E+02  0.47000000000E+01 0.  1.
         13    1    4    4    0    0  0.18455678368E+02 -0.14521115247E+02 -0.21983499862E+02  0.32167516507E+02  0.00000000000E+00 0. -1.
        -14    1    4    4    0    0 -0.44643092987E+02  0.21028230011E+02 -0.16435272315E+03  0.17160131065E+03  0.00000000000E+00 0.  1.
</event>
<event>
12    1  0.1046899E+000  0.2810192E+03  0.7818608E-02  0.1095258E+00
         21   -1    0    0  503  502  0.00000000000E+00  0.00000000000E+00  0.24200452471E+03  0.24200452471E+03  0.00000000000E+00 0.  1.
         21   -1    0    0  501  503 -0.00000000000E+00 -0.00000000000E+00 -0.36196463030E+03  0.36196463030E+03  0.00000000000E+00 0.  1.
          6    2    1    2  501    0  0.19413639971E+03 -0.10724179353E+03  0.36268556939E+02  0.28244281142E+03  0.17108123663E+03 0.  0.
         24    2    3    3    0    0  0.26801861473E+02 -0.30916939195E+02  0.47107491772E+02  0.98144402348E+02  0.75756260623E+02 0.  0.
         -6    2    1    2    0  502 -0.19413639971E+03  0.10724179353E+03 -0.15622866252E+03  0.32152634359E+03  0.17257476831E+03 0.  0.
        -24    2    5    5    0    0 -0.11419739306E+03  0.57538730201E+02 -0.16893509001E+03  0.22642543620E+03  0.79860274639E+02 0.  0.
          5    1    3    3  501    0  0.16733453824E+03 -0.76324854335E+02 -0.10838934833E+02  0.18429840907E+03  0.47000000000E+01 0. -1.
        -13    1    4    4    0    0  0.64180613723E+01 -0.50317001065E+02  0.10211895079E+02  0.51742389866E+02  0.00000000000E+00 0.  1.
         14    1    4    4    0    0  0.20383800100E+02  0.19400061870E+02  0.36895596693E+02  0.46402012482E+02  0.00000000000E+00 0. -1.
         -5    1    5    5    0  502 -0.79939006651E+02  0.49703063330E+02  0.12706427483E+02  0.95100907399E+02  0.47000000000E+01 0.  1.
         13    1    6    6    0    0 -0.24384397155E+02 -0.10439227250E+02 -0.75677935027E+02  0.80191808436E+02  0.00000000000E+00 0. -1.
        -14    1    6    6    0    0 -0.89812995905E+02  0.67977957451E+02 -0.93257154981E+02  0.14623362776E+03  0.00000000000E+00 0.  1.
</event>
<event>
12    1  0.1349495E+000  0.1898156E+03  0.7818608E-02  0.1158821E+00
         21   -1    0    0  503  502  0.00000000000E+00  0.00000000000E+00  0.56548998504E+03  0.56548998504E+03  0.00000000000E+00 0.  1.
         21   -1    0    0  501  503 -0.00000000000E+00 -0.00000000000E+00 -0.32051717663E+03  0.32051717663E+03  0.00000000000E+00 0.  1.
          6    2    1    2  501    0  0.50219818193E+02  0.62991407424E+02  0.51918728626E+03  0.55250521316E+03  0.17092871265E+03 0.  0.
         24    2    3    3    0    0 -0.16824333334E+02  0.23342858675E+02  0.40846133835E+03  0.41704580517E+03  0.79111259904E+02 0.  0.
         -6    2    1    2    0  502 -0.50219818193E+02 -0.62991407424E+02 -0.27421447785E+03  0.33350194851E+03  0.17187211014E+03 0.  0.
        -24    2    5    5    0    0  0.26762428075E+02 -0.70376657112E+02 -0.12367619897E+03  0.16419550574E+03  0.77429067481E+02 0.  0.
          5    1    3    3  501    0  0.67044151527E+02  0.39648548749E+02  0.11072594791E+03  0.13545940799E+03  0.47000000000E+01 0. -1.
        -13    1    4    4    0    0  0.27319675588E+02 -0.37907771313E+01  0.21513596831E+03  0.21689679464E+03  0.00000000000E+00 0.  1.
         14    1    4    4    0    0 -0.44144008922E+02  0.27133635806E+02  0.19332537004E+03  0.20014901053E+03  0.00000000000E+00 0. -1.
         -5    1    5    5    0  502 -0.76982246268E+02  0.73852496884E+01 -0.15053827888E+03  0.16930644276E+03  0.47000000000E+01 0.  1.
         13    1    6    6    0    0 -0.56711173313E+01  0.31188257255E+01  0.77899386622E+01  0.10127773203E+02  0.00000000000E+00 0. -1.
        -14    1    6    6    0    0  0.32433545406E+02 -0.73495482838E+02 -0.13146613764E+03  0.15406773254E+03  0.00000000000E+00 0.  1.
</event>
<event>
12    1  0.1046899E+000  0.2314660E+03  0.7818608E-02  0.1125644E+00
         21   -1    0    0  503  502  0.00000000000E+00  0.00000000000E+00  0.71689946266E+02  0.71689946266E+02  0.00000000000E+00 0.  1.
         21   -1    0    0  501  503 -0.00000000000E+00 -0.00000000000E+00 -0.75667307555E+03  0.75667307555E+03  0.00000000000E+00 0.  1.
          6    2    1    2  501    0 -0.15310894885E+03  0.12681661699E+02 -0.29518172095E+03  0.37511164360E+03  0.17312805093E+03 0.  0.
         24    2    3    3    0    0 -0.10035442298E+03  0.36871815375E+02 -0.86985954590E+02  0.15892706814E+03  0.79124684589E+02 0.  0.
         -6    2    1    2    0  502  0.15310894885E+03 -0.12681661699E+02 -0.38980140833E+03  0.45325137822E+03  0.17288290591E+03 0.  0.
        -24    2    5    5    0    0  0.79085215753E+02  0.56855854820E+02 -0.25294326202E+03  0.28276025975E+03  0.80535775360E+02 0.  0.
          5    1    3    3  501    0 -0.52754525871E+02 -0.24190153676E+02 -0.20819576636E+03  0.21618457546E+03  0.47000000000E+01 0. -1.
        -11    1    4    4    0    0 -0.17112033838E+01  0.98152854539E+01 -0.48702110335E+02  0.49710799598E+02  0.00000000000E+00 0.  1.
         12    1    4    4    0    0 -0.98643219596E+02  0.27056529921E+02 -0.38283844256E+02  0.10921626854E+03  0.00000000000E+00 0. -1.
         -5    1    5    5    0  502  0.74023733098E+02 -0.69537516519E+02 -0.13685814631E+03  0.17049111847E+03  0.47000000000E+01 0.  1.
         13    1    6    6    0    0  0.63008654854E+02 -0.70523492584E+00 -0.96100307391E+02  0.11491673953E+03  0.00000000000E+00 0. -1.
        -14    1    6    6    0    0  0.16076560898E+02  0.57561089746E+02 -0.15684295463E+03  0.16784352022E+03  0.00000000000E+00 0.  1.
</event>
<event>
12    1  0.1046899E+000  0.2156210E+03  0.7818608E-02  0.1137553E+00
         21   -1    0    0  503  502  0.00000000000E+00  0.00000000000E+00  0.21848374478E+04  0.21848374478E+04  0.00000000000E+00 0.  1.
         21   -1    0    0  501  503 -0.00000000000E+00 -0.00000000000E+00 -0.22238638519E+02  0.22238638519E+02  0.00000000000E+00 0.  1.
          6    2    1    2  501    0 -0.11298372310E+03 -0.57449543024E+02  0.13361458422E+04  0.13534319834E+04  0.17443236588E+03 0.  0.
         24    2    3    3    0    0 -0.12208382240E+03 -0.90709087701E+02  0.12265244483E+04  0.12384191619E+04  0.78658755272E+02 0.  0.
         -6    2    1    2    0  502  0.11298372310E+03  0.57449543024E+02  0.82645296703E+03  0.85364410291E+03  0.17209873922E+03 0.  0.
        -24    2    5    5    0    0  0.37468526468E+01 -0.41130329284E+01  0.43869683047E+03  0.44609097010E+03  0.80692556002E+02 0.  0.
          5    1    3    3  501    0  0.91000992942E+01  0.33259544677E+02  0.10962139387E+03  0.11501282152E+03  0.47000000000E+01 0. -1.
        -11    1    4    4    0    0 -0.12734330174E+02 -0.29775054600E+02  0.51114917138E+03  0.51217398650E+03  0.00000000000E+00 0.  1.
         12    1    4    4    0    0 -0.10934949222E+03 -0.60934033101E+02  0.71537527696E+03  0.72624517535E+03  0.00000000000E+00 0. -1.
         -5    1    5    5    0  502  0.10923687046E+03  0.61562575953E+02  0.38775613655E+03  0.40755313281E+03  0.47000000000E+01 0.  1.
         11    1    6    6    0    0 -0.48434612273E+01  0.28682983589E+02  0.69516570256E+02  0.75357323495E+02  0.00000000000E+00 0. -1.
        -12    1    6    6    0    0  0.85903138741E+01 -0.32796016517E+02  0.36918026022E+03  0.37073364661E+03  0.00000000000E+00 0.  1.
</event>
<event>
12    1  0.1046899E+000  0.1959289E+03  0.7818608E-02  0.1153833E+00
         21   -1    0    0  501  502  0.00000000000E+00  0.00000000000E+00  0.81228333924E+02  0.81228333924E+02  0.00000000000E+00 0. -1.
         21   -1    0    0  502  503 -0.00000000000E+00 -0.00000000000E+00 -0.48343227456E+03  0.48343227456E+03  0.00000000000E+00 0. -1.
         -6    2    1    2    0  503 -0.79468737468E+02 -0.36384328285E+02 -0.14865664426E+03  0.24594090286E+03  0.17535401403E+03 0.  0.
        -24    2    3    3    0    0 -0.65516042312E+02  0.42237245040E+02 -0.66162888016E+02  0.13103511835E+03  0.81953266084E+02 0.  0.
          6    2    1    2  501    0  0.79468737468E+02  0.36384328285E+02 -0.25354729638E+03  0.31871970562E+03  0.17221184534E+03 0.  0.
         24    2    5    5    0    0 -0.21725715688E+01  0.16979417050E+02 -0.42353529247E+02  0.91416491402E+02  0.79184170072E+02 0.  0.
          5    1    5    5  501    0  0.81641309037E+02  0.19404911235E+02 -0.21119376713E+03  0.22730321422E+03  0.47000000000E+01 0. -1.
        -11    1    6    6    0    0  0.23423436664E+02  0.15683125257E+02  0.12526639933E+02  0.30846953026E+02  0.00000000000E+00 0.  1.
         12    1    6    6    0    0 -0.25596008233E+02  0.12962917935E+01 -0.54880169180E+02  0.60569538376E+02  0.00000000000E+00 0. -1.
         -5    1    3    3    0  503 -0.13952695156E+02 -0.78621573326E+02 -0.82493756240E+02  0.11490578451E+03  0.47000000000E+01 0.  1.
         11    1    4    4    0    0  0.13234622012E+02 -0.11551970053E+02 -0.12967904999E+02  0.21835058781E+02  0.00000000000E+00 0. -1.
        -12    1    4    4    0    0 -0.78750664324E+02  0.53789215093E+02 -0.53194983017E+02  0.10920005957E+03  0.00000000000E+00 0.  1.
</event>
<event>
12    1  0.1046899E+000  0.1943779E+03  0.7818608E-02  0.1156370E+00
         21   -1    0    0  501  502  0.00000000000E+00  0.00000000000E+00  0.62763775925E+03  0.62763775925E+03  0.00000000000E+00 0. -1.
         21   -1    0    0  502  503 -0.00000000000E+00 -0.00000000000E+00 -0.57943554124E+02  0.57943554124E+02  0.00000000000E+00 0. -1.
         -6    2    1    2    0  503  0.52967099070E+02 -0.21270762084E+02  0.29936562814E+03  0.35262440948E+03  0.17738724854E+03 0.  0.
        -24    2    3    3    0    0  0.11556817624E+01 -0.68108005414E+02  0.11445815275E+03  0.15490993155E+03  0.79097295534E+02 0.  0.
          6    2    1    2  501    0 -0.52967099070E+02  0.21270762084E+02  0.27032857699E+03  0.33295690390E+03  0.18580850738E+03 0.  0.
         24    2    5    5    0    0 -0.53173530108E+02  0.50519319448E+02  0.27954631018E+03  0.30193147357E+03  0.87389068307E+02 0.  0.
          5    1    5    5  501    0  0.20643103857E+00 -0.29248557364E+02 -0.92177331878E+01  0.31025430324E+02  0.47000000000E+01 0. -1.
        -13    1    6    6    0    0  0.26622804993E-01  0.97961457562E+01 -0.39971363935E+01  0.10580277870E+02  0.00000000000E+00 0.  1.
         14    1    6    6    0    0 -0.53200152913E+02  0.40723173692E+02  0.28354344657E+03  0.29135119570E+03  0.00000000000E+00 0. -1.
         -5    1    3    3    0  503  0.51811417307E+02  0.46837243331E+02  0.18490747539E+03  0.19771447793E+03  0.47000000000E+01 0.  1.
         11    1    4    4    0    0  0.16361258026E+02  0.70241428711E+01  0.80686295276E+00  0.17823590409E+02  0.00000000000E+00 0. -1.
        -12    1    4    4    0    0 -0.15205576263E+02 -0.75132148285E+02  0.11365128980E+03  0.13708634114E+03  0.00000000000E+00 0.  1.
</event>
<event>
12    1  0.1046899E+000  0.1924054E+03  0.7818608E-02  0.1156494E+00
         21   -1    0    0  503  502  0.00000000000E+00  0.00000000000E+00  0.70454793484E+03  0.70454793484E+03  0.00000000000E+00 0.  1.
         21   -1    0    0  501  503 -0.00000000000E+00 -0.00000000000E+00 -0.55551694366E+02  0.55551694366E+02  0.00000000000E+00 0.  1.
          6    2    1    2  501    0  0.28615588798E+02  0.79950062246E+02  0.23214281139E+03  0.30098457852E+03  0.17172817839E+03 0.  0.
         24    2    3    3    0    0 -0.33698458099E+02  0.51527122631E+02  0.20102329913E+03  0.22560939706E+03  0.81844992536E+02 0.  0.
         -6    2    1    2    0  502 -0.28615588798E+02 -0.79950062246E+02  0.41685342909E+03  0.45911505069E+03  0.17265278466E+03 0.  0.
        -24    2    5    5    0    0 -0.80152334141E+01 -0.48036334787E+02  0.10692775316E+03  0.14683492766E+03  0.88063716464E+02 0.  0.
          5    1    3    3  501    0  0.62314046898E+02  0.28422939616E+02  0.31119512261E+02  0.75375181462E+02  0.47000000000E+01 0. -1.
        -11    1    4    4    0    0 -0.29751797156E+02  0.30307622548E+02  0.27161397969E+02  0.50412924515E+02  0.00000000000E+00 0.  1.
         12    1    4    4    0    0 -0.39466609426E+01  0.21219500082E+02  0.17386190116E+03  0.17519647254E+03  0.00000000000E+00 0. -1.
         -5    1    5    5    0  502 -0.20600355384E+02 -0.31913727460E+02  0.30992567593E+03  0.31228012303E+03  0.47000000000E+01 0.  1.
         11    1    6    6    0    0  0.14641109448E+02  0.52970524485E+00 -0.10319787195E+02  0.17920398469E+02  0.00000000000E+00 0. -1.
        -12    1    6    6    0    0 -0.22656342863E+02 -0.48566040031E+02  0.11724754036E+03  0.12891452919E+03  0.00000000000E+00 0.  1.
</event>
<event>
12    1  0.1046899E+000  0.1747519E+03  0.7818608E-02  0.1173378E+00
         21   -1    0    0  501  502  0.00000000000E+00  0.00000000000E+00  0.35684637289E+03  0.35684637289E+03  0.00000000000E+00 0.  1.
         21   -1    0    0  502  503 -0.00000000000E+00 -0.00000000000E+00 -0.85127916539E+02  0.85127916539E+02  0.00000000000E+00 0.  1.
         -6    2    1    2    0  503 -0.81338043928E+01 -0.14317253042E+02  0.12173588631E+03  0.21168537763E+03  0.17239469418E+03 0.  0.
        -24    2    3    3    0    0 -0.50191111185E+02 -0.56673664952E+02  0.96368507815E+02  0.14665864024E+03  0.80565597603E+02 0.  0.
          6    2    1    2  501    0  0.81338043928E+01  0.14317253042E+02  0.14998257004E+03  0.23028891179E+03  0.17397433452E+03 0.  0.
         24    2    5    5    0    0  0.15475319746E+02  0.73877682484E+02  0.12456251707E+03  0.16494664603E+03  0.77422076211E+02 0.  0.
          5    1    5    5  501    0 -0.73415153536E+01 -0.59560429442E+02  0.25420052966E+02  0.65342265769E+02  0.47000000000E+01 0. -1.
        -11    1    6    6    0    0  0.27166639464E+01  0.65528360160E+02  0.13243618694E+03  0.14778595961E+03  0.00000000000E+00 0.  1.
         12    1    6    6    0    0  0.12758655800E+02  0.83493223233E+01 -0.78736698621E+01  0.17160686413E+02  0.00000000000E+00 0. -1.
         -5    1    3    3    0  503  0.42057306792E+02  0.42356411910E+02  0.25367378493E+02  0.65026737394E+02  0.47000000000E+01 0.  1.
         13    1    4    4    0    0 -0.58824592275E+01  0.71553368733E+01  0.60277511280E+02  0.60985084557E+02  0.00000000000E+00 0. -1.
        -14    1    4    4    0    0 -0.44308651957E+02 -0.63829001825E+02  0.36090996536E+02  0.85673555682E+02  0.00000000000E+00 0.  1.
</event>
<event>
12    1  0.1046899E+000  0.2372703E+03  0.7818608E-02  0.1122123E+00
         21   -1    0    0  501  502  0.00000000000E+00  0.00000000000E+00  0.17582499869E+03  0.17582499869E+03  0.00000000000E+00 0. -1.
         21   -1    0    0  502  503 -0.00000000000E+00 -0.00000000000E+00 -0.16077867463E+04  0.16077867463E+04  0.00000000000E+00 0. -1.
         -6    2    1    2    0  503 -0.12697727935E+03 -0.94976324252E+02 -0.15161534749E+04  0.15346069752E+04  0.17650347652E+03 0.  0.
        -24    2    3    3    0    0 -0.93715309151E+02 -0.13591391502E+03 -0.11216803013E+04  0.11365951415E+04  0.80166489858E+02 0.  0.
          6    2    1    2  501    0  0.12697727935E+03  0.94976324252E+02  0.84191727321E+02  0.24900476976E+03  0.17254389811E+03 0.  0.
         24    2    5    5    0    0  0.11215312730E+03 -0.55367402606E+00  0.56610868238E+02  0.14836417237E+03  0.78920889014E+02 0.  0.
          5    1    5    5  501    0  0.14824152044E+02  0.95529998278E+02  0.27580859083E+02  0.10064059739E+03  0.47000000000E+01 0. -1.
        -13    1    6    6    0    0  0.57134046934E+02  0.36040106560E+02  0.11925806680E+02  0.68596016392E+02  0.00000000000E+00 0.  1.
         14    1    6    6    0    0  0.55019080368E+02 -0.36593780586E+02  0.44685061558E+02  0.79768155981E+02  0.00000000000E+00 0. -1.
         -5    1    3    3    0  503 -0.33261970194E+02  0.40937590764E+02 -0.39447317368E+03  0.39801183368E+03  0.47000000000E+01 0.  1.
         13    1    4    4    0    0 -0.64828842038E+02 -0.89578344929E+02 -0.95067366356E+03  0.95708279330E+03  0.00000000000E+00 0. -1.
        -14    1    4    4    0    0 -0.28886467113E+02 -0.46335570086E+02 -0.17100663770E+03  0.17951234825E+03  0.00000000000E+00 0.  1.
</event>
<event>
12    1  0.1046899E+000  0.2979866E+03  0.7818608E-02  0.1086810E+00
         21   -1    0    0  503  502  0.00000000000E+00  0.00000000000E+00  0.24553878184E+03  0.24553878184E+03  0.00000000000E+00 0.  1.
         21   -1    0    0  501  503 -0.00000000000E+00 -0.00000000000E+00 -0.39383646832E+03  0.39383646832E+03  0.00000000000E+00 0.  1.
          6    2    1    2  501    0  0.12864877534E+02 -0.23759983225E+03  0.25010302064E+02  0.29465552958E+03  0.17198017486E+03 0.  0.
         24    2    3    3    0    0  0.19746081530E+02 -0.25492136669E+03  0.39207709747E+02  0.27075902547E+03  0.79989964602E+02 0.  0.
         -6    2    1    2    0  502 -0.12864877534E+02  0.23759983225E+03 -0.17330798855E+03  0.34471972058E+03  0.17937904421E+03 0.  0.
        -24    2    5    5    0    0 -0.75917447118E+02  0.17943343817E+03 -0.10338091363E+03  0.23394588911E+03  0.77995180738E+02 0.  0.
          5    1    3    3  501    0 -0.68812039961E+01  0.17321534442E+02 -0.14197407683E+02  0.23896504112E+02  0.47000000000E+01 0. -1.
        -11    1    4    4    0    0 -0.27908309921E+02 -0.55178405066E+02  0.17515065873E+02  0.64267469849E+02  0.00000000000E+00 0.  1.
         12    1    4    4    0    0  0.47654391451E+02 -0.19974296163E+03  0.21692643873E+02  0.20649155562E+03  0.00000000000E+00 0. -1.
         -5    1    5    5    0  502  0.63052569584E+02  0.58166394079E+02 -0.69927074920E+02  0.11077383147E+03  0.47000000000E+01 0.  1.
         11    1    6    6    0    0 -0.46766442743E+02  0.98930351428E+02 -0.14244459622E+02  0.11035043829E+03  0.00000000000E+00 0. -1.
        -12    1    6    6    0    0 -0.29151004375E+02  0.80503086745E+02 -0.89136454006E+02  0.12359545082E+03  0.00000000000E+00 0.  1.
</event>
<event>
12    1  0.1046899E+000  0.2510955E+03  0.7818608E-02  0.1112696E+00
         21   -1    0    0  501  502  0.00000000000E+00  0.00000000000E+00  0.30806005159E+03  0.30806005159E+03  0.00000000000E+00 0. -1.
         21   -1    0    0  502  503 -0.00000000000E+00 -0.00000000000E+00 -0.32314860183E+03  0.32314860183E+03  0.00000000000E+00 0. -1.
         -6    2    1    2    0  503  0.13699857662E+03  0.12371209876E+03  0.18389583407E+03  0.31123405435E+03  0.17022239988E+03 0.  0.
        -24    2    3    3    0    0  0.28003103384E+02  0.63532622806E+02  0.14671759912E+03  0.18121138838E+03  0.80566403838E+02 0.  0.
          6    2    1    2  501    0 -0.13699857662E+03 -0.12371209876E+03 -0.19898438432E+03  0.31997459907E+03  0.16945697234E+03 0.  0.
         24    2    5    5    0    0 -0.37464682668E+02 -0.11307634077E+03 -0.89937412156E+02  0.17187514758E+03  0.85220108904E+02 0.  0.
          5    1    5    5  501    0 -0.99533893950E+02 -0.10635757984E+02 -0.10904697216E+03  0.14809945148E+03  0.47000000000E+01 0. -1.
        -13    1    6    6    0    0 -0.44877892010E+02 -0.58154226941E+02 -0.90362847711E+02  0.11645335353E+03  0.00000000000E+00 0.  1.
         14    1    6    6    0    0  0.74132093420E+01 -0.54922113833E+02  0.42543555442E+00  0.55421794053E+02  0.00000000000E+00 0. -1.
         -5    1    3    3    0  503  0.10899547323E+03  0.60179475951E+02  0.37178234955E+02  0.13002266597E+03  0.47000000000E+01 0.  1.
         13    1    4    4    0    0  0.14697043992E+02  0.26196348270E+02  0.84469561045E+00  0.30049380617E+02  0.00000000000E+00 0. -1.
        -14    1    4    4    0    0  0.13306059392E+02  0.37336274536E+02  0.14587290351E+03  0.15116200776E+03  0.00000000000E+00 0.  1.
</event>
<event>
12    1  0.1046899E+000  0.1972351E+03  0.7818608E-02  0.1153254E+00
         21   -1    0    0  503  502  0.00000000000E+00  0.00000000000E+00  0.11827788486E+03  0.11827788486E+03  0.00000000000E+00 0. -1.
         21   -1    0    0  501  503 -0.00000000000E+00 -0.00000000000E+00 -0.63015217586E+03  0.63015217586E+03  0.00000000000E+00 0. -1.
          6    2    1    2  501    0 -0.26538397959E+02  0.91429109757E+02  0.47724736999E+01  0.19729285674E+03  0.17273715911E+03 0.  0.
         24    2    3    3    0    0  0.22738231309E+02  0.10914569151E+03 -0.23153173350E+02  0.13776139258E+03  0.77539168886E+02 0.  0.
         -6    2    1    2    0  502  0.26538397959E+02 -0.91429109757E+02 -0.51664676469E+03  0.55113720399E+03  0.16662763718E+03 0.  0.
        -24    2    5    5    0    0  0.25195360903E+02 -0.81886041776E+02 -0.52486763053E+03  0.53762622585E+03  0.78840339300E+02 0.  0.
          5    1    3    3  501    0 -0.49276629268E+02 -0.17716581754E+02  0.27925647050E+02  0.59531464153E+02  0.47000000000E+01 0. -1.
        -11    1    4    4    0    0  0.26474631087E+02  0.32597669213E+02 -0.41410594098E+02  0.58977550245E+02  0.00000000000E+00 0.  1.
         12    1    4    4    0    0 -0.37363997776E+01  0.76548022298E+02  0.18257420748E+02  0.78783842337E+02  0.00000000000E+00 0. -1.
         -5    1    5    5    0  502  0.13430370557E+01 -0.95430679809E+01  0.82208658343E+01  0.13510978132E+02  0.47000000000E+01 0.  1.
         13    1    6    6    0    0 -0.26184320815E+02 -0.11339598695E+02 -0.15470330500E+03  0.15731280219E+03  0.00000000000E+00 0. -1.
        -14    1    6    6    0    0  0.51379681718E+02 -0.70546443081E+02 -0.37016432552E+03  0.38031342366E+03  0.00000000000E+00 0.  1.
</event>
<event>
12    1  0.1046899E+000  0.3490614E+03  0.7818608E-02  0.1063062E+00
         21   -1    0    0  501  502  0.00000000000E+00  0.00000000000E+00  0.24516048037E+03  0.24516048037E+03  0.00000000000E+00 0. -1.
         21   -1    0    0  502  503 -0.00000000000E+00 -0.00000000000E+00 -0.50925890092E+03  0.50925890092E+03  0.00000000000E+00 0. -1.
         -6    2    1    2    0  503 -0.13485924907E+03 -0.27274210489E+03 -0.19245882481E+03  0.39808236962E+03  0.16986436035E+03 0.  0.
        -24    2    3    3    0    0 -0.29099961542E+02 -0.19407431469E+03 -0.14178100402E+03  0.25678842201E+03  0.85596689128E+02 0.  0.
          6    2    1    2  501    0  0.13485924907E+03  0.27274210489E+03 -0.71639595744E+02  0.35633701166E+03  0.17108056980E+03 0.  0.
         24    2    5    5    0    0  0.89957669201E+02  0.21217937561E+03  0.10194771391E+02  0.24496848066E+03  0.82420588889E+02 0.  0.
          5    1    5    5  501    0  0.44901579872E+02  0.60562729280E+02 -0.81834367135E+02  0.11136853100E+03  0.47000000000E+01 0. -1.
        -13    1    6    6    0    0  0.74057696779E+02  0.21331447871E+03 -0.44239479582E+00  0.22580479400E+03  0.00000000000E+00 0.  1.
         14    1    6    6    0    0  0.15899972422E+02 -0.11351031016E+01  0.10637166186E+02  0.19163686664E+02  0.00000000000E+00 0. -1.
         -5    1    3    3    0  503 -0.10575928753E+03 -0.78667790197E+02 -0.50677820793E+02  0.14129394762E+03  0.47000000000E+01 0.  1.
         11    1    4    4    0    0 -0.23762049571E+02 -0.78363302200E+02 -0.10913841569E+03  0.13644279355E+03  0.00000000000E+00 0. -1.
        -12    1    4    4    0    0 -0.53379119712E+01 -0.11571101249E+03 -0.32642588332E+02  0.12034562846E+03  0.00000000000E+00 0.  1.
</event>
<event>
12    1  0.1046899E+000  0.2708358E+03  0.7818608E-02  0.1101418E+00
         21   -1    0    0  501  502  0.00000000000E+00  0.00000000000E+00  0.88188604522E+02  0.88188604522E+02  0.00000000000E+00 0.  1.
         21   -1    0    0  502  503 -0.00000000000E+00 -0.00000000000E+00 -0.86305989825E+03  0.86305989825E+03  0.00000000000E+00 0.  1.
         -6    2    1    2    0  503 -0.19265410617E+03 -0.62907836840E+02 -0.49824595876E+03  0.56709882826E+03  0.17966369982E+03 0.  0.
        -24    2    3    3    0    0 -0.17128145089E+03 -0.41911673097E+02 -0.24711414757E+03  0.31414249630E+03  0.80784789987E+02 0.  0.
          6    2    1    2  501    0  0.19265410617E+03  0.62907836840E+02 -0.27662533497E+03  0.38414967451E+03  0.17313692825E+03 0.  0.
         24    2    5    5    0    0  0.56285933613E+02  0.40595123914E+02 -0.45987167111E+02  0.11524413326E+03  0.79688896994E+02 0.  0.
          5    1    5    5  501    0  0.13636817255E+03  0.22312712926E+02 -0.23063816786E+03  0.26890554125E+03  0.47000000000E+01 0. -1.
        -11    1    6    6    0    0  0.16786102058E+02  0.55518571193E+02 -0.44303714765E+02  0.72985643188E+02  0.00000000000E+00 0.  1.
         12    1    6    6    0    0  0.39499831555E+02 -0.14923447279E+02 -0.16834523462E+01  0.42258490075E+02  0.00000000000E+00 0. -1.
         -5    1    3    3    0  503 -0.21372655281E+02 -0.20996163743E+02 -0.25113181120E+03  0.25295633196E+03  0.47000000000E+01 0.  1.
         13    1    4    4    0    0 -0.14325501512E+03 -0.45540949763E+02 -0.14750955006E+03  0.21060637412E+03  0.00000000000E+00 0. -1.
        -14    1    4    4    0    0 -0.28026435767E+02  0.36292766657E+01 -0.99604597502E+02  0.10353612217E+03  0.00000000000E+00 0.  1.
</event>
<event>
12    1  0.1046899E+000  0.2415303E+03  0.7818608E-02  0.1119336E+00
         21   -1    0    0  501  502  0.00000000000E+00  0.00000000000E+00  0.48209308778E+03  0.48209308778E+03  0.00000000000E+00 0.  1.
         21   -1    0    0  502  503 -0.00000000000E+00 -0.00000000000E+00 -0.12079722565E+03  0.12079722565E+03  0.00000000000E+00 0.  1.
         -6    2    1    2    0  503  0.10672974306E+03 -0.13079749085E+03  0.21507800114E+03  0.32341217816E+03  0.17273583515E+03 0.  0.
        -24    2    3    3    0    0  0.99229872802E+02 -0.15591126148E+03  0.21790622715E+03  0.29663460561E+03  0.79712460157E+02 0.  0.
          6    2    1    2  501    0 -0.10672974306E+03  0.13079749085E+03  0.14621786099E+03  0.27947813527E+03  0.16801530750E+03 0.  0.
         24    2    5    5    0    0 -0.55240342883E+02  0.89608572507E+01  0.25462358449E+02  0.10031534613E+03  0.79265657934E+02 0.  0.
          5    1    5    5  501    0 -0.51489400178E+02  0.12183663360E+03  0.12075550254E+03  0.17916278914E+03  0.47000000000E+01 0. -1.
        -13    1    6    6    0    0 -0.47104185161E+01  0.15994090246E+02 -0.24022344143E+02  0.29241613901E+02  0.00000000000E+00 0.  1.
         14    1    6    6    0    0 -0.50529924367E+02 -0.70332329954E+01  0.49484702592E+02  0.71073732233E+02  0.00000000000E+00 0. -1.
         -5    1    3    3    0  503  0.74998702582E+01  0.25113770632E+02 -0.28282260112E+01  0.26777572549E+02  0.47000000000E+01 0.  1.
         11    1    4    4    0    0  0.88579207394E+02 -0.66835974246E+02  0.13174083594E+03  0.17224683245E+03  0.00000000000E+00 0. -1.
        -12    1    4    4    0    0  0.10650665409E+02 -0.89075287236E+02  0.86165391209E+02  0.12438777316E+03  0.00000000000E+00 0.  1.
</event>
<event>
12    1  0.1046899E+000  0.7099309E+03  0.7818608E-02  0.9700448E-01
         21   -1    0    0  503  502  0.00000000000E+00  0.00000000000E+00  0.44367615177E+03  0.44367615177E+03  0.00000000000E+00 0.  1.
         21   -1    0    0  501  503 -0.00000000000E+00 -0.00000000000E+00 -0.11401516311E+04  0.11401516311E+04  0.00000000000E+00 0.  1.
          6    2    1    2  501    0 -0.67004993983E+03  0.15973406149E+03 -0.29921236222E+03  0.77040891698E+03  0.17181376369E+03 0.  0.
         24    2    3    3    0    0 -0.56395530054E+03  0.80587284838E+02 -0.26568349727E+03  0.63378329886E+03  0.80954664554E+02 0.  0.
         -6    2    1    2    0  502  0.67004993983E+03 -0.15973406149E+03 -0.39726311715E+03  0.81341886593E+03  0.17131951125E+03 0.  0.
        -24    2    5    5    0    0  0.56640072407E+03 -0.75809309906E+02 -0.29913037050E+03  0.64777270744E+03  0.59780182819E+02 0.  0.
          5    1    3    3  501    0 -0.10609463930E+03  0.79146776656E+02 -0.33528864945E+02  0.13662561812E+03  0.47000000000E+01 0. -1.
        -13    1    4    4    0    0 -0.93512318023E+02  0.16603253763E+02 -0.79323683169E+02  0.12374355890E+03  0.00000000000E+00 0.  1.
         14    1    4    4    0    0 -0.47044298252E+03  0.63984031075E+02 -0.18635981410E+03  0.51003973997E+03  0.00000000000E+00 0. -1.
         -5    1    5    5    0  502  0.10364921577E+03 -0.83924751587E+02 -0.98132746655E+02  0.16564615849E+03  0.47000000000E+01 0.  1.
         13    1    6    6    0    0  0.86761145836E+02 -0.26002063995E+02 -0.66558244202E+02  0.11239930440E+03  0.00000000000E+00 0. -1.
        -14    1    6    6    0    0  0.47963957823E+03 -0.49807245911E+02 -0.23257212630E+03  0.53537340304E+03  0.00000000000E+00 0.  1.
</event>
<event>
12    1  0.1046899E+000  0.1898144E+03  0.7818608E-02  0.1160088E+00
         21   -1    0    0  503  502  0.00000000000E+00  0.00000000000E+00  0.19457333490E+03  0.19457333490E+03  0.00000000000E+00 0. -1.
         21   -1    0    0  501  503 -0.00000000000E+00 -0.00000000000E+00 -0.18089623014E+03  0.18089623014E+03  0.00000000000E+00 0. -1.
          6    2    1    2  501    0 -0.53970743074E+02 -0.73821089279E+02  0.25785891106E+02  0.18526934798E+03  0.15905164190E+03 0.  0.
         24    2    3    3    0    0 -0.11671888976E+01 -0.75711143714E+02  0.56691886105E+02  0.12387669235E+03  0.79987032350E+02 0.  0.
         -6    2    1    2    0  502  0.53970743074E+02  0.73821089279E+02 -0.12108786349E+02  0.19020021706E+03  0.16633431857E+03 0.  0.
        -24    2    5    5    0    0  0.49703565045E+02 -0.12472135225E+02 -0.10095845206E+02  0.10365039710E+03  0.89529214185E+02 0.  0.
          5    1    3    3  501    0 -0.52803554176E+02  0.18900544351E+01 -0.30905994999E+02  0.61392655638E+02  0.47000000000E+01 0. -1.
        -13    1    4    4    0    0 -0.35941563133E+02 -0.36207591820E+02  0.70004147048E+01  0.51495548078E+02  0.00000000000E+00 0.  1.
         14    1    4    4    0    0  0.34774374235E+02 -0.39503551894E+02  0.49691471400E+02  0.72381144268E+02  0.00000000000E+00 0. -1.
         -5    1    5    5    0  502  0.42671780290E+01  0.86293224505E+02 -0.20129411436E+01  0.86549819964E+02  0.47000000000E+01 0.  1.
         11    1    6    6    0    0  0.10059647176E+02 -0.30227102008E+02  0.30566758043E+02  0.44149755315E+02  0.00000000000E+00 0. -1.
        -12    1    6    6    0    0  0.39643917869E+02  0.17754966782E+02 -0.40662603249E+02  0.59500641782E+02  0.00000000000E+00 0.  1.
</event>
<event>
12    1  0.1046899E+000  0.3880840E+03  0.7818608E-02  0.1048003E+00
         21   -1    0    0  501  502  0.00000000000E+00  0.00000000000E+00  0.38906972105E+03  0.38906972105E+03  0.00000000000E+00 0. -1.
         21   -1    0    0  502  503 -0.00000000000E+00 -0.00000000000E+00 -0.40814788675E+03  0.40814788675E+03  0.00000000000E+00 0. -1.
         -6    2    1    2    0  503 -0.32308500373E+03 -0.12886648616E+03 -0.10047345486E+03  0.40087921421E+03  0.17210095399E+03 0.  0.
        -24    2    3    3    0    0 -0.17760146733E+03 -0.32285932521E+02  0.42606794358E+01  0.19720154830E+03  0.79281994335E+02 0.  0.
          6    2    1    2  501    0  0.32308500373E+03  0.12886648616E+03  0.81395289164E+02  0.39633839359E+03  0.17166373595E+03 0.  0.
         24    2    5    5    0    0  0.84093601133E+02  0.86991690754E+02  0.15844623706E+02  0.14496343710E+03  0.78256360661E+02 0.  0.
          5    1    5    5  501    0  0.23899140260E+03  0.41874795404E+02  0.65550665458E+02  0.25137495649E+03  0.47000000000E+01 0. -1.
        -13    1    6    6    0    0  0.97994383646E+02  0.77535098178E+02  0.22340480612E+02  0.12693970123E+03  0.00000000000E+00 0.  1.
         14    1    6    6    0    0 -0.13900782513E+02  0.94565925757E+01 -0.64958569061E+01  0.18023735866E+02  0.00000000000E+00 0. -1.
         -5    1    3    3    0  503 -0.14548353640E+03 -0.96580553637E+02 -0.10473413430E+03  0.20367766591E+03  0.47000000000E+01 0.  1.
         13    1    4    4    0    0 -0.38471575194E+02 -0.62261687634E+01  0.34967390590E+02  0.52359771581E+02  0.00000000000E+00 0. -1.
        -14    1    4    4    0    0 -0.13912989214E+03 -0.26059763757E+02 -0.30706711154E+02  0.14484177672E+03  0.00000000000E+00 0.  1.
</event>
<event>
12    1  0.1046899E+000  0.2539187E+03  0.7818608E-02  0.1111174E+00
         21   -1    0    0  501  502  0.00000000000E+00  0.00000000000E+00  0.33421720953E+03  0.33421720953E+03  0.00000000000E+00 0. -1.
         21   -1    0    0  502  503 -0.00000000000E+00 -0.00000000000E+00 -0.20021469354E+03  0.20021469354E+03  0.00000000000E+00 0. -1.
         -6    2    1    2    0  503  0.41848805637E+02 -0.17958418080E+03  0.10502804033E+02  0.25207239674E+03  0.17154703081E+03 0.  0.
        -24    2    3    3    0    0  0.78728763337E+01 -0.15740443194E+03  0.62990454432E+02  0.18556413804E+03  0.75020761122E+02 0.  0.
          6    2    1    2  501    0 -0.41848805637E+02  0.17958418080E+03  0.12349971195E+03  0.28235950633E+03  0.17456492041E+03 0.  0.
         24    2    5    5    0    0  0.16827936046E+02  0.16064079331E+03  0.12576855486E+03  0.22048019160E+03  0.81884928937E+02 0.  0.
          5    1    5    5  501    0 -0.58676741683E+02  0.18943387482E+02 -0.22688429092E+01  0.61879314735E+02  0.47000000000E+01 0. -1.
        -11    1    6    6    0    0  0.46093622723E+02  0.98728051236E+02  0.55187905139E+02  0.12213744319E+03  0.00000000000E+00 0.  1.
         12    1    6    6    0    0 -0.29265686677E+02  0.61912742078E+02  0.70580649719E+02  0.98342748401E+02  0.00000000000E+00 0. -1.
         -5    1    3    3    0  503  0.33975929303E+02 -0.22179748855E+02 -0.52487650398E+02  0.66508258702E+02  0.47000000000E+01 0.  1.
         11    1    4    4    0    0 -0.97197833444E+01  0.36678137313E+01 -0.26844771698E+01  0.10730026258E+02  0.00000000000E+00 0. -1.
        -12    1    4    4    0    0  0.17592659678E+02 -0.16107224567E+03  0.65674931601E+02  0.17483411178E+03  0.00000000000E+00 0.  1.
</event>
<event>
12    1  0.1046899E+000  0.2426929E+03  0.7818608E-02  0.1118191E+00
         21   -1    0    0  501  502  0.00000000000E+00  0.00000000000E+00  0.81693675079E+02  0.81693675079E+02  0.00000000000E+00 0.  1.
         21   -1    0    0  502  503 -0.00000000000E+00 -0.00000000000E+00 -0.90798779196E+03  0.90798779196E+03  0.00000000000E+00 0.  1.
         -6    2    1    2    0  503 -0.11736168645E+03 -0.12433906894E+03 -0.18591362461E+03  0.30485519549E+03  0.17070103951E+03 0.  0.
        -24    2    3    3    0    0 -0.45595020695E+02 -0.11074475369E+03 -0.53325562548E+02  0.15340571902E+03  0.79664249356E+02 0.  0.
          6    2    1    2  501    0  0.11736168645E+03  0.12433906894E+03 -0.64038049227E+03  0.68482627155E+03  0.17223785245E+03 0.  0.
         24    2    5    5    0    0  0.11837745292E+03  0.86525775471E+02 -0.61827538880E+03  0.64076265228E+03  0.82537197499E+02 0.  0.
          5    1    5    5  501    0 -0.10157664768E+01  0.37813293465E+02 -0.22105103467E+02  0.44063619273E+02  0.47000000000E+01 0. -1.
        -13    1    6    6    0    0  0.18756269221E+02  0.42960530446E+02 -0.90678908671E+02  0.10207874063E+03  0.00000000000E+00 0.  1.
         14    1    6    6    0    0  0.99621183704E+02  0.43565245025E+02 -0.52759648013E+03  0.53868391165E+03  0.00000000000E+00 0. -1.
         -5    1    3    3    0  503 -0.71766665753E+02 -0.13594315244E+02 -0.13258806206E+03  0.15144947646E+03  0.47000000000E+01 0.  1.
         11    1    4    4    0    0  0.59493508199E+01 -0.74125077344E+02 -0.50929929700E+02  0.90132012103E+02  0.00000000000E+00 0. -1.
        -12    1    4    4    0    0 -0.51544371515E+02 -0.36619676347E+02 -0.23956328489E+01  0.63273706920E+02  0.00000000000E+00 0.  1.
</event>
<event>
12    1  0.1046899E+000  0.2097471E+03  0.7818608E-02  0.1143493E+00
         21   -1    0    0  501  502  0.00000000000E+00  0.00000000000E+00  0.26057438182E+04  0.26057438182E+04  0.00000000000E+00 0. -1.
         21   -1    0    0  502  503 -0.00000000000E+00 -0.00000000000E+00 -0.17114868558E+02  0.17114868558E+02  0.00000000000E+00 0. -1.
         -6    2    1    2    0  503 -0.11930262202E+03 -0.15203287922E+02  0.10173661675E+04  0.10387626105E+04  0.17184174919E+03 0.  0.
        -24    2    3    3    0    0 -0.14245661335E+02  0.10611463789E+01  0.20484106050E+03  0.21929898337E+03  0.76994279913E+02 0.  0.
          6    2    1    2  501    0  0.11930262202E+03  0.15203287922E+02  0.15712627822E+04  0.15840960763E+04  0.16133627136E+03 0.  0.
         24    2    5    5    0    0  0.92036245014E+02  0.34078466271E+02  0.15002598843E+04  0.15055898396E+04  0.79931424273E+02 0.  0.
          5    1    5    5  501    0  0.27266377010E+02 -0.18875178349E+02  0.71002897945E+02  0.78506236629E+02  0.47000000000E+01 0. -1.
        -13    1    6    6    0    0  0.67027642280E+02 -0.13014098483E+02  0.10427865513E+04  0.10450195516E+04  0.00000000000E+00 0.  1.
         14    1    6    6    0    0  0.25008602735E+02  0.47092564754E+02  0.45747333300E+03  0.46057028809E+03  0.00000000000E+00 0. -1.
         -5    1    3    3    0  503 -0.10505696069E+03 -0.16264434301E+02  0.81252510695E+03  0.81946362716E+03  0.47000000000E+01 0.  1.
         13    1    4    4    0    0 -0.37953402739E+02 -0.22170991074E+02  0.97659221172E+02  0.10709499103E+03  0.00000000000E+00 0. -1.
        -14    1    4    4    0    0  0.23707741404E+02  0.23232137453E+02  0.10718183933E+03  0.11220399233E+03  0.00000000000E+00 0.  1.
</event>
<event>
12    1  0.1046899E+000  0.3468927E+03  0.7818608E-02  0.1063913E+00
         21   -1    0    0  501  502  0.00000000000E+00  0.00000000000E+00  0.81798195017E+03  0.81798195017E+03  0.00000000000E+00 0.  1.
         21   -1    0    0  502  503 -0.00000000000E+00 -0.00000000000E+00 -0.46908189793E+03  0.46908189793E+03  0.00000000000E+00 0. -1.
         -6    2    1    2    0  503 -0.29734118788E+03 -0.48197912063E+02  0.70767008999E+03  0.78811894661E+03  0.17204562479E+03 0.  0.
        -24    2    3    3    0    0 -0.22699736551E+03 -0.85614072960E+02  0.61261951378E+03  0.66400237045E+03  0.82090839063E+02 0.  0.
          6    2    1    2  501    0  0.29734118788E+03  0.48197912063E+02 -0.35877003775E+03  0.49894490148E+03  0.17174182366E+03 0.  0.
         24    2    5    5    0    0  0.17912439413E+03  0.76218803135E+02 -0.15356582475E+03  0.26042605591E+03  0.79651826983E+02 0.  0.
          5    1    5    5  501    0  0.11821679375E+03 -0.28020891072E+02 -0.20520421300E+03  0.23851884557E+03  0.47000000000E+01 0. -1.
        -13    1    6    6    0    0  0.11371693678E+03  0.64957395341E+02 -0.56015202992E+02  0.14243843542E+03  0.00000000000E+00 0.  1.
         14    1    6    6    0    0  0.65407457354E+02  0.11261407794E+02 -0.97550621757E+02  0.11798762049E+03  0.00000000000E+00 0. -1.
         -5    1    3    3    0  503 -0.70343822368E+02  0.37416160897E+02  0.95050576209E+02  0.12411657617E+03  0.47000000000E+01 0.  1.
         11    1    4    4    0    0 -0.67831307305E+02  0.12717047623E+02  0.16196399472E+03  0.17605438120E+03  0.00000000000E+00 0. -1.
        -12    1    4    4    0    0 -0.15916605821E+03 -0.98331120583E+02  0.45065551906E+03  0.48794798925E+03  0.00000000000E+00 0.  1.
</event>
<event>
12    1  0.1046899E+000  0.2118936E+03  0.7818608E-02  0.1141145E+00
         21   -1    0    0  503  502  0.00000000000E+00  0.00000000000E+00  0.18397053870E+03  0.18397053870E+03  0.00000000000E+00 0. -1.
         21   -1    0    0  501  503 -0.00000000000E+00 -0.00000000000E+00 -0.26896206947E+03  0.26896206947E+03  0.00000000000E+00 0. -1.
          6    2    1    2  501    0  0.11541407466E+03 -0.12228738961E+02  0.33995986730E+02  0.21460338646E+03  0.17728207942E+03 0.  0.
         24    2    3    3    0    0  0.14169388007E+03 -0.98839988174E+01  0.63513961585E+02  0.17473451617E+03  0.79519046412E+02 0.  0.
         -6    2    1    2    0  502 -0.11541407466E+03  0.12228738961E+02 -0.11898751750E+03  0.23832922170E+03  0.17080057937E+03 0.  0.
        -24    2    5    5    0    0  0.50504649996E+01  0.24220385037E+02 -0.62290096909E+02  0.10456752168E+03  0.80263168205E+02 0.  0.
          5    1    3    3  501    0 -0.26279805414E+02 -0.23447401435E+01 -0.29517974855E+02  0.39868870293E+02  0.47000000000E+01 0. -1.
        -13    1    4    4    0    0  0.11930228625E+03 -0.15192243845E+02  0.15203094171E+02  0.12122282726E+03  0.00000000000E+00 0.  1.
         14    1    4    4    0    0  0.22391593821E+02  0.53082450272E+01  0.48310867415E+02  0.53511688905E+02  0.00000000000E+00 0. -1.
         -5    1    5    5    0  502 -0.12046453966E+03 -0.11991646076E+02 -0.56697420590E+02  0.13376170002E+03  0.47000000000E+01 0.  1.
         11    1    6    6    0    0 -0.44796991076E+01  0.33771774840E+02 -0.77245963578E+02  0.84424755665E+02  0.00000000000E+00 0. -1.
        -12    1    6    6    0    0  0.95301641072E+01 -0.95513898030E+01  0.14955866670E+02  0.20142766019E+02  0.00000000000E+00 0.  1.
</event>
<event>
12    1  0.1046899E+000  0.3383549E+03  0.7818608E-02  0.1067670E+00
         21   -1    0    0  503  502  0.00000000000E+00  0.00000000000E+00  0.15089759287E+03  0.15089759287E+03  0.00000000000E+00 0. -1.
         21   -1    0    0  501  503 -0.00000000000E+00 -0.00000000000E+00 -0.77238534127E+03  0.77238534127E+03  0.00000000000E+00 0. -1.
          6    2    1    2  501    0  0.75519891557E+02  0.27986129082E+03 -0.38048306165E+03  0.50916735158E+03  0.17452345282E+03 0.  0.
         24    2    3    3    0    0  0.68215079995E+02  0.20457008458E+03 -0.17115318097E+03  0.28653937724E+03  0.79430389098E+02 0.  0.
         -6    2    1    2    0  502 -0.75519891557E+02 -0.27986129082E+03 -0.24100468675E+03  0.41411558257E+03  0.17141429512E+03 0.  0.
        -24    2    5    5    0    0 -0.37290107014E+02 -0.23032409506E+03 -0.10547715300E+03  0.26476615139E+03  0.67349419226E+02 0.  0.
          5    1    3    3  501    0  0.73048115628E+01  0.75291206247E+02 -0.20932988068E+03  0.22262797433E+03  0.47000000000E+01 0. -1.
        -11    1    4    4    0    0  0.68368318219E+02  0.15043827173E+03 -0.87721996312E+02  0.18708567335E+03  0.00000000000E+00 0.  1.
         12    1    4    4    0    0 -0.15323822453E+00  0.54131812851E+02 -0.83431184659E+02  0.99453703893E+02  0.00000000000E+00 0. -1.
         -5    1    5    5    0  502 -0.38229784544E+02 -0.49537195764E+02 -0.13552753375E+03  0.14934943118E+03  0.47000000000E+01 0.  1.
         11    1    6    6    0    0  0.94246575345E+01 -0.38191084408E+01 -0.10888423442E+02  0.14898574562E+02  0.00000000000E+00 0. -1.
        -12    1    6    6    0    0 -0.46714764548E+02 -0.22650498662E+03 -0.94588729558E+02  0.24986757683E+03  0.00000000000E+00 0.  1.
</event>
<event>
12    1  0.1046899E+000  0.2086225E+03  0.7818608E-02  0.1142778E+00
         21   -1    0    0  503  502  0.00000000000E+00  0.00000000000E+00  0.59154112044E+03  0.59154112044E+03  0.00000000000E+00 0. -1.
         21   -1    0    0  501  503 -0.00000000000E+00 -0.00000000000E+00 -0.10149745627E+03  0.10149745627E+03  0.00000000000E+00 0. -1.
          6    2    1    2  501    0 -0.32086812807E+02 -0.11341694215E+03  0.42767979249E+03  0.47585015382E+03  0.17213482409E+03 0.  0.
         24    2    3    3    0    0 -0.52556928496E+02 -0.14604369622E+02  0.13281226222E+03  0.16415815756E+03  0.79581941119E+02 0.  0.
         -6    2    1    2    0  502  0.32086812807E+02  0.11341694215E+03  0.62363871681E+02  0.21718842289E+03  0.17143101301E+03 0.  0.
        -24    2    5    5    0    0 -0.88683881784E+01  0.45459323113E+02  0.98690673539E+02  0.12979681570E+03  0.70442643025E+02 0.  0.
          5    1    3    3  501    0  0.20470115689E+02 -0.98812572530E+02  0.29486753028E+03  0.31169199627E+03  0.47000000000E+01 0. -1.
        -13    1    4    4    0    0 -0.22978905851E+02 -0.42406565641E+02  0.10319009853E+03  0.11390585305E+03  0.00000000000E+00 0.  1.
         14    1    4    4    0    0 -0.29578022645E+02  0.27802196019E+02  0.29622163685E+02  0.50252304508E+02  0.00000000000E+00 0. -1.
         -5    1    5    5    0  502  0.40955200985E+02  0.67957619039E+02 -0.36326801858E+02  0.87391607185E+02  0.47000000000E+01 0.  1.
         13    1    6    6    0    0  0.21931423589E+02 -0.73790363336E+01  0.27776285503E+02  0.36151895582E+02  0.00000000000E+00 0. -1.
        -14    1    6    6    0    0 -0.30799811767E+02  0.52838359447E+02  0.70914388036E+02  0.93644920121E+02  0.00000000000E+00 0.  1.
</event>
<event>
12    1  0.1046899E+000  0.2528831E+03  0.7818608E-02  0.1111526E+00
         21   -1    0    0  503  502  0.00000000000E+00  0.00000000000E+00  0.26856832307E+03  0.26856832307E+03  0.00000000000E+00 0. -1.
         21   -1    0    0  501  503 -0.00000000000E+00 -0.00000000000E+00 -0.23843061093E+03  0.23843061093E+03  0.00000000000E+00 0. -1.
          6    2    1    2  501    0 -0.13849165681E+03  0.12099470593E+03  0.34618501956E+01  0.25271270945E+03  0.17329763773E+03 0.  0.
         24    2    3    3    0    0 -0.15858330372E+03  0.65630949147E+02  0.21884097269E+02  0.19082338058E+03  0.80489522040E+02 0.  0.
         -6    2    1    2    0  502  0.13849165681E+03 -0.12099470593E+03  0.26675861949E+02  0.25428622455E+03  0.17358059948E+03 0.  0.
        -24    2    5    5    0    0  0.16117007796E+03 -0.13178217726E+03  0.38339265667E+02  0.22620054654E+03  0.79714814754E+02 0.  0.
          5    1    3    3  501    0  0.20091646908E+02  0.55363756786E+02 -0.18422247073E+02  0.61889328871E+02  0.47000000000E+01 0. -1.
        -13    1    4    4    0    0 -0.43862801300E+02  0.31052872950E+02 -0.28512957248E+02  0.60837611618E+02  0.00000000000E+00 0.  1.
         14    1    4    4    0    0 -0.11472050242E+03  0.34578076197E+02  0.50397054516E+02  0.12998576896E+03  0.00000000000E+00 0. -1.
         -5    1    5    5    0  502 -0.22678421143E+02  0.10787471326E+02 -0.11663403717E+02  0.28085678013E+02  0.47000000000E+01 0.  1.
         13    1    6    6    0    0  0.58490217575E+02 -0.81316298989E+02 -0.12609873625E+02  0.10095768889E+03  0.00000000000E+00 0. -1.
        -14    1    6    6    0    0  0.10267986038E+03 -0.50465878270E+02  0.50949139292E+02  0.12524285765E+03  0.00000000000E+00 0.  1.
</event>
<event>
12    1  0.1046899E+000  0.3599939E+03  0.7818608E-02  0.1058804E+00
         21   -1    0    0  503  502  0.00000000000E+00  0.00000000000E+00  0.14050875265E+04  0.14050875265E+04  0.00000000000E+00 0. -1.
         21   -1    0    0  501  503 -0.00000000000E+00 -0.00000000000E+00 -0.92207566055E+02  0.92207566055E+02  0.00000000000E+00 0. -1.
          6    2    1    2  501    0  0.12556442735E+03  0.28896841910E+03  0.71154375062E+03  0.79643787203E+03  0.16955707682E+03 0.  0.
         24    2    3    3    0    0  0.52897777269E+02  0.26108623682E+03  0.51233965596E+03  0.58251681310E+03  0.76614075606E+02 0.  0.
         -6    2    1    2    0  502 -0.12556442735E+03 -0.28896841910E+03  0.60133620982E+03  0.70085722052E+03  0.17414486403E+03 0.  0.
        -24    2    5    5    0    0 -0.10105582437E+03 -0.82498115232E+02  0.28480117168E+03  0.32211300820E+03  0.75012425667E+02 0.  0.
          5    1    3    3  501    0  0.72666650076E+02  0.27882182280E+02  0.19920409466E+03  0.21392105893E+03  0.47000000000E+01 0. -1.
        -13    1    4    4    0    0  0.69163130693E+02  0.18525587893E+03  0.33590378183E+03  0.38978792948E+03  0.00000000000E+00 0.  1.
         14    1    4    4    0    0 -0.16265353424E+02  0.75830357883E+02  0.17643587413E+03  0.19272888362E+03  0.00000000000E+00 0. -1.
         -5    1    5    5    0  502 -0.24508602972E+02 -0.20647030387E+03  0.31653503814E+03  0.37874421232E+03  0.47000000000E+01 0.  1.
         13    1    6    6    0    0 -0.57407692663E+01  0.87694531463E+01  0.64227116657E+02  0.65076741270E+02  0.00000000000E+00 0. -1.
        -14    1    6    6    0    0 -0.95315055107E+02 -0.91267568379E+02  0.22057405502E+03  0.25703626693E+03  0.00000000000E+00 0.  1.
</event>
<event>
12    1  0.1102966E+000  0.3182717E+03  0.7818608E-02  0.1076452E+00
         21   -1    0    0  501  502  0.00000000000E+00  0.00000000000E+00  0.27911464686E+03  0.27911464686E+03  0.00000000000E+00 0.  1.
         21   -1    0    0  502  503 -0.00000000000E+00 -0.00000000000E+00 -0.11052474649E+04  0.11052474649E+04  0.00000000000E+00 0.  1.
         -6    2    1    2    0  503  0.20996854092E+03  0.16723997437E+03  0.15422588561E+03  0.35363417985E+03  0.17092545792E+03 0.  0.
        -24    2    3    3    0    0  0.20867327859E+03  0.12506541909E+03  0.17088802189E+03  0.30802620244E+03  0.80570026159E+02 0.  0.
          6    2    1    2  501    0 -0.20996854092E+03 -0.16723997437E+03 -0.98035870368E+03  0.10307279319E+04  0.17099966254E+03 0.  0.
         24    2    5    5    0    0 -0.22479425142E+03 -0.17925897799E+03 -0.92562272919E+03  0.97256974212E+03  0.80300870652E+02 0.  0.
          5    1    5    5  501    0  0.14825710498E+02  0.12019003619E+02 -0.54735974484E+02  0.58158189815E+02  0.47000000000E+01 0. -1.
        -13    1    6    6    0    0 -0.13100252298E+03 -0.11008711939E+03 -0.67214678431E+03  0.69358642904E+03  0.00000000000E+00 0.  1.
         14    1    6    6    0    0 -0.93791728440E+02 -0.69171858598E+02 -0.25347594488E+03  0.27898331308E+03  0.00000000000E+00 0. -1.
         -5    1    3    3    0  503  0.12952623301E+01  0.42174555282E+02 -0.16662136284E+02  0.45607977409E+02  0.47000000000E+01 0.  1.
         11    1    4    4    0    0  0.30346995261E+02 -0.19310508763E+00 -0.11671451640E+01  0.30370045090E+02  0.00000000000E+00 0. -1.
        -12    1    4    4    0    0  0.17832628333E+03  0.12525852418E+03  0.17205516706E+03  0.27765615736E+03  0.00000000000E+00 0.  1.
</event>
<event>
12    1  0.1046899E+000  0.3199219E+03  0.7818608E-02  0.1076235E+00
         21   -1    0    0  501  502  0.00000000000E+00  0.00000000000E+00  0.13270948577E+04  0.13270948577E+04  0.00000000000E+00 0. -1.
         21   -1    0    0  502  503 -0.00000000000E+00 -0.00000000000E+00 -0.77962514275E+02  0.77962514275E+02  0.00000000000E+00 0. -1.
         -6    2    1    2    0  503  0.16031195938E+03  0.20946695602E+03  0.74097137065E+03  0.80708648036E+03  0.18103503716E+03 0.  0.
        -24    2    3    3    0    0  0.18247922891E+03  0.12950910168E+03  0.55228417395E+03  0.60090793029E+03  0.77467770719E+02 0.  0.
          6    2    1    2  501    0 -0.16031195938E+03 -0.20946695602E+03  0.50816097276E+03  0.59797089160E+03  0.17252618055E+03 0.  0.
         24    2    5    5    0    0 -0.17318479168E+03 -0.12103696351E+03  0.37232022474E+03  0.43530444696E+03  0.78896724827E+02 0.  0.
          5    1    5    5  501    0  0.12872832304E+02 -0.88429992508E+02  0.13584074802E+03  0.16266644463E+03  0.47000000000E+01 0. -1.
        -11    1    6    6    0    0 -0.84082398990E+02 -0.10285388304E+03  0.24708159092E+03  0.28053178723E+03  0.00000000000E+00 0.  1.
         12    1    6    6    0    0 -0.89102392695E+02 -0.18183080474E+02  0.12523863383E+03  0.15477265974E+03  0.00000000000E+00 0. -1.
         -5    1    3    3    0  503 -0.22167269527E+02  0.79957854338E+02  0.18868719671E+03  0.20617855007E+03  0.47000000000E+01 0.  1.
         11    1    4    4    0    0  0.16510545918E+03  0.83978126628E+02  0.39559496774E+03  0.43681519766E+03  0.00000000000E+00 0. -1.
        -12    1    4    4    0    0  0.17373769731E+02  0.45530975051E+02  0.15668920620E+03  0.16409273264E+03  0.00000000000E+00 0.  1.
</event>
<event>
12    1  0.1046899E+000  0.2536103E+03  0.7818608E-02  0.1111266E+00
         21   -1    0    0  501  502  0.00000000000E+00  0.00000000000E+00  0.77235208616E+02  0.77235208616E+02  0.00000000000E+00 0. -1.
         21   -1    0    0  502  503 -0.00000000000E+00 -0.00000000000E+00 -0.83469324455E+03  0.83469324455E+03  0.00000000000E+00 0. -1.
         -6    2    1    2    0  503 -0.12377176106E+03  0.13933821601E+03 -0.42033094591E+03  0.49091372722E+03  0.17199882617E+03 0.  0.
        -24    2    3    3    0    0 -0.76477156310E+02  0.15801471055E+03 -0.37987687514E+03  0.42576610310E+03  0.78440615074E+02 0.  0.
          6    2    1    2  501    0  0.12377176106E+03 -0.13933821601E+03 -0.33712709002E+03  0.42101472595E+03  0.16989448890E+03 0.  0.
         24    2    5    5    0    0  0.28026746834E+02 -0.14288549507E+03 -0.19956541346E+03  0.25330964016E+03  0.56014786540E+02 0.  0.
          5    1    5    5  501    0  0.95745014226E+02  0.35472790572E+01 -0.13756167657E+03  0.16770508578E+03  0.47000000000E+01 0. -1.
        -13    1    6    6    0    0  0.23440458136E+01 -0.65444646963E+02 -0.48050560916E+02  0.81224089846E+02  0.00000000000E+00 0.  1.
         14    1    6    6    0    0  0.25682701020E+02 -0.77440848109E+02 -0.15151485254E+03  0.17208555032E+03  0.00000000000E+00 0. -1.
         -5    1    3    3    0  503 -0.47294604750E+02 -0.18676494537E+02 -0.40454070764E+02  0.65147624116E+02  0.47000000000E+01 0.  1.
         11    1    4    4    0    0  0.13616604077E+02  0.76930607989E+01 -0.47620867948E+02  0.50123269598E+02  0.00000000000E+00 0. -1.
        -12    1    4    4    0    0 -0.90093760387E+02  0.15032164975E+03 -0.33225600720E+03  0.37564283350E+03  0.00000000000E+00 0.  1.
</event>
<event>
12    1  0.1046899E+000  0.2830301E+03  0.7818608E-02  0.1094425E+00
         21   -1    0    0  501  502  0.00000000000E+00  0.00000000000E+00  0.24788761348E+03  0.24788761348E+03  0.00000000000E+00 0.  1.
         21   -1    0    0  502  503 -0.00000000000E+00 -0.00000000000E+00 -0.54601593339E+03  0.54601593339E+03  0.00000000000E+00 0.  1.
         -6    2    1    2    0  503  0.10038132609E+03 -0.19865674700E+03  0.10677875191E+03  0.29988352630E+03  0.17025719877E+03 0.  0.
        -24    2    3    3    0    0  0.93821603724E+02 -0.21692923688E+03  0.73430748583E+02  0.26101074444E+03  0.82908061946E+02 0.  0.
          6    2    1    2  501    0 -0.10038132609E+03  0.19865674700E+03 -0.40490707182E+03  0.49402002056E+03  0.17482885959E+03 0.  0.
         24    2    5    5    0    0 -0.96344969009E+02  0.62704535870E+02 -0.16034324725E+03  0.21413995664E+03  0.83257145151E+02 0.  0.
          5    1    5    5  501    0 -0.40363570787E+01  0.13595221113E+03 -0.24456382457E+03  0.27988006392E+03  0.47000000000E+01 0. -1.
        -13    1    6    6    0    0 -0.64783012612E+01 -0.89246538334E-01 -0.74808763311E+02  0.75088796903E+02  0.00000000000E+00 0.  1.
         14    1    6    6    0    0 -0.89866667747E+02  0.62793782409E+02 -0.85534483938E+02  0.13905115974E+03  0.00000000000E+00 0. -1.
         -5    1    3    3    0  503  0.65597223639E+01  0.18272489880E+02  0.33348003331E+02  0.38872781867E+02  0.47000000000E+01 0.  1.
         13    1    4    4    0    0  0.77725877770E+02 -0.18006409033E+03  0.92090177115E+02  0.21666792431E+03  0.00000000000E+00 0. -1.
        -14    1    4    4    0    0  0.16095725954E+02 -0.36865146546E+02 -0.18659428533E+02  0.44342820129E+02  0.00000000000E+00 0.  1.
</event>
<event>
12    1  0.1046899E+000  0.1954459E+03  0.7818608E-02  0.1153949E+00
         21   -1    0    0  501  502  0.00000000000E+00  0.00000000000E+00  0.49654271062E+02  0.49654271062E+02  0.00000000000E+00 0. -1.
         21   -1    0    0  502  503 -0.00000000000E+00 -0.00000000000E+00 -0.80196845697E+03  0.80196845697E+03  0.00000000000E+00 0. -1.
         -6    2    1    2    0  503  0.79730844333E+02 -0.51521274246E+02 -0.28446630548E+03  0.34513789055E+03  0.17084389161E+03 0.  0.
        -24    2    3    3    0    0  0.11856216830E+03 -0.62623761443E+02 -0.21467171533E+03  0.26436344064E+03  0.76324046906E+02 0.  0.
          6    2    1    2  501    0 -0.79730844333E+02  0.51521274246E+02 -0.46784788042E+03  0.50648483748E+03  0.16921525387E+03 0.  0.
         24    2    5    5    0    0 -0.74064972379E+02  0.96319309660E+02 -0.39226212133E+03  0.41831305594E+03  0.79707034788E+02 0.  0.
          5    1    5    5  501    0 -0.56658719542E+01 -0.44798035414E+02 -0.75585759091E+02  0.88171781537E+02  0.47000000000E+01 0. -1.
        -11    1    6    6    0    0 -0.53894327997E+02  0.64543339661E+02 -0.14039720264E+03  0.16365150715E+03  0.00000000000E+00 0.  1.
         12    1    6    6    0    0 -0.20170644382E+02  0.31775969999E+02 -0.25186491869E+03  0.25466154879E+03  0.00000000000E+00 0. -1.
         -5    1    3    3    0  503 -0.38831323969E+02  0.11102487197E+02 -0.69794590152E+02  0.80774449906E+02  0.47000000000E+01 0.  1.
         13    1    4    4    0    0  0.11270622081E+02  0.87161298843E+01 -0.66491837330E+02  0.68001193179E+02  0.00000000000E+00 0. -1.
        -14    1    4    4    0    0  0.10729154622E+03 -0.71339891327E+02 -0.14817987800E+03  0.19636224747E+03  0.00000000000E+00 0.  1.
</event>
<event>
12    1  0.1046899E+000  0.1943965E+03  0.7818608E-02  0.1155200E+00
         21   -1    0    0  503  502  0.00000000000E+00  0.00000000000E+00  0.94218589439E+02  0.94218589439E+02  0.00000000000E+00 0. -1.
         21   -1    0    0  501  503 -0.00000000000E+00 -0.00000000000E+00 -0.44109595754E+03  0.44109595754E+03  0.00000000000E+00 0. -1.
          6    2    1    2  501    0  0.59779280626E+02  0.66962421235E+02 -0.26106521588E+03  0.32549201061E+03  0.17243106964E+03 0.  0.
         24    2    3    3    0    0 -0.18296474319E+02  0.76666076175E+02 -0.18703104657E+03  0.21735722131E+03  0.77788823549E+02 0.  0.
         -6    2    1    2    0  502 -0.59779280626E+02 -0.66962421235E+02 -0.85812152224E+02  0.20982253637E+03  0.16912788963E+03 0.  0.
        -24    2    5    5    0    0 -0.10153066434E+03 -0.36305097666E+02 -0.37867047417E+02  0.13908448010E+03  0.79271958513E+02 0.  0.
          5    1    3    3  501    0  0.78075754945E+02 -0.97036549400E+01 -0.74034169314E+02  0.10813478929E+03  0.47000000000E+01 0. -1.
        -13    1    4    4    0    0 -0.38103627094E+02  0.25630934753E+02 -0.41596091807E+02  0.61960197447E+02  0.00000000000E+00 0.  1.
         14    1    4    4    0    0  0.19807152775E+02  0.51035141422E+02 -0.14543495476E+03  0.15539702387E+03  0.00000000000E+00 0. -1.
         -5    1    5    5    0  502  0.41751383715E+02 -0.30657323569E+02 -0.47945104808E+02  0.70738056275E+02  0.47000000000E+01 0.  1.
         13    1    6    6    0    0 -0.31142019960E+02  0.72171938271E+01 -0.45903658113E+02  0.55937993547E+02  0.00000000000E+00 0. -1.
        -14    1    6    6    0    0 -0.70388644381E+02 -0.43522291494E+02  0.80366106962E+01  0.83146486553E+02  0.00000000000E+00 0.  1.
</event>
<event>
12    1  0.1046899E+000  0.2896701E+03  0.7818608E-02  0.1090554E+00
         21   -1    0    0  501  502  0.00000000000E+00  0.00000000000E+00  0.20592010020E+03  0.20592010020E+03  0.00000000000E+00 0. -1.
         21   -1    0    0  502  503 -0.00000000000E+00 -0.00000000000E+00 -0.57208292753E+03  0.57208292753E+03  0.00000000000E+00 0. -1.
         -6    2    1    2    0  503 -0.19911394134E+03  0.11987724004E+03  0.25744830576E+02  0.29081192276E+03  0.17289263664E+03 0.  0.
        -24    2    3    3    0    0 -0.45559202420E+02  0.26366393763E+02  0.51832409519E+02  0.10908138600E+03  0.80257849777E+02 0.  0.
          6    2    1    2  501    0  0.19911394134E+03 -0.11987724004E+03 -0.39190765791E+03  0.48719110498E+03  0.17247216044E+03 0.  0.
         24    2    5    5    0    0  0.15696166057E+03 -0.29922954126E+02 -0.31382935241E+03  0.36075179100E+03  0.78234558895E+02 0.  0.
          5    1    5    5  501    0  0.42152280768E+02 -0.89954285916E+02 -0.78078305499E+02  0.12643931397E+03  0.47000000000E+01 0. -1.
        -11    1    6    6    0    0  0.11821303879E+03 -0.28962490766E+02 -0.15399356357E+03  0.19628338195E+03  0.00000000000E+00 0.  1.
         12    1    6    6    0    0  0.38748621777E+02 -0.96046336003E+00 -0.15983578884E+03  0.16446840905E+03  0.00000000000E+00 0. -1.
         -5    1    3    3    0  503 -0.15355473892E+03  0.93510846279E+02 -0.26087578943E+02  0.18173053676E+03  0.47000000000E+01 0.  1.
         11    1    4    4    0    0  0.13979698796E+02 -0.38763890429E+01 -0.10360138626E+02  0.17826689059E+02  0.00000000000E+00 0. -1.
        -12    1    4    4    0    0 -0.59538901216E+02  0.30242782806E+02  0.62192548146E+02  0.91254696946E+02  0.00000000000E+00 0.  1.
</event>
<event>
12    1  0.1046899E+000  0.2008853E+03  0.7818608E-02  0.1149038E+00
         21   -1    0    0  503  502  0.00000000000E+00  0.00000000000E+00  0.30591001924E+03  0.30591001924E+03  0.00000000000E+00 0. -1.
         21   -1    0    0  501  503 -0.00000000000E+00 -0.00000000000E+00 -0.14564925621E+03  0.14564925621E+03  0.00000000000E+00 0. -1.
          6    2    1    2  501    0  0.75545709314E+02  0.72674199575E+02  0.10419211708E+02  0.20094521240E+03  0.17111903732E+03 0.  0.
         24    2    3    3    0    0  0.70059423918E+02 -0.59804935967E+01 -0.33650295878E+02  0.11049704169E+03  0.78314523731E+02 0.  0.
         -6    2    1    2    0  502 -0.75545709314E+02 -0.72674199575E+02  0.14984155132E+03  0.25061406305E+03  0.17136576267E+03 0.  0.
        -24    2    5    5    0    0  0.23944482884E+01  0.69917981950E+01  0.88264066840E+02  0.12319657617E+03  0.85628454729E+02 0.  0.
          5    1    3    3  501    0  0.54862853961E+01  0.78654693171E+02  0.44069507586E+02  0.90448170707E+02  0.47000000000E+01 0. -1.
        -13    1    4    4    0    0  0.23645700140E+02  0.34920257903E+02 -0.55003584376E+01  0.42529959912E+02  0.00000000000E+00 0.  1.
         14    1    4    4    0    0  0.46413723777E+02 -0.40900751500E+02 -0.28149937441E+02  0.67967081783E+02  0.00000000000E+00 0. -1.
         -5    1    5    5    0  502 -0.77940157602E+02 -0.79665997770E+02  0.61577484482E+02  0.12741748688E+03  0.47000000000E+01 0.  1.
         11    1    6    6    0    0 -0.34534983377E+02 -0.58302346214E+01  0.11176905552E+02  0.36763839983E+02  0.00000000000E+00 0. -1.
        -12    1    6    6    0    0  0.36929431665E+02  0.12822032816E+02  0.77087161287E+02  0.86432736183E+02  0.00000000000E+00 0.  1.
</event>
<event>
12    1  0.1046899E+000  0.3981860E+03  0.7818608E-02  0.1044538E+00
         21   -1    0    0  503  502  0.00000000000E+00  0.00000000000E+00  0.48529080024E+03  0.48529080024E+03  0.00000000000E+00 0.  1.
         21   -1    0    0  501  503 -0.00000000000E+00 -0.00000000000E+00 -0.32551494529E+03  0.32551494529E+03  0.00000000000E+00 0.  1.
          6    2    1    2  501    0 -0.33239465285E+03 -0.13334403828E+03  0.77733845088E+02  0.40425559989E+03  0.17062591122E+03 0.  0.
         24    2    3    3    0    0 -0.90307198200E+02 -0.67522862035E+02  0.63619507398E+02  0.15293893217E+03  0.81413440589E+02 0.  0.
         -6    2    1    2    0  502  0.33239465285E+03  0.13334403828E+03  0.82042009865E+02  0.40655014564E+03  0.17402669836E+03 0.  0.
        -24    2    5    5    0    0  0.32502320117E+03  0.15559779133E+03  0.92306394694E+02  0.38053062564E+03  0.80201824055E+02 0.  0.
          5    1    3    3  501    0 -0.24208745465E+03 -0.65821176242E+02  0.14114337690E+02  0.25131666772E+03  0.47000000000E+01 0. -1.
        -11    1    4    4    0    0 -0.78445867600E+02 -0.84073696954E+02  0.39981943790E+02  0.12174028295E+03  0.00000000000E+00 0.  1.
         12    1    4    4    0    0 -0.11861330600E+02  0.16550834920E+02  0.23637563607E+02  0.31198649225E+02  0.00000000000E+00 0. -1.
         -5    1    5    5    0  502  0.73714516797E+01 -0.22253753052E+02 -0.10264384829E+02  0.26019519994E+02  0.47000000000E+01 0.  1.
         13    1    6    6    0    0  0.12538800809E+03  0.18424126093E+02  0.37823856292E+02  0.13225825154E+03  0.00000000000E+00 0. -1.
        -14    1    6    6    0    0  0.19963519308E+03  0.13717366524E+03  0.54482538402E+02  0.24827237410E+03  0.00000000000E+00 0.  1.
</event>
<event>
12    1  0.1046899E+000  0.1723374E+03  0.7818608E-02  0.1179474E+00
         21   -1    0    0  501  502  0.00000000000E+00  0.00000000000E+00  0.26169251450E+02  0.26169251450E+02  0.00000000000E+00 0.  1.
         21   -1    0    0  502  503 -0.00000000000E+00 -0.00000000000E+00 -0.20800517399E+04  0.20800517399E+04  0.00000000000E+00 0.  1.
         -6    2    1    2    0  503  0.56471075003E+01  0.63560658705E+01 -0.17485367594E+04  0.17555984092E+04  0.15707541512E+03 0.  0.
        -24    2    3    3    0    0 -0.15926169401E+02 -0.27484780313E+02 -0.15791480356E+04  0.15814569756E+04  0.79300638842E+02 0.  0.
          6    2    1    2  501    0 -0.56471075003E+01 -0.63560658705E+01 -0.30534572905E+03  0.35062258214E+03  0.17212754417E+03 0.  0.
         24    2    5    5    0    0  0.20209492665E+01 -0.14967491000E+02 -0.54137128512E+02  0.99105571344E+02  0.81627051675E+02 0.  0.
          5    1    5    5  501    0 -0.76680567668E+01  0.86114251300E+01 -0.25120860053E+03  0.25151701080E+03  0.47000000000E+01 0. -1.
        -13    1    6    6    0    0 -0.28255110670E+02 -0.26116277265E+02 -0.54652514004E+02  0.66837927138E+02  0.00000000000E+00 0.  1.
         14    1    6    6    0    0  0.30276059936E+02  0.11148786264E+02  0.51538549124E+00  0.32267644206E+02  0.00000000000E+00 0. -1.
         -5    1    3    3    0  503  0.21573276901E+02  0.33840846184E+02 -0.16938872377E+03  0.17414143357E+03  0.47000000000E+01 0.  1.
         11    1    4    4    0    0  0.14421518378E+02 -0.19575985290E+02 -0.14944860183E+03  0.15141361888E+03  0.00000000000E+00 0. -1.
        -12    1    4    4    0    0 -0.30347687779E+02 -0.79087950228E+01 -0.14296994338E+04  0.14300433567E+04  0.00000000000E+00 0.  1.
</event>
<event>
12    1  0.1046899E+000  0.2804565E+03  0.7818608E-02  0.1095514E+00
         21   -1    0    0  501  502  0.00000000000E+00  0.00000000000E+00  0.15388072395E+03  0.15388072395E+03  0.00000000000E+00 0.  1.
         21   -1    0    0  502  503 -0.00000000000E+00 -0.00000000000E+00 -0.57558259703E+03  0.57558259703E+03  0.00000000000E+00 0.  1.
         -6    2    1    2    0  503 -0.22133072979E+03  0.85133750798E+01 -0.33364137409E+03  0.43550668997E+03  0.17114245821E+03 0.  0.
        -24    2    3    3    0    0 -0.65751970459E+02 -0.25052763903E+02 -0.63551825404E+02  0.12197536721E+03  0.76734562594E+02 0.  0.
          6    2    1    2  501    0  0.22133072979E+03 -0.85133750798E+01 -0.88060498986E+02  0.29395663101E+03  0.17203511248E+03 0.  0.
         24    2    5    5    0    0  0.60385520697E+02  0.42711125756E+02 -0.13015784538E+02  0.10907529343E+03  0.79103461475E+02 0.  0.
          5    1    5    5  501    0  0.16094520910E+03 -0.51224500836E+02 -0.75044714447E+02  0.18488133758E+03  0.47000000000E+01 0. -1.
        -11    1    6    6    0    0  0.19132045812E+02  0.22215326720E+02 -0.44492539670E+02  0.53283599771E+02  0.00000000000E+00 0.  1.
         12    1    6    6    0    0  0.41253474885E+02  0.20495799036E+02  0.31476755132E+02  0.55791693663E+02  0.00000000000E+00 0. -1.
         -5    1    3    3    0  503 -0.15557875934E+03  0.33566138983E+02 -0.27008954868E+03  0.31353132276E+03  0.47000000000E+01 0.  1.
         13    1    4    4    0    0  0.14169054708E+02  0.88228777338E+01 -0.15399814441E+02  0.22710340544E+02  0.00000000000E+00 0. -1.
        -14    1    4    4    0    0 -0.79921025167E+02 -0.33875641637E+02 -0.48152010963E+02  0.99265026670E+02  0.00000000000E+00 0.  1.
</event>
<event>
12    1  0.1046899E+000  0.2013706E+03  0.7818608E-02  0.1148902E+00
         21   -1    0    0  503  502  0.00000000000E+00  0.00000000000E+00  0.14791747205E+03  0.14791747205E+03  0.00000000000E+00 0.  1.
         21   -1    0    0  501  503 -0.00000000000E+00 -0.00000000000E+00 -0.31051988566E+03  0.31051988566E+03  0.00000000000E+00 0.  1.
          6    2    1    2  501    0 -0.98133200806E+02  0.32195461037E+02 -0.94786091499E+00  0.20137279592E+03  0.17286824950E+03 0.  0.
         24    2    3    3    0    0 -0.73343465972E+02 -0.44396274723E+02 -0.19322632512E+02  0.11866519548E+03  0.79735633695E+02 0.  0.
         -6    2    1    2    0  502  0.98133200806E+02 -0.32195461037E+02 -0.16165455270E+03  0.25706456179E+03  0.17112370295E+03 0.  0.
        -24    2    5    5    0    0  0.94961388982E+02 -0.40898192722E+02 -0.18778430968E+03  0.22894602469E+03  0.80392833598E+02 0.  0.
          5    1    3    3  501    0 -0.24789734834E+02  0.76591735760E+02  0.18374771597E+02  0.82707600444E+02  0.47000000000E+01 0. -1.
        -13    1    4    4    0    0  0.30706707130E+01 -0.12441655430E+02  0.22488708790E+02  0.25883698181E+02  0.00000000000E+00 0.  1.
         14    1    4    4    0    0 -0.76414136685E+02 -0.31954619292E+02 -0.41811341302E+02  0.92781497298E+02  0.00000000000E+00 0. -1.
         -5    1    5    5    0  502  0.31718118238E+01  0.87027316844E+01  0.26129756981E+02  0.28118537104E+02  0.47000000000E+01 0.  1.
         13    1    6    6    0    0  0.18876558351E+02 -0.48323644799E+02 -0.99118551128E+02  0.11187486885E+03  0.00000000000E+00 0. -1.
        -14    1    6    6    0    0  0.76084830631E+02  0.74254520777E+01 -0.88665758548E+02  0.11707115584E+03  0.00000000000E+00 0.  1.
</event>
<event>
12    1  0.1046899E+000  0.1991046E+03  0.7818608E-02  0.1150894E+00
         21   -1    0    0  501  502  0.00000000000E+00  0.00000000000E+00  0.57040892763E+03  0.57040892763E+03  0.00000000000E+00 0.  1.
         21   -1    0    0  502  503 -0.00000000000E+00 -0.00000000000E+00 -0.75986514296E+02  0.75986514296E+02  0.00000000000E+00 0.  1.
         -6    2    1    2    0  503 -0.95929695734E+02 -0.48772924693E+01  0.34520635955E+03  0.39758212293E+03  0.17227251462E+03 0.  0.
        -24    2    3    3    0    0 -0.62514551826E+02 -0.40844386400E+02  0.10453683616E+03  0.15191138154E+03  0.81072712027E+02 0.  0.
          6    2    1    2  501    0  0.95929695734E+02  0.48772924693E+01  0.14921605379E+03  0.24881331900E+03  0.17440281677E+03 0.  0.
         24    2    5    5    0    0 -0.13421730601E+02  0.77313262601E+01  0.89002427043E+02  0.12385872406E+03  0.84732728322E+02 0.  0.
          5    1    5    5  501    0  0.10935142633E+03 -0.28540337908E+01  0.60213626745E+02  0.12495459494E+03  0.47000000000E+01 0. -1.
        -13    1    6    6    0    0 -0.23891646596E+02 -0.26174292610E+02  0.93378628146E+01  0.36648329466E+02  0.00000000000E+00 0.  1.
         14    1    6    6    0    0  0.10469915995E+02  0.33905618871E+02  0.79664564228E+02  0.87210394596E+02  0.00000000000E+00 0. -1.
         -5    1    3    3    0  503 -0.33415143907E+02  0.35967093931E+02  0.24066952339E+03  0.24567074139E+03  0.47000000000E+01 0.  1.
         13    1    4    4    0    0 -0.24721541727E+02 -0.37740204565E+02  0.10468252002E+03  0.11399082272E+03  0.00000000000E+00 0. -1.
        -14    1    4    4    0    0 -0.37793010100E+02 -0.31041818349E+01 -0.14568386175E+00  0.37920558818E+02  0.00000000000E+00 0.  1.
</event>
<event>
12    1  0.1046899E+000  0.1916927E+03  0.7818608E-02  0.1157001E+00
         21   -1    0    0  501  502  0.00000000000E+00  0.00000000000E+00  0.61476622657E+03  0.61476622657E+03  0.00000000000E+00 0. -1.
         21   -1    0    0  502  503 -0.00000000000E+00 -0.00000000000E+00 -0.79055819165E+02  0.79055819165E+02  0.00000000000E+00 0. -1.
         -6    2    1    2    0  503  0.34994902277E+02 -0.77336687531E+02  0.96029425349E+02  0.21417064065E+03  0.17158614851E+03 0.  0.
        -24    2    3    3    0    0  0.22290552453E+02  0.30252595688E+02  0.54177560566E+02  0.97935865499E+02  0.72416416700E+02 0.  0.
          6    2    1    2  501    0 -0.34994902277E+02  0.77336687531E+02  0.43968098206E+03  0.47965140509E+03  0.17187349417E+03 0.  0.
         24    2    5    5    0    0 -0.16826426973E+02 -0.24237468745E+01  0.34480148796E+03  0.35428781870E+03  0.79641629743E+02 0.  0.
          5    1    5    5  501    0 -0.18168475303E+02  0.79760434406E+02  0.94879494100E+02  0.12536358639E+03  0.47000000000E+01 0. -1.
        -13    1    6    6    0    0  0.21566953551E+02  0.16707957895E+02  0.23211656373E+03  0.23371433097E+03  0.00000000000E+00 0.  1.
         14    1    6    6    0    0 -0.38393380524E+02 -0.19131704770E+02  0.11268492422E+03  0.12057348773E+03  0.00000000000E+00 0. -1.
         -5    1    3    3    0  503  0.12704349823E+02 -0.10758928322E+03  0.41851864783E+02  0.11623477515E+03  0.47000000000E+01 0.  1.
         11    1    4    4    0    0  0.21909239022E+01  0.11385433653E+02  0.66669494586E+02  0.67670154096E+02  0.00000000000E+00 0. -1.
        -12    1    4    4    0    0  0.20099628551E+02  0.18867162035E+02 -0.12491934021E+02  0.30265711403E+02  0.00000000000E+00 0.  1.
</event>
<event>
12    1  0.1046899E+000  0.2765001E+03  0.7818608E-02  0.1097660E+00
         21   -1    0    0  501  502  0.00000000000E+00  0.00000000000E+00  0.54649441916E+02  0.54649441916E+02  0.00000000000E+00 0. -1.
         21   -1    0    0  502  503 -0.00000000000E+00 -0.00000000000E+00 -0.14073396394E+04  0.14073396394E+04  0.00000000000E+00 0. -1.
         -6    2    1    2    0  503 -0.20935628608E+03 -0.51785851001E+02 -0.61444767057E+03  0.67366534588E+03  0.17253182164E+03 0.  0.
        -24    2    3    3    0    0 -0.17951297035E+03 -0.82027321601E+01 -0.33642360120E+03  0.39062897915E+03  0.84368054172E+02 0.  0.
          6    2    1    2  501    0  0.20935628608E+03  0.51785851001E+02 -0.73824252695E+03  0.78832373547E+03  0.17303310213E+03 0.  0.
         24    2    5    5    0    0  0.16335380740E+03  0.91321676893E+02 -0.64888104874E+03  0.68021789215E+03  0.81398097761E+02 0.  0.
          5    1    5    5  501    0  0.46002478689E+02 -0.39535825893E+02 -0.89361478205E+02  0.10810584333E+03  0.47000000000E+01 0. -1.
        -13    1    6    6    0    0  0.77973711634E+02  0.68830034687E+02 -0.23442608419E+03  0.25646259441E+03  0.00000000000E+00 0.  1.
         14    1    6    6    0    0  0.85380095762E+02  0.22491642206E+02 -0.41445496455E+03  0.42375529774E+03  0.00000000000E+00 0. -1.
         -5    1    3    3    0  503 -0.29843315730E+02 -0.43583118841E+02 -0.27802406938E+03  0.28303636673E+03  0.47000000000E+01 0.  1.
         13    1    4    4    0    0 -0.30327904593E+02  0.21830009174E+02 -0.12269358362E+03  0.12825773489E+03  0.00000000000E+00 0. -1.
        -14    1    4    4    0    0 -0.14918506576E+03 -0.30032741334E+02 -0.21373001758E+03  0.26237124425E+03  0.00000000000E+00 0.  1.
</event>
<event>
12    1  0.1046899E+000  0.1730864E+03  0.7818608E-02  0.1175108E+00
         21   -1    0    0  503  502  0.00000000000E+00  0.00000000000E+00  0.84396429535E+02  0.84396429535E+02  0.00000000000E+00 0.  1.
         21   -1    0    0  501  503 -0.00000000000E+00 -0.00000000000E+00 -0.35170194962E+03  0.35170194962E+03  0.00000000000E+00 0.  1.
          6    2    1    2  501    0  0.77912089078E+01  0.12112674029E+01 -0.12857044900E+03  0.21561368629E+03  0.17290671257E+03 0.  0.
         24    2    3    3    0    0  0.73361490681E+02 -0.21837408837E+01 -0.84369268991E+02  0.13632420245E+03  0.77970748255E+02 0.  0.
         -6    2    1    2    0  502 -0.77912089078E+01 -0.12112674029E+01 -0.13873507108E+03  0.22048469287E+03  0.17118384777E+03 0.  0.
        -24    2    5    5    0    0  0.13935715304E+02 -0.13600462685E+02 -0.62990758775E+01  0.85625750929E+02  0.83143936153E+02 0.  0.
          5    1    3    3  501    0 -0.65570281773E+02  0.33950082866E+01 -0.44201180013E+02  0.79289483841E+02  0.47000000000E+01 0. -1.
        -11    1    4    4    0    0 -0.90651228817E+01  0.21762548535E+01 -0.42993545504E+02  0.43992698178E+02  0.00000000000E+00 0.  1.
         12    1    4    4    0    0  0.82426613563E+02 -0.43599957372E+01 -0.41375723487E+02  0.92331504268E+02  0.00000000000E+00 0. -1.
         -5    1    5    5    0  502 -0.21726924212E+02  0.12389195282E+02 -0.13243599520E+03  0.13485894194E+03  0.47000000000E+01 0.  1.
         13    1    6    6    0    0 -0.20849712105E+02  0.87150263222E+01 -0.30326962119E+02  0.37820454916E+02  0.00000000000E+00 0. -1.
        -14    1    6    6    0    0  0.34785427409E+02 -0.22315489007E+02  0.24027886242E+02  0.47805296013E+02  0.00000000000E+00 0.  1.
</event>
<event>
12    1  0.1046899E+000  0.1836094E+03  0.7818608E-02  0.1164925E+00
         21   -1    0    0  503  502  0.00000000000E+00  0.00000000000E+00  0.35986557197E+02  0.35986557197E+02  0.00000000000E+00 0.  1.
         21   -1    0    0  501  503 -0.00000000000E+00 -0.00000000000E+00 -0.10998337154E+04  0.10998337154E+04  0.00000000000E+00 0.  1.
          6    2    1    2  501    0 -0.60276875632E+02 -0.49504382807E+01 -0.30818431529E+03  0.35873384567E+03  0.17336260053E+03 0.  0.
         24    2    3    3    0    0 -0.67643166701E+02  0.60320905055E+01 -0.32310998598E+03  0.33824619504E+03  0.73474085931E+02 0.  0.
         -6    2    1    2    0  502  0.60276875632E+02  0.49504382807E+01 -0.75566284286E+03  0.77708642688E+03  0.17081912710E+03 0.  0.
        -24    2    5    5    0    0  0.90360281092E+02  0.17384289476E+01 -0.36656591559E+03  0.38678675086E+03  0.84056038659E+02 0.  0.
          5    1    3    3  501    0  0.73662910692E+01 -0.10982528786E+02  0.14925670689E+02  0.20487650626E+02  0.47000000000E+01 0. -1.
        -13    1    4    4    0    0  0.14948736503E+01  0.17443240397E+01  0.36015496235E+01  0.42718231794E+01  0.00000000000E+00 0.  1.
         14    1    4    4    0    0 -0.69138040352E+02  0.42877664657E+01 -0.32671153560E+03  0.33397437186E+03  0.00000000000E+00 0. -1.
         -5    1    5    5    0  502 -0.30083405460E+02  0.32120093331E+01 -0.38909692727E+03  0.39029967602E+03  0.47000000000E+01 0.  1.
         13    1    6    6    0    0  0.49371175458E+01 -0.18903915761E+02 -0.15647967750E+02  0.25031820858E+02  0.00000000000E+00 0. -1.
        -14    1    6    6    0    0  0.85423163546E+02  0.20642344708E+02 -0.35091794784E+03  0.36175493000E+03  0.00000000000E+00 0.  1.
</event>
<event>
12    1  0.1046899E+000  0.1861499E+03  0.7818608E-02  0.1162018E+00
         21   -1    0    0  503  502  0.00000000000E+00  0.00000000000E+00  0.42871896332E+03  0.42871896332E+03  0.00000000000E+00 0. -1.
         21   -1    0    0  501  503 -0.00000000000E+00 -0.00000000000E+00 -0.83842390644E+02  0.83842390644E+02  0.00000000000E+00 0. -1.
          6    2    1    2  501    0  0.69674773336E+02  0.13041565848E+01  0.12319440365E+03  0.22308808797E+03  0.17243885595E+03 0.  0.
         24    2    3    3    0    0  0.84097858314E+02 -0.40749302733E+02  0.12763990340E+03  0.17816180069E+03  0.81955639449E+02 0.  0.
         -6    2    1    2    0  502 -0.69674773336E+02 -0.13041565848E+01  0.22168216903E+03  0.28947326599E+03  0.17261376769E+03 0.  0.
        -24    2    5    5    0    0 -0.38589520062E+02 -0.63753977283E+02  0.16717209749E+03  0.20081825499E+03  0.82630143902E+02 0.  0.
          5    1    3    3  501    0 -0.14423084978E+02  0.42053459318E+02 -0.44454997565E+01  0.44926287282E+02  0.47000000000E+01 0. -1.
        -13    1    4    4    0    0 -0.39364710239E-01 -0.37520068352E+02  0.23623622057E+02  0.44337710787E+02  0.00000000000E+00 0.  1.
         14    1    4    4    0    0  0.84137223024E+02 -0.32292343809E+01  0.10401628135E+03  0.13382408990E+03  0.00000000000E+00 0. -1.
         -5    1    5    5    0  502 -0.31085253274E+02  0.62449820698E+02  0.54510071543E+02  0.88655011003E+02  0.47000000000E+01 0.  1.
         11    1    6    6    0    0 -0.12610867545E+02  0.35293850655E+01  0.10435496804E+03  0.10517342770E+03  0.00000000000E+00 0. -1.
        -12    1    6    6    0    0 -0.25978652516E+02 -0.67283362348E+02  0.62817129442E+02  0.95644827287E+02  0.00000000000E+00 0.  1.
</event>
<event>
12    1  0.1046899E+000  0.2221110E+03  0.7818608E-02  0.1132604E+00
         21   -1    0    0  501  502  0.00000000000E+00  0.00000000000E+00  0.11867676518E+04  0.11867676518E+04  0.00000000000E+00 0. -1.
         21   -1    0    0  502  503 -0.00000000000E+00 -0.00000000000E+00 -0.46562498190E+02  0.46562498190E+02  0.00000000000E+00 0. -1.
         -6    2    1    2    0  503 -0.13894401001E+03  0.19140310265E+02  0.77953740608E+03  0.81056268093E+03  0.17222515159E+03 0.  0.
        -24    2    3    3    0    0 -0.10764495633E+03  0.74303907593E+02  0.62314013783E+03  0.64172889062E+03  0.80023936307E+02 0.  0.
          6    2    1    2  501    0  0.13894401001E+03 -0.19140310265E+02  0.36066774754E+03  0.42276746907E+03  0.17023313249E+03 0.  0.
         24    2    5    5    0    0  0.14835894686E+03  0.10938997896E+02  0.35095404322E+03  0.38945302976E+03  0.79842865349E+02 0.  0.
          5    1    5    5  501    0 -0.94149368456E+01 -0.30079308161E+02  0.97137043167E+01  0.33314439314E+02  0.47000000000E+01 0. -1.
        -13    1    6    6    0    0  0.19194994316E+02  0.32505276193E+02  0.72257451219E+02  0.81524107133E+02  0.00000000000E+00 0.  1.
         14    1    6    6    0    0  0.12916395254E+03 -0.21566278297E+02  0.27869659201E+03  0.30792892263E+03  0.00000000000E+00 0. -1.
         -5    1    3    3    0  503 -0.31299053680E+02 -0.55163597328E+02  0.15639726825E+03  0.16883379030E+03  0.47000000000E+01 0.  1.
         13    1    4    4    0    0 -0.20993426137E+02  0.59985660808E+02  0.21241445183E+03  0.22171807051E+03  0.00000000000E+00 0. -1.
        -14    1    4    4    0    0 -0.86651530194E+02  0.14318246785E+02  0.41072568600E+03  0.42001082012E+03  0.00000000000E+00 0.  1.
</event>
<event>
12    1  0.1046899E+000  0.2216849E+03  0.7818608E-02  0.1133154E+00
         21   -1    0    0  501  502  0.00000000000E+00  0.00000000000E+00  0.71413168511E+02  0.71413168511E+02  0.00000000000E+00 0.  1.
         21   -1    0    0  502  503 -0.00000000000E+00 -0.00000000000E+00 -0.85067785165E+03  0.85067785165E+03  0.00000000000E+00 0.  1.
         -6    2    1    2    0  503  0.10504478708E+03 -0.90469244887E+02 -0.59446979892E+03  0.63348517188E+03  0.16938131422E+03 0.  0.
        -24    2    3    3    0    0  0.13147192355E+03 -0.67293629889E+02 -0.55710772897E+03  0.58197287293E+03  0.80685214552E+02 0.  0.
          6    2    1    2  501    0 -0.10504478708E+03  0.90469244887E+02 -0.18479488422E+03  0.28860584828E+03  0.17298871311E+03 0.  0.
         24    2    5    5    0    0 -0.36902365623E+02  0.80586471711E+02 -0.35443044659E+02  0.12407888761E+03  0.79267880781E+02 0.  0.
          5    1    5    5  501    0 -0.68142421458E+02  0.98827731758E+01 -0.14935183956E+03  0.16452696067E+03  0.47000000000E+01 0. -1.
        -11    1    6    6    0    0 -0.36748458691E+02  0.14993718666E+02  0.13841383969E+02  0.42033852140E+02  0.00000000000E+00 0.  1.
         12    1    6    6    0    0 -0.15390693275E+00  0.65592753046E+02 -0.49284428629E+02  0.82045035467E+02  0.00000000000E+00 0. -1.
         -5    1    3    3    0  503 -0.26427136464E+02 -0.23175614998E+02 -0.37362069950E+02  0.51512298951E+02  0.47000000000E+01 0.  1.
         13    1    4    4    0    0  0.12440472499E+03 -0.41864958638E+02 -0.36149852167E+03  0.38459120054E+03  0.00000000000E+00 0. -1.
        -14    1    4    4    0    0  0.70671985568E+01 -0.25428671251E+02 -0.19560920730E+03  0.19738167240E+03  0.00000000000E+00 0.  1.
</event>
<event>
12    1  0.1046899E+000  0.4279733E+03  0.7818608E-02  0.1034569E+00
         21   -1    0    0  503  502  0.00000000000E+00  0.00000000000E+00  0.12859112036E+03  0.12859112036E+03  0.00000000000E+00 0.  1.
         21   -1    0    0  501  503 -0.00000000000E+00 -0.00000000000E+00 -0.14215850183E+04  0.14215850183E+04  0.00000000000E+00 0.  1.
          6    2    1    2  501    0  0.39085959544E+03  0.16577063777E+02 -0.64946130771E+03  0.77779249787E+03  0.17353719238E+03 0.  0.
         24    2    3    3    0    0  0.32013734746E+03 -0.42937144450E+02 -0.54389916495E+03  0.63740363320E+03  0.78266023058E+02 0.  0.
         -6    2    1    2    0  502 -0.39085959544E+03 -0.16577063777E+02 -0.64353259024E+03  0.77238364080E+03  0.17145340907E+03 0.  0.
        -24    2    5    5    0    0 -0.27359961626E+03  0.48530526321E+02 -0.38159248360E+03  0.47806474832E+03  0.75638072696E+02 0.  0.
          5    1    3    3  501    0  0.70722247977E+02  0.59514208227E+02 -0.10556214276E+03  0.14038886467E+03  0.47000000000E+01 0. -1.
        -13    1    4    4    0    0  0.27123578173E+02 -0.84503353171E+01 -0.15876627703E+02  0.32544799387E+02  0.00000000000E+00 0.  1.
         14    1    4    4    0    0  0.29301376929E+03 -0.34486809133E+02 -0.52802253725E+03  0.60485883381E+03  0.00000000000E+00 0. -1.
         -5    1    5    5    0  502 -0.11725997918E+03 -0.65107590098E+02 -0.26194010664E+03  0.29431889248E+03  0.47000000000E+01 0.  1.
         13    1    6    6    0    0 -0.95545536319E+02 -0.10951629070E+02 -0.92970306769E+02  0.13376234758E+03  0.00000000000E+00 0. -1.
        -14    1    6    6    0    0 -0.17805407994E+03  0.59482155391E+02 -0.28862217684E+03  0.34430240074E+03  0.00000000000E+00 0.  1.
</event>
<event>
12    1  0.1046899E+000  0.2389469E+03  0.7818608E-02  0.1120511E+00
         21   -1    0    0  503  502  0.00000000000E+00  0.00000000000E+00  0.33969463354E+03  0.33969463354E+03  0.00000000000E+00 0. -1.
         21   -1    0    0  501  503 -0.00000000000E+00 -0.00000000000E+00 -0.19888243374E+03  0.19888243374E+03  0.00000000000E+00 0. -1.
          6    2    1    2  501    0 -0.10472521330E+03 -0.12871035049E+03  0.17647640487E+03  0.29698325042E+03  0.17181794123E+03 0.  0.
         24    2    3    3    0    0 -0.80999001769E+02 -0.33372614261E+02  0.34363320806E+02  0.12415259421E+03  0.80984314295E+02 0.  0.
         -6    2    1    2    0  502  0.10472521330E+03  0.12871035049E+03 -0.35664205079E+02  0.24159381686E+03  0.17193577928E+03 0.  0.
        -24    2    5    5    0    0  0.52508568448E+02  0.14162933860E+01 -0.40134771066E+02  0.10385336916E+03  0.80097233342E+02 0.  0.
          5    1    3    3  501    0 -0.23726211533E+02 -0.95337736226E+02  0.14211308407E+03  0.17283065621E+03  0.47000000000E+01 0. -1.
        -13    1    4    4    0    0 -0.26004254189E+02 -0.48890993787E+02  0.37573427110E+02  0.66920198253E+02  0.00000000000E+00 0.  1.
         14    1    4    4    0    0 -0.54994747579E+02  0.15518379526E+02 -0.32101063040E+01  0.57232395956E+02  0.00000000000E+00 0. -1.
         -5    1    5    5    0  502  0.52216644854E+02  0.12729405710E+03  0.44705659873E+01  0.13774044770E+03  0.47000000000E+01 0.  1.
         11    1    6    6    0    0  0.30051924767E+02  0.18814260699E+02 -0.59647637994E+02  0.69389734876E+02  0.00000000000E+00 0. -1.
        -12    1    6    6    0    0  0.22456643681E+02 -0.17397967313E+02  0.19512866928E+02  0.34463634280E+02  0.00000000000E+00 0.  1.
</event>
<event>
12    1  0.1046899E+000  0.1824394E+03  0.7818608E-02  0.1166393E+00
         21   -1    0    0  501  502  0.00000000000E+00  0.00000000000E+00  0.76695755732E+02  0.76695755732E+02  0.00000000000E+00 0. -1.
         21   -1    0    0  502  503 -0.00000000000E+00 -0.00000000000E+00 -0.79052552271E+03  0.79052552271E+03  0.00000000000E+00 0. -1.
         -6    2    1    2    0  503  0.57974408879E+02 -0.15700389469E+02 -0.64977161734E+03  0.67386256510E+03  0.16816678514E+03 0.  0.
        -24    2    3    3    0    0  0.69783309744E+02 -0.59857545179E+02 -0.39870683327E+03  0.41862753549E+03  0.88482984458E+02 0.  0.
          6    2    1    2  501    0 -0.57974408879E+02  0.15700389469E+02 -0.64058149636E+02  0.19335871334E+03  0.17226900817E+03 0.  0.
         24    2    5    5    0    0 -0.21953456890E+02 -0.10012557676E+02 -0.10426912324E+03  0.13337807454E+03  0.79595572278E+02 0.  0.
          5    1    5    5  501    0 -0.36020951989E+02  0.25712947145E+02  0.40210973603E+02  0.59980638803E+02  0.47000000000E+01 0. -1.
        -13    1    6    6    0    0  0.22469455261E+02 -0.11848818692E+01 -0.33330622019E+01  0.22746201186E+02  0.00000000000E+00 0.  1.
         14    1    6    6    0    0 -0.44422912150E+02 -0.88276758068E+01 -0.10093606104E+03  0.11063187335E+03  0.00000000000E+00 0. -1.
         -5    1    3    3    0  503 -0.11808900865E+02  0.44157155710E+02 -0.25106478407E+03  0.25523502961E+03  0.47000000000E+01 0.  1.
         13    1    4    4    0    0  0.25703494367E+02  0.16707030189E+02 -0.47923135110E+02  0.56889554043E+02  0.00000000000E+00 0. -1.
        -14    1    4    4    0    0  0.44079815376E+02 -0.76564575368E+02 -0.35078369816E+03  0.36173798145E+03  0.00000000000E+00 0.  1.
</event>
<event>
12    1  0.1046899E+000  0.1890098E+03  0.7818608E-02  0.1159609E+00
         21   -1    0    0  501  502  0.00000000000E+00  0.00000000000E+00  0.88428779424E+03  0.88428779424E+03  0.00000000000E+00 0. -1.
         21   -1    0    0  502  503 -0.00000000000E+00 -0.00000000000E+00 -0.55415358458E+02  0.55415358458E+02  0.00000000000E+00 0. -1.
         -6    2    1    2    0  503  0.78823160569E+02  0.39238677015E+01  0.16882608233E+03  0.25343038150E+03  0.17174465002E+03 0.  0.
        -24    2    3    3    0    0  0.61983779982E+02 -0.61138415909E+02  0.13226780151E+03  0.17678011481E+03  0.78590984178E+02 0.  0.
          6    2    1    2  501    0 -0.78823160569E+02 -0.39238677015E+01  0.66004635345E+03  0.68627277120E+03  0.17053046767E+03 0.  0.
         24    2    5    5    0    0 -0.96044253611E+02  0.21910896959E+02  0.31168309658E+03  0.33649705756E+03  0.79870714269E+02 0.  0.
          5    1    5    5  501    0  0.17221093042E+02 -0.25834764660E+02  0.34836325687E+03  0.34977571363E+03  0.47000000000E+01 0. -1.
        -11    1    6    6    0    0 -0.30833354392E+02 -0.23247547225E+02  0.16792507089E+03  0.17230778749E+03  0.00000000000E+00 0.  1.
         12    1    6    6    0    0 -0.65210899219E+02  0.45158444183E+02  0.14375802569E+03  0.16418927007E+03  0.00000000000E+00 0. -1.
         -5    1    3    3    0  503  0.16839380586E+02  0.65062283611E+02  0.36558280817E+02  0.76650266689E+02  0.47000000000E+01 0.  1.
         11    1    4    4    0    0 -0.17950341643E+02 -0.66822097804E+01  0.12663037427E+02  0.22961254529E+02  0.00000000000E+00 0. -1.
        -12    1    4    4    0    0  0.79934121625E+02 -0.54456206129E+02  0.11960476409E+03  0.15381886028E+03  0.00000000000E+00 0.  1.
</event>
<event>
12    1  0.1046899E+000  0.1933302E+03  0.7818608E-02  0.1155710E+00
         21   -1    0    0  503  502  0.00000000000E+00  0.00000000000E+00  0.59507292436E+03  0.59507292436E+03  0.00000000000E+00 0.  1.
         21   -1    0    0  501  503 -0.00000000000E+00 -0.00000000000E+00 -0.63839490654E+02  0.63839490654E+02  0.00000000000E+00 0.  1.
          6    2    1    2  501    0 -0.50603004967E+02 -0.72186898027E+02  0.31285826389E+03  0.36725457227E+03  0.17095032965E+03 0.  0.
         24    2    3    3    0    0  0.14309175144E+02 -0.78556536901E+02  0.25928200270E+03  0.28271659744E+03  0.79533864209E+02 0.  0.
         -6    2    1    2    0  502  0.50603004967E+02  0.72186898027E+02  0.21837516982E+03  0.29165784275E+03  0.17206094875E+03 0.  0.
        -24    2    5    5    0    0 -0.24039678376E+02  0.81979368053E+02  0.12625428231E+03  0.17259579774E+03  0.80936040634E+02 0.  0.
          5    1    3    3  501    0 -0.64912180110E+02  0.63696388745E+01  0.53576261189E+02  0.84537974834E+02  0.47000000000E+01 0. -1.
        -13    1    4    4    0    0  0.10813875133E+02  0.14605981313E+02  0.60267857065E+02  0.62948305622E+02  0.00000000000E+00 0.  1.
         14    1    4    4    0    0  0.34953000106E+01 -0.93162518214E+02  0.19901414564E+03  0.21976829181E+03  0.00000000000E+00 0. -1.
         -5    1    5    5    0  502  0.74642683343E+02 -0.97924700267E+01  0.92120887510E+02  0.11906204501E+03  0.47000000000E+01 0.  1.
         11    1    6    6    0    0  0.23932271751E+02  0.52630045169E+01  0.13333846647E+02  0.27897030561E+02  0.00000000000E+00 0. -1.
        -12    1    6    6    0    0 -0.47971950127E+02  0.76716363537E+02  0.11292043566E+03  0.14469876718E+03  0.00000000000E+00 0.  1.
</event>
<event>
12    1  0.1046899E+000  0.2993239E+03  0.7818608E-02  0.1085630E+00
         21   -1    0    0  501  502  0.00000000000E+00  0.00000000000E+00  0.83519743196E+02  0.83519743196E+02  0.00000000000E+00 0.  1.
         21   -1    0    0  502  503 -0.00000000000E+00 -0.00000000000E+00 -0.10714003229E+04  0.10714003229E+04  0.00000000000E+00 0.  1.
         -6    2    1    2    0  503 -0.24010685996E+03  0.49752739650E+02 -0.48761694980E+03  0.57194622479E+03  0.17095483327E+03 0.  0.
        -24    2    3    3    0    0 -0.93381681593E+02 -0.31989060206E+02 -0.17076449220E+03  0.21329936547E+03  0.81195252852E+02 0.  0.
          6    2    1    2  501    0  0.24010685996E+03 -0.49752739650E+02 -0.50026362993E+03  0.58297384133E+03  0.17166292827E+03 0.  0.
         24    2    5    5    0    0  0.99825949036E+02  0.17568265881E+02 -0.13982893946E+03  0.19035938942E+03  0.80066851835E+02 0.  0.
          5    1    5    5  501    0  0.14028091092E+03 -0.67321005530E+02 -0.36043469047E+03  0.39261445191E+03  0.47000000000E+01 0. -1.
        -13    1    6    6    0    0  0.94015720316E+02 -0.83577301800E+01 -0.75863086311E+02  0.12109506672E+03  0.00000000000E+00 0.  1.
         14    1    6    6    0    0  0.58102287208E+01  0.25925996061E+02 -0.63965853148E+02  0.69264322695E+02  0.00000000000E+00 0. -1.
         -5    1    3    3    0  503 -0.14672517837E+03  0.81741799856E+02 -0.31685245760E+03  0.35864685932E+03  0.47000000000E+01 0.  1.
         13    1    4    4    0    0 -0.71958573516E+02  0.14772809350E+02 -0.77439469736E+02  0.10673866999E+03  0.00000000000E+00 0. -1.
        -14    1    4    4    0    0 -0.21423108077E+02 -0.46761869556E+02 -0.93325022463E+02  0.10656069548E+03  0.00000000000E+00 0.  1.
</event>
<event>
12    1  0.1046899E+000  0.1736200E+03  0.7818608E-02  0.1174288E+00
         21   -1    0    0  503  502  0.00000000000E+00  0.00000000000E+00  0.78775964180E+02  0.78775964180E+02  0.00000000000E+00 0. -1.
         21   -1    0    0  501  503 -0.00000000000E+00 -0.00000000000E+00 -0.47735886409E+03  0.47735886409E+03  0.00000000000E+00 0. -1.
          6    2    1    2  501    0 -0.53259458883E+01  0.18136156714E+02 -0.32377397989E+03  0.36708383894E+03  0.17194088774E+03 0.  0.
         24    2    3    3    0    0 -0.34773203234E+02  0.69712189477E+02 -0.20949250708E+03  0.23820570601E+03  0.82376470104E+02 0.  0.
         -6    2    1    2    0  502  0.53259458883E+01 -0.18136156714E+02 -0.74808920018E+02  0.18905098933E+03  0.17258799544E+03 0.  0.
        -24    2    5    5    0    0 -0.17127694978E+01  0.48875239341E+02 -0.63146385270E+02  0.12050775164E+03  0.90238182791E+02 0.  0.
          5    1    3    3  501    0  0.29447257346E+02 -0.51576032763E+02 -0.11428147281E+03  0.12887813293E+03  0.47000000000E+01 0. -1.
        -13    1    4    4    0    0 -0.14698927854E+01  0.14547572907E+02  0.40340769353E+01  0.15167934566E+02  0.00000000000E+00 0.  1.
         14    1    4    4    0    0 -0.33303310449E+02  0.55164616570E+02 -0.21352658402E+03  0.22303777144E+03  0.00000000000E+00 0. -1.
         -5    1    5    5    0  502  0.70387153861E+01 -0.67011396055E+02 -0.11662534748E+02  0.68543237685E+02  0.47000000000E+01 0.  1.
         11    1    6    6    0    0  0.11780467124E+02  0.45897239569E+02  0.79794265420E+01  0.48052130584E+02  0.00000000000E+00 0. -1.
        -12    1    6    6    0    0 -0.13493236622E+02  0.29779997726E+01 -0.71125811812E+02  0.72455621059E+02  0.00000000000E+00 0.  1.
</event>
<event>
12    1  0.1046899E+000  0.1932584E+03  0.7818608E-02  0.1155763E+00
         21   -1    0    0  503  502  0.00000000000E+00  0.00000000000E+00  0.54756600937E+02  0.54756600937E+02  0.00000000000E+00 0. -1.
         21   -1    0    0  501  503 -0.00000000000E+00 -0.00000000000E+00 -0.81470109124E+03  0.81470109124E+03  0.00000000000E+00 0. -1.
          6    2    1    2  501    0 -0.20796150751E+02  0.85318891489E+02 -0.55831647035E+03  0.59081816918E+03  0.17215410201E+03 0.  0.
         24    2    3    3    0    0 -0.73104601937E+02  0.30131429320E+02 -0.27252370856E+03  0.29504558299E+03  0.80811747047E+02 0.  0.
         -6    2    1    2    0  502  0.20796150751E+02 -0.85318891489E+02 -0.20162801996E+03  0.27863952300E+03  0.17109743486E+03 0.  0.
        -24    2    5    5    0    0 -0.25769981368E+02 -0.39158005165E+02 -0.19078098747E+03  0.21201385077E+03  0.79718545081E+02 0.  0.
          5    1    3    3  501    0  0.52308451186E+02  0.55187462169E+02 -0.28579276179E+03  0.29577258618E+03  0.47000000000E+01 0. -1.
        -13    1    4    4    0    0 -0.42458850274E+02  0.13126590354E+02 -0.39677619243E+02  0.59576629728E+02  0.00000000000E+00 0.  1.
         14    1    4    4    0    0 -0.30645751664E+02  0.17004838966E+02 -0.23284608931E+03  0.23546895326E+03  0.00000000000E+00 0. -1.
         -5    1    5    5    0  502  0.46566132119E+02 -0.46160886324E+02 -0.10847032488E+02  0.66625672233E+02  0.47000000000E+01 0.  1.
         11    1    6    6    0    0  0.59123400716E+01  0.21579987159E+02 -0.31616388794E+02  0.38733030495E+02  0.00000000000E+00 0. -1.
        -12    1    6    6    0    0 -0.31682321440E+02 -0.60737992324E+02 -0.15916459867E+03  0.17328082027E+03  0.00000000000E+00 0.  1.
</event>
<event>
12    1  0.1046899E+000  0.2069275E+03  0.7818608E-02  0.1144119E+00
         21   -1    0    0  503  502  0.00000000000E+00  0.00000000000E+00  0.41807989656E+03  0.41807989656E+03  0.00000000000E+00 0.  1.
         21   -1    0    0  501  503 -0.00000000000E+00 -0.00000000000E+00 -0.11984768477E+03  0.11984768477E+03  0.00000000000E+00 0.  1.
          6    2    1    2  501    0 -0.84768833494E+02 -0.76404174668E+02  0.45703087628E+02  0.21144639916E+03  0.17203910736E+03 0.  0.
         24    2    3    3    0    0 -0.87426311926E+02 -0.10293066216E+03  0.72623425079E+02  0.17326903285E+03  0.80684042063E+02 0.  0.
         -6    2    1    2    0  502  0.84768833494E+02  0.76404174668E+02  0.25252912417E+03  0.32648118217E+03  0.17261416721E+03 0.  0.
        -24    2    5    5    0    0 -0.18021841691E+02  0.12312891119E+02  0.12741469189E+03  0.15227060070E+03  0.80470106643E+02 0.  0.
          5    1    3    3  501    0  0.26574784321E+01  0.26526487494E+02 -0.26920337452E+02  0.38177366317E+02  0.47000000000E+01 0. -1.
        -11    1    4    4    0    0  0.23703667815E+01 -0.15234183171E+02  0.41040796022E+02  0.43841144074E+02  0.00000000000E+00 0.  1.
         12    1    4    4    0    0 -0.89796678708E+02 -0.87696478991E+02  0.31582629057E+02  0.12942788877E+03  0.00000000000E+00 0. -1.
         -5    1    5    5    0  502  0.10279067518E+03  0.64091283549E+02  0.12511443227E+03  0.17421058147E+03  0.47000000000E+01 0.  1.
         13    1    6    6    0    0 -0.23491490163E+02  0.30645804211E+02  0.12741669972E+03  0.13313914073E+03  0.00000000000E+00 0. -1.
        -14    1    6    6    0    0  0.54696484725E+01 -0.18332913092E+02 -0.20078275160E-02  0.19131459978E+02  0.00000000000E+00 0.  1.
</event>
<event>
12    1  0.1046899E+000  0.3420529E+03  0.7818608E-02  0.1065966E+00
         21   -1    0    0  501  502  0.00000000000E+00  0.00000000000E+00  0.21986929433E+03  0.21986929433E+03  0.00000000000E+00 0. -1.
         21   -1    0    0  502  503 -0.00000000000E+00 -0.00000000000E+00 -0.61662306108E+03  0.61662306108E+03  0.00000000000E+00 0. -1.
         -6    2    1    2    0  503 -0.18897344833E+03 -0.22690601361E+03 -0.42912220541E+02  0.34435007934E+03  0.17186685335E+03 0.  0.
        -24    2    3    3    0    0 -0.14031203718E+03 -0.88129847162E+02 -0.66882722631E+02  0.19527482223E+03  0.78769409507E+02 0.  0.
          6    2    1    2  501    0  0.18897344833E+03  0.22690601361E+03 -0.35384154621E+03  0.49214227607E+03  0.17263509748E+03 0.  0.
         24    2    5    5    0    0  0.15174315543E+03  0.18874700666E+03 -0.35652816635E+03  0.43855578104E+03  0.81039631935E+02 0.  0.
          5    1    5    5  501    0  0.37230292900E+02  0.38159006954E+02  0.26866201417E+01  0.53586495024E+02  0.47000000000E+01 0. -1.
        -13    1    6    6    0    0  0.11433299054E+03  0.77906155074E+02 -0.19721130053E+03  0.24090184470E+03  0.00000000000E+00 0.  1.
         14    1    6    6    0    0  0.37410164890E+02  0.11084085158E+03 -0.15931686582E+03  0.19765393634E+03  0.00000000000E+00 0. -1.
         -5    1    3    3    0  503 -0.48661411148E+02 -0.13877616645E+03  0.23970502090E+02  0.14907525710E+03  0.47000000000E+01 0.  1.
         13    1    4    4    0    0 -0.52234424975E+02 -0.17526072112E+02  0.13463867236E+02  0.56717493572E+02  0.00000000000E+00 0. -1.
        -14    1    4    4    0    0 -0.88077612203E+02 -0.70603775050E+02 -0.80346589867E+02  0.13855732866E+03  0.00000000000E+00 0.  1.
</event>
<event>
12    1  0.1246263E+000  0.2158992E+03  0.7818608E-02  0.1137222E+00
         21   -1    0    0  503  502  0.00000000000E+00  0.00000000000E+00  0.28250133922E+03  0.28250133922E+03  0.00000000000E+00 0.  1.
         21   -1    0    0  501  503 -0.00000000000E+00 -0.00000000000E+00 -0.73396300068E+03  0.73396300068E+03  0.00000000000E+00 0.  1.
          6    2    1    2  501    0  0.17258531159E+02  0.12762063707E+03  0.22197510124E+03  0.30965371602E+03  0.17328472052E+03 0.  0.
         24    2    3    3    0    0  0.57778309564E+02  0.45679272077E+02  0.59667499873E+02  0.12331508019E+03  0.78876292430E+02 0.  0.
         -6    2    1    2    0  502 -0.17258531159E+02 -0.12762063707E+03 -0.67343676270E+03  0.70681062388E+03  0.17169537198E+03 0.  0.
        -24    2    5    5    0    0 -0.24500141174E+02 -0.15723172916E+03 -0.62060556515E+03  0.64563478612E+03  0.79818143211E+02 0.  0.
          5    1    3    3  501    0 -0.40519778405E+02  0.81941364997E+02  0.16230760137E+03  0.18633863583E+03  0.47000000000E+01 0. -1.
        -11    1    4    4    0    0  0.31092378652E-01 -0.14152764356E+02  0.33134355829E+02  0.36030365552E+02  0.00000000000E+00 0.  1.
         12    1    4    4    0    0  0.57747217185E+02  0.59832036434E+02  0.26533144044E+02  0.87284714637E+02  0.00000000000E+00 0. -1.
         -5    1    5    5    0  502  0.72416100148E+01  0.29611092083E+02 -0.52831197558E+02  0.61175837758E+02  0.47000000000E+01 0.  1.
         11    1    6    6    0    0  0.85155380369E+01 -0.53531025113E+02 -0.34651496428E+03  0.35072882047E+03  0.00000000000E+00 0. -1.
        -12    1    6    6    0    0 -0.33015679211E+02 -0.10370070404E+03 -0.27409060087E+03  0.29490596565E+03  0.00000000000E+00 0.  1.
</event>
<event>
12    1  0.1046899E+000  0.1839281E+03  0.7818608E-02  0.1165125E+00
         21   -1    0    0  501  502  0.00000000000E+00  0.00000000000E+00  0.84557007422E+03  0.84557007422E+03  0.00000000000E+00 0. -1.
         21   -1    0    0  502  503 -0.00000000000E+00 -0.00000000000E+00 -0.39177738201E+02  0.39177738201E+02  0.00000000000E+00 0. -1.
         -6    2    1    2    0  503 -0.25541540832E+01 -0.49837018351E+02  0.38168496651E+03  0.42368970174E+03  0.17702908686E+03 0.  0.
        -24    2    3    3    0    0 -0.66891204790E+02 -0.23174831283E+02  0.17536074073E+03  0.20587807565E+03  0.81381119198E+02 0.  0.
          6    2    1    2  501    0  0.25541540832E+01  0.49837018351E+02  0.42470736951E+03  0.46105811068E+03  0.17236002905E+03 0.  0.
         24    2    5    5    0    0  0.62216716910E+02  0.53808982809E+02  0.32315407514E+03  0.34311507570E+03  0.80827423553E+02 0.  0.
          5    1    5    5  501    0 -0.59662562827E+02 -0.39719644586E+01  0.10155329437E+03  0.11794303498E+03  0.47000000000E+01 0. -1.
        -11    1    6    6    0    0 -0.45905150118E+01  0.14413360058E+02  0.54457026961E+01  0.16077109631E+02  0.00000000000E+00 0.  1.
         12    1    6    6    0    0  0.66807231922E+02  0.39395622752E+02  0.31770837244E+03  0.32703796607E+03  0.00000000000E+00 0. -1.
         -5    1    3    3    0  503  0.64337050707E+02 -0.26662187068E+02  0.20632422578E+03  0.21781162608E+03  0.47000000000E+01 0.  1.
         13    1    4    4    0    0 -0.45584337112E+02  0.67435156846E+00  0.24680194388E+02  0.51841089254E+02  0.00000000000E+00 0. -1.
        -14    1    4    4    0    0 -0.21306867678E+02 -0.23849182851E+02  0.15068054634E+03  0.15403698640E+03  0.00000000000E+00 0.  1.
</event>
<event>
12    1  0.1046899E+000  0.2655158E+03  0.7818608E-02  0.1103987E+00
         21   -1    0    0  501  502  0.00000000000E+00  0.00000000000E+00  0.18214918959E+03  0.18214918959E+03  0.00000000000E+00 0. -1.
         21   -1    0    0  502  503 -0.00000000000E+00 -0.00000000000E+00 -0.40752494596E+03  0.40752494596E+03  0.00000000000E+00 0. -1.
         -6    2    1    2    0  503 -0.86530408435E+02 -0.18266368220E+03 -0.44628331276E+02  0.26847594047E+03  0.17097985343E+03 0.  0.
        -24    2    3    3    0    0  0.17556182344E+02 -0.80810707839E+02 -0.43087672201E+02  0.12276214429E+03  0.79846142898E+02 0.  0.
          6    2    1    2  501    0  0.86530408435E+02  0.18266368220E+03 -0.18074742510E+03  0.32119819508E+03  0.17217757248E+03 0.  0.
         24    2    5    5    0    0  0.63483580428E+02  0.13192058478E+03 -0.42314816524E+02  0.17189415852E+03  0.79522653143E+02 0.  0.
          5    1    5    5  501    0  0.23046828007E+02  0.50743097418E+02 -0.13843260857E+03  0.14930403656E+03  0.47000000000E+01 0. -1.
        -11    1    6    6    0    0 -0.11083188554E+02  0.41540489206E+02  0.90901063529E+01  0.43944047896E+02  0.00000000000E+00 0.  1.
         12    1    6    6    0    0  0.74566768982E+02  0.90380095572E+02 -0.51404922877E+02  0.12795011062E+03  0.00000000000E+00 0. -1.
         -5    1    3    3    0  503 -0.10408659078E+03 -0.10185297436E+03 -0.15406590747E+01  0.14571379618E+03  0.47000000000E+01 0.  1.
         13    1    4    4    0    0  0.35535490440E+02 -0.66823509162E+02 -0.19158414603E+01  0.75708803359E+02  0.00000000000E+00 0. -1.
        -14    1    4    4    0    0 -0.17979308096E+02 -0.13987198677E+02 -0.41171830741E+02  0.47053340933E+02  0.00000000000E+00 0.  1.
</event>
<event>
12    1  0.1046899E+000  0.2498957E+03  0.7818608E-02  0.1113606E+00
         21   -1    0    0  501  502  0.00000000000E+00  0.00000000000E+00  0.32268746243E+03  0.32268746243E+03  0.00000000000E+00 0.  1.
         21   -1    0    0  502  503 -0.00000000000E+00 -0.00000000000E+00 -0.19238808265E+03  0.19238808265E+03  0.00000000000E+00 0.  1.
         -6    2    1    2    0  503 -0.16049196160E+03  0.83492603961E+02  0.67008992701E+02  0.25728970334E+03  0.17023249305E+03 0.  0.
        -24    2    3    3    0    0 -0.99723210153E+02  0.18920890639E+02 -0.20365962953E+02  0.13271514659E+03  0.83041067805E+02 0.  0.
          6    2    1    2  501    0  0.16049196160E+03 -0.83492603961E+02  0.63290387079E+02  0.25778584174E+03  0.17239252435E+03 0.  0.
         24    2    5    5    0    0  0.15266469880E+03 -0.12053719480E+03  0.62807110577E+02  0.21962969794E+03  0.80353876632E+02 0.  0.
          5    1    5    5  501    0  0.78272627930E+01  0.37044590837E+02  0.48327650211E+00  0.38156143795E+02  0.47000000000E+01 0. -1.
        -13    1    6    6    0    0  0.74101323006E+02 -0.10727014854E+03  0.32336376302E+02  0.13432621513E+03  0.00000000000E+00 0.  1.
         14    1    6    6    0    0  0.78563375797E+02 -0.13267046260E+02  0.30470734275E+02  0.85303482815E+02  0.00000000000E+00 0. -1.
         -5    1    3    3    0  503 -0.60768751442E+02  0.64571713322E+02  0.87374955654E+02  0.12457455675E+03  0.47000000000E+01 0.  1.
         13    1    4    4    0    0 -0.84249698292E+02 -0.22125855559E+02 -0.16726039775E+02  0.88697945597E+02  0.00000000000E+00 0. -1.
        -14    1    4    4    0    0 -0.15473511861E+02  0.41046746198E+02 -0.36399231775E+01  0.44017200995E+02  0.00000000000E+00 0.  1.
</event>
<event>
12    1  0.1046899E+000  0.1826997E+03  0.7818608E-02  0.1166244E+00
         21   -1    0    0  503  502  0.00000000000E+00  0.00000000000E+00  0.26626425762E+04  0.26626425762E+04  0.00000000000E+00 0. -1.
         21   -1    0    0  501  503 -0.00000000000E+00 -0.00000000000E+00 -0.26375692168E+02  0.26375692168E+02  0.00000000000E+00 0. -1.
          6    2    1    2  501    0  0.35902967511E+02  0.31429968852E+02  0.22949869991E+04  0.23019121682E+04  0.17192276849E+03 0.  0.
         24    2    3    3    0    0  0.51978915047E+02 -0.40519766022E+02  0.11837815073E+04  0.11882538116E+04  0.79150518736E+02 0.  0.
         -6    2    1    2    0  502 -0.35902967511E+02 -0.31429968852E+02  0.34127988502E+03  0.38710610020E+03  0.17635846130E+03 0.  0.
        -24    2    5    5    0    0  0.40535843830E+02  0.13537322173E+02  0.19097411493E+03  0.21252413187E+03  0.82879311824E+02 0.  0.
          5    1    3    3  501    0 -0.16075947536E+02  0.71949734873E+02  0.11112054917E+04  0.11136583566E+04  0.47000000000E+01 0. -1.
        -11    1    4    4    0    0  0.33810579792E+02  0.13738719218E+02  0.72498011275E+03  0.72589811378E+03  0.00000000000E+00 0.  1.
         12    1    4    4    0    0  0.18168335255E+02 -0.54258485239E+02  0.45880139457E+03  0.46235569780E+03  0.00000000000E+00 0. -1.
         -5    1    5    5    0  502 -0.76438811341E+02 -0.44967291024E+02  0.15030577009E+03  0.17458196832E+03  0.47000000000E+01 0.  1.
         11    1    6    6    0    0  0.32678912162E+02 -0.32746077243E+02  0.97941309964E+02  0.10831766741E+03  0.00000000000E+00 0. -1.
        -12    1    6    6    0    0  0.78569316683E+01  0.46283399416E+02  0.93032804969E+02  0.10420646447E+03  0.00000000000E+00 0.  1.
</event>
<event>
12    1  0.1046899E+000  0.1922595E+03  0.7818608E-02  0.1156491E+00
         21   -1    0    0  503  502  0.00000000000E+00  0.00000000000E+00  0.27721243014E+03  0.27721243014E+03  0.00000000000E+00 0. -1.
         21   -1    0    0  501  503 -0.00000000000E+00 -0.00000000000E+00 -0.15837228647E+03  0.15837228647E+03  0.00000000000E+00 0. -1.
          6    2    1    2  501    0 -0.32120849743E+02 -0.80126945700E+02  0.14631343158E+03  0.24160157600E+03  0.17178947828E+03 0.  0.
         24    2    3    3    0    0 -0.59717477678E+02 -0.77364495510E+02  0.41600161202E+02  0.13317573038E+03  0.80335293883E+02 0.  0.
         -6    2    1    2    0  502  0.32120849743E+02  0.80126945700E+02 -0.27473287914E+02  0.19398314061E+03  0.17153017483E+03 0.  0.
        -24    2    5    5    0    0  0.56060393433E+02 -0.14329206495E+02 -0.86052226791E+01  0.94619362875E+02  0.74368542428E+02 0.  0.
          5    1    3    3  501    0  0.27596627935E+02 -0.27624501902E+01  0.10471327038E+03  0.10842584562E+03  0.47000000000E+01 0. -1.
        -13    1    4    4    0    0  0.14550972338E+02  0.47709955067E+01  0.14265964161E+01  0.15379478907E+02  0.00000000000E+00 0.  1.
         14    1    4    4    0    0 -0.74268450017E+02 -0.82135491017E+02  0.40173564786E+02  0.11779625147E+03  0.00000000000E+00 0. -1.
         -5    1    5    5    0  502 -0.23939543690E+02  0.94456152196E+02 -0.18868065235E+02  0.99363777733E+02  0.47000000000E+01 0.  1.
         11    1    6    6    0    0  0.27651091973E+02  0.10547711139E+02 -0.36995188731E+02  0.47375954733E+02  0.00000000000E+00 0. -1.
        -12    1    6    6    0    0  0.28409301460E+02 -0.24876917635E+02  0.28389966052E+02  0.47243408142E+02  0.00000000000E+00 0.  1.
</event>
<event>
12    1  0.1046899E+000  0.3472954E+03  0.7818608E-02  0.1063731E+00
         21   -1    0    0  501  502  0.00000000000E+00  0.00000000000E+00  0.80197508470E+02  0.80197508470E+02  0.00000000000E+00 0.  1.
         21   -1    0    0  502  503 -0.00000000000E+00 -0.00000000000E+00 -0.15347740100E+04  0.15347740100E+04  0.00000000000E+00 0.  1.
         -6    2    1    2    0  503 -0.29102794236E+03 -0.81197791613E+02 -0.61282230712E+03  0.70439001416E+03  0.17124183877E+03 0.  0.
        -24    2    3    3    0    0 -0.25958628046E+03 -0.76168016941E+02 -0.40245538780E+03  0.49157505350E+03  0.80554889641E+02 0.  0.
          6    2    1    2  501    0  0.29102794236E+03  0.81197791613E+02 -0.84175419436E+03  0.91058150426E+03  0.17122560434E+03 0.  0.
         24    2    5    5    0    0  0.28177769174E+03  0.11084260573E+03 -0.79131655511E+03  0.85116410282E+03  0.81324588734E+02 0.  0.
          5    1    5    5  501    0  0.92502506205E+01 -0.29644814120E+02 -0.50437639248E+02  0.59417401438E+02  0.47000000000E+01 0. -1.
        -11    1    6    6    0    0  0.13850900794E+03  0.33531495758E+02 -0.46732944500E+03  0.48857539505E+03  0.00000000000E+00 0.  1.
         12    1    6    6    0    0  0.14326868380E+03  0.77311109974E+02 -0.32398711011E+03  0.36258870777E+03  0.00000000000E+00 0. -1.
         -5    1    3    3    0  503 -0.31441661903E+02 -0.50297746720E+01 -0.21036691933E+03  0.21281496067E+03  0.47000000000E+01 0.  1.
         11    1    4    4    0    0 -0.50817451850E+02  0.11217420018E+01 -0.13096853504E+03  0.14048640107E+03  0.00000000000E+00 0. -1.
        -12    1    4    4    0    0 -0.20876882861E+03 -0.77289758942E+02 -0.27148685276E+03  0.35108865242E+03  0.00000000000E+00 0.  1.
</event>
<event>
12    1  0.1046899E+000  0.1799438E+03  0.7818608E-02  0.1168638E+00
         21   -1    0    0  501  502  0.00000000000E+00  0.00000000000E+00  0.10421102009E+04  0.10421102009E+04  0.00000000000E+00 0. -1.
         21   -1    0    0  502  503 -0.00000000000E+00 -0.00000000000E+00 -0.31233520231E+02  0.31233520231E+02  0.00000000000E+00 0. -1.
         -6    2    1    2    0  503 -0.47289158041E+00 -0.50457941216E+02  0.59083584721E+03  0.61762995492E+03  0.17272387040E+03 0.  0.
        -24    2    3    3    0    0 -0.59349200545E+02  0.42893519546E+01  0.31156732809E+03  0.32698122941E+03  0.79383866804E+02 0.  0.
          6    2    1    2  501    0  0.47289158041E+00  0.50457941216E+02  0.42004083341E+03  0.45571376617E+03  0.16939453203E+03 0.  0.
         24    2    5    5    0    0 -0.28731559457E+02  0.98546067442E+01  0.95812086238E+02  0.12761637022E+03  0.78634383680E+02 0.  0.
          5    1    5    5  501    0  0.29204451037E+02  0.40603334472E+02  0.32422874718E+03  0.32809739595E+03  0.47000000000E+01 0. -1.
        -11    1    6    6    0    0 -0.31751960589E+02  0.11293288177E+02  0.10895835754E+03  0.11405108083E+03  0.00000000000E+00 0.  1.
         12    1    6    6    0    0  0.30204011327E+01 -0.14386814329E+01 -0.13146271304E+02  0.13565289398E+02  0.00000000000E+00 0. -1.
         -5    1    3    3    0  503  0.58876308965E+02 -0.54747293170E+02  0.27926851912E+03  0.29064872550E+03  0.47000000000E+01 0.  1.
         11    1    4    4    0    0  0.15277100477E+02  0.17698356861E+02  0.71665697832E+02  0.75382981371E+02  0.00000000000E+00 0. -1.
        -12    1    4    4    0    0 -0.74626301022E+02 -0.13409004907E+02  0.23990163026E+03  0.25159824804E+03  0.00000000000E+00 0.  1.
</event>
<event>
12    1  0.1046899E+000  0.1839681E+03  0.7818608E-02  0.1164060E+00
         21   -1    0    0  503  502  0.00000000000E+00  0.00000000000E+00  0.37475545681E+03  0.37475545681E+03  0.00000000000E+00 0.  1.
         21   -1    0    0  501  503 -0.00000000000E+00 -0.00000000000E+00 -0.92100485524E+02  0.92100485524E+02  0.00000000000E+00 0.  1.
          6    2    1    2  501    0 -0.49467998901E+02 -0.44070195464E+02  0.17460983131E+03  0.25350643486E+03  0.17142827737E+03 0.  0.
         24    2    3    3    0    0  0.33466429222E+02  0.31887713764E+01  0.69167186233E+02  0.11119771863E+03  0.80316018503E+02 0.  0.
         -6    2    1    2    0  502  0.49467998901E+02  0.44070195464E+02  0.10804513998E+03  0.21334950748E+03  0.17162457582E+03 0.  0.
        -24    2    5    5    0    0  0.93058236783E+02  0.22944007558E+02  0.10710439995E+03  0.16467302809E+03  0.80371579394E+02 0.  0.
          5    1    3    3  501    0 -0.82934428123E+02 -0.47258966840E+02  0.10544264508E+03  0.14230871623E+03  0.47000000000E+01 0. -1.
        -13    1    4    4    0    0  0.42350004284E+02  0.31879813187E+02  0.59404073393E+02  0.79615885898E+02  0.00000000000E+00 0.  1.
         14    1    4    4    0    0 -0.88835750614E+01 -0.28691041811E+02  0.97631128401E+01  0.31581832727E+02  0.00000000000E+00 0. -1.
         -5    1    5    5    0  502 -0.43590237882E+02  0.21126187906E+02  0.94074002577E+00  0.48676479391E+02  0.47000000000E+01 0.  1.
         11    1    6    6    0    0  0.76816956108E+02 -0.18639043969E+02  0.79907744322E+02  0.11239887147E+03  0.00000000000E+00 0. -1.
        -12    1    6    6    0    0  0.16241280675E+02  0.41583051527E+02  0.27196655631E+02  0.52274156615E+02  0.00000000000E+00 0.  1.
</event>
<event>
12    1  0.1046899E+000  0.2120572E+03  0.7818608E-02  0.1140516E+00
         21   -1    0    0  503  502  0.00000000000E+00  0.00000000000E+00  0.82566457102E+02  0.82566457102E+02  0.00000000000E+00 0. -1.
         21   -1    0    0  501  503 -0.00000000000E+00 -0.00000000000E+00 -0.66136403608E+03  0.66136403608E+03  0.00000000000E+00 0.  1.
          6    2    1    2  501    0 -0.18793923304E+02 -0.11136308468E+03 -0.12987074446E+03  0.24866576163E+03  0.17948064676E+03 0.  0.
         24    2    3    3    0    0 -0.32226475458E+02 -0.11368644411E+03 -0.37611129163E+02  0.15528611679E+03  0.93466719934E+02 0.  0.
         -6    2    1    2    0  502  0.18793923304E+02  0.11136308468E+03 -0.44892683452E+03  0.49526473155E+03  0.17605937459E+03 0.  0.
        -24    2    5    5    0    0 -0.44218431736E+02  0.15225931774E+02 -0.17878893124E+03  0.20165021242E+03  0.80685981002E+02 0.  0.
          5    1    3    3  501    0  0.13432552155E+02  0.23233594326E+01 -0.92259615298E+02  0.93379644845E+02  0.47000000000E+01 0. -1.
        -11    1    4    4    0    0 -0.43578958470E+02 -0.11488990958E+03 -0.54887356085E+02  0.13457874573E+03  0.00000000000E+00 0.  1.
         12    1    4    4    0    0  0.11352483012E+02  0.12034654629E+01  0.17276226922E+02  0.20707371062E+02  0.00000000000E+00 0. -1.
         -5    1    5    5    0  502  0.63012355040E+02  0.96137152906E+02 -0.27013790327E+03  0.29361451912E+03  0.47000000000E+01 0.  1.
         11    1    6    6    0    0  0.28235303583E+01 -0.28285053887E+02 -0.43667468157E+02  0.52104360396E+02  0.00000000000E+00 0. -1.
        -12    1    6    6    0    0 -0.47041962095E+02  0.43510985661E+02 -0.13512146309E+03  0.14954585203E+03  0.00000000000E+00 0.  1.
</event>
<event>
12    1  0.1046899E+000  0.2925711E+03  0.7818608E-02  0.1089673E+00
         21   -1    0    0  501  502  0.00000000000E+00  0.00000000000E+00  0.84949861361E+03  0.84949861361E+03  0.00000000000E+00 0.  1.
         21   -1    0    0  502  503 -0.00000000000E+00 -0.00000000000E+00 -0.10441843064E+03  0.10441843064E+03  0.00000000000E+00 0.  1.
         -6    2    1    2    0  503  0.22342051039E+03 -0.58986722788E+02  0.26109066784E+03  0.38836980597E+03  0.17107487082E+03 0.  0.
        -24    2    3    3    0    0  0.75186813621E+02  0.21372468385E+02  0.12660765519E+03  0.17264173836E+03  0.87554737864E+02 0.  0.
          6    2    1    2  501    0 -0.22342051039E+03  0.58986722788E+02  0.48398951513E+03  0.56554723828E+03  0.17944823777E+03 0.  0.
         24    2    5    5    0    0 -0.70435861244E+02 -0.10405395856E+02  0.28970314538E+03  0.30866428346E+03  0.79222753228E+02 0.  0.
          5    1    5    5  501    0 -0.15298464914E+03  0.69392118644E+02  0.19428636975E+03  0.25688295481E+03  0.47000000000E+01 0. -1.
        -13    1    6    6    0    0 -0.94559951952E+00 -0.19550422677E+02  0.13676593327E+02  0.23878073422E+02  0.00000000000E+00 0.  1.
         14    1    6    6    0    0 -0.69490261725E+02  0.91450268206E+01  0.27602655205E+03  0.28478621004E+03  0.00000000000E+00 0. -1.
         -5    1    3    3    0  503  0.14823369677E+03 -0.80359191173E+02  0.13448301265E+03  0.21572806761E+03  0.47000000000E+01 0.  1.
         13    1    4    4    0    0  0.64421187834E+02  0.15358318513E+02  0.13973268197E+03  0.15463243451E+03  0.00000000000E+00 0. -1.
        -14    1    4    4    0    0  0.10765625787E+02  0.60141498711E+01 -0.13125026781E+02  0.18009303853E+02  0.00000000000E+00 0.  1.
</event>
<event>
12    1  0.1046899E+000  0.2029025E+03  0.7818608E-02  0.1147351E+00
         21   -1    0    0  501  502  0.00000000000E+00  0.00000000000E+00  0.19059315149E+03  0.19059315149E+03  0.00000000000E+00 0. -1.
         21   -1    0    0  502  503 -0.00000000000E+00 -0.00000000000E+00 -0.26625857735E+03  0.26625857735E+03  0.00000000000E+00 0. -1.
         -6    2    1    2    0  503  0.29501994585E+02 -0.99470223016E+02 -0.13727620432E+03  0.24497790423E+03  0.17436950517E+03 0.  0.
        -24    2    3    3    0    0 -0.41572765132E+02 -0.93200096320E+02 -0.92174184000E+02  0.16043668236E+03  0.82639555270E+02 0.  0.
          6    2    1    2  501    0 -0.29501994585E+02  0.99470223016E+02  0.61610778452E+02  0.21187382461E+03  0.17415492122E+03 0.  0.
         24    2    5    5    0    0  0.21355501953E+02  0.48773812136E+02 -0.24818850675E+02  0.99407021418E+02  0.80192508032E+02 0.  0.
          5    1    5    5  501    0 -0.50857496539E+02  0.50696410880E+02  0.86429629126E+02  0.11246680320E+03  0.47000000000E+01 0. -1.
        -11    1    6    6    0    0  0.50931383027E+02  0.28726817874E+02 -0.53529312874E+01  0.58718733941E+02  0.00000000000E+00 0.  1.
         12    1    6    6    0    0 -0.29575881074E+02  0.20046994262E+02 -0.19465919387E+02  0.40688287477E+02  0.00000000000E+00 0. -1.
         -5    1    3    3    0  503  0.71074759718E+02 -0.62701266960E+01 -0.45102020321E+02  0.84541221867E+02  0.47000000000E+01 0.  1.
         13    1    4    4    0    0 -0.43372895449E+02 -0.21284844089E+02 -0.70197224556E+02  0.85216799887E+02  0.00000000000E+00 0. -1.
        -14    1    4    4    0    0  0.18001303171E+01 -0.71915252231E+02 -0.21976959443E+02  0.75219882471E+02  0.00000000000E+00 0.  1.
</event>
<event>
12    1  0.1046899E+000  0.2798300E+03  0.7818608E-02  0.1095922E+00
         21   -1    0    0  501  502  0.00000000000E+00  0.00000000000E+00  0.10074839218E+03  0.10074839218E+03  0.00000000000E+00 0.  1.
         21   -1    0    0  502  503 -0.00000000000E+00 -0.00000000000E+00 -0.84087438743E+03  0.84087438743E+03  0.00000000000E+00 0. -1.
         -6    2    1    2    0  503 -0.71310878597E+02  0.20752331627E+03 -0.50308168430E+03  0.57567006788E+03  0.17364814359E+03 0.  0.
        -24    2    3    3    0    0 -0.90726223348E+02  0.21310505807E+03 -0.49712249178E+03  0.55408967333E+03  0.78991017716E+02 0.  0.
          6    2    1    2  501    0  0.71310878597E+02 -0.20752331627E+03 -0.23704431095E+03  0.36595271173E+03  0.17198899288E+03 0.  0.
         24    2    5    5    0    0  0.57760512224E+01 -0.24524475408E+02 -0.70531218491E+02  0.10996034990E+03  0.80509708158E+02 0.  0.
          5    1    5    5  501    0  0.65534827374E+02 -0.18299884086E+03 -0.16651309246E+03  0.25599236183E+03  0.47000000000E+01 0. -1.
        -11    1    6    6    0    0 -0.37157492774E+01 -0.46827052551E+02 -0.14904218743E+02  0.49281998535E+02  0.00000000000E+00 0.  1.
         12    1    6    6    0    0  0.94918004998E+01  0.22302577143E+02 -0.55626999748E+02  0.60678351370E+02  0.00000000000E+00 0. -1.
         -5    1    3    3    0  503  0.19415344752E+02 -0.55817418050E+01 -0.59591925207E+01  0.21580394549E+02  0.47000000000E+01 0.  1.
         13    1    4    4    0    0 -0.18210032406E+02  0.13462416342E+03 -0.24259587808E+03  0.27804321736E+03  0.00000000000E+00 0. -1.
        -14    1    4    4    0    0 -0.72516190943E+02  0.78480894649E+02 -0.25452661370E+03  0.27604645597E+03  0.00000000000E+00 0.  1.
</event>
<event>
12    1  0.1046899E+000  0.1974367E+03  0.7818608E-02  0.1152820E+00
         21   -1    0    0  503  502  0.00000000000E+00  0.00000000000E+00  0.14229644654E+03  0.14229644654E+03  0.00000000000E+00 0. -1.
         21   -1    0    0  501  503 -0.00000000000E+00 -0.00000000000E+00 -0.54370508200E+03  0.54370508200E+03  0.00000000000E+00 0. -1.
          6    2    1    2  501    0  0.65404250738E+02 -0.69018967356E+02 -0.44590263384E+03  0.48765809526E+03  0.17303157267E+03 0.  0.
         24    2    3    3    0    0 -0.35599375366E+01 -0.73342415162E+02 -0.16244963840E+03  0.19586631661E+03  0.81129192956E+02 0.  0.
         -6    2    1    2    0  502 -0.65404250738E+02  0.69018967356E+02  0.44493998374E+02  0.19834343327E+03  0.16828270191E+03 0.  0.
        -24    2    5    5    0    0 -0.55111426101E+02  0.26248813112E+02  0.89898299487E+02  0.13494888388E+03  0.80020169542E+02 0.  0.
          5    1    3    3  501    0  0.68964188275E+02  0.43234478057E+01 -0.28345299544E+03  0.29179177865E+03  0.47000000000E+01 0. -1.
        -11    1    4    4    0    0  0.36496098435E+02 -0.17608214873E+02 -0.53792631131E+02  0.67347320630E+02  0.00000000000E+00 0.  1.
         12    1    4    4    0    0 -0.40056035972E+02 -0.55734200289E+02 -0.10865700727E+03  0.12851899598E+03  0.00000000000E+00 0. -1.
         -5    1    5    5    0  502 -0.10292824637E+02  0.42770154245E+02 -0.45404301113E+02  0.63394549393E+02  0.47000000000E+01 0.  1.
         13    1    6    6    0    0 -0.23205081559E+02 -0.28380184097E+02  0.40932865785E+02  0.54949159784E+02  0.00000000000E+00 0. -1.
        -14    1    6    6    0    0 -0.31906344541E+02  0.54628997209E+02  0.48965433702E+02  0.79999724098E+02  0.00000000000E+00 0.  1.
</event>
<event>
12    1  0.1046899E+000  0.1790257E+03  0.7818608E-02  0.1168948E+00
         21   -1    0    0  503  502  0.00000000000E+00  0.00000000000E+00  0.21907412967E+03  0.21907412967E+03  0.00000000000E+00 0. -1.
         21   -1    0    0  501  503 -0.00000000000E+00 -0.00000000000E+00 -0.23854035662E+03  0.23854035662E+03  0.00000000000E+00 0. -1.
          6    2    1    2  501    0 -0.27782748052E+02 -0.40428340676E+02 -0.15251476441E+03  0.23456264772E+03  0.17132586064E+03 0.  0.
         24    2    3    3    0    0 -0.65681803586E+02 -0.23900682918E+02 -0.15537179932E+03  0.19285228294E+03  0.90367389273E+02 0.  0.
         -6    2    1    2    0  502  0.27782748052E+02  0.40428340676E+02  0.13304853746E+03  0.22305183857E+03  0.17217397466E+03 0.  0.
        -24    2    5    5    0    0 -0.18870375475E+02  0.67942635753E+02  0.37300588855E+02  0.11294593487E+03  0.79957222628E+02 0.  0.
          5    1    3    3  501    0  0.37899055534E+02 -0.16527657758E+02  0.28570349189E+01  0.41710364778E+02  0.47000000000E+01 0. -1.
        -13    1    4    4    0    0 -0.61234907093E+02 -0.45837259730E+02 -0.66982799294E+02  0.10167331817E+03  0.00000000000E+00 0.  1.
         14    1    4    4    0    0 -0.44468964936E+01  0.21936576811E+02 -0.88389000030E+02  0.91178964773E+02  0.00000000000E+00 0. -1.
         -5    1    5    5    0  502  0.46653123527E+02 -0.27514295076E+02  0.95747948606E+02  0.11010590370E+03  0.47000000000E+01 0.  1.
         11    1    6    6    0    0 -0.43043374315E+02  0.21618249726E+02 -0.97121964354E+00  0.48177007599E+02  0.00000000000E+00 0. -1.
        -12    1    6    6    0    0  0.24172998839E+02  0.46324386027E+02  0.38271808498E+02  0.64768927268E+02  0.00000000000E+00 0.  1.
</event>
<event>
12    1  0.1046899E+000  0.1888327E+03  0.7818608E-02  0.1160393E+00
         21   -1    0    0  503  502  0.00000000000E+00  0.00000000000E+00  0.23013356982E+02  0.23013356982E+02  0.00000000000E+00 0. -1.
         21   -1    0    0  501  503 -0.00000000000E+00 -0.00000000000E+00 -0.15676773387E+04  0.15676773387E+04  0.00000000000E+00 0. -1.
          6    2    1    2  501    0 -0.44642330917E+02 -0.55416345524E+02 -0.92102553626E+03  0.94018392318E+03  0.17491101136E+03 0.  0.
         24    2    3    3    0    0 -0.77523595516E+02 -0.16701861351E+02 -0.36378283803E+03  0.38061131522E+03  0.78982023225E+02 0.  0.
         -6    2    1    2    0  502  0.44642330917E+02  0.55416345524E+02 -0.62363844542E+03  0.65050677247E+03  0.17079297807E+03 0.  0.
        -24    2    5    5    0    0  0.99419877968E+01  0.12470405735E+02 -0.12550149885E+03  0.14929726030E+03  0.79276046677E+02 0.  0.
          5    1    3    3  501    0  0.32881264599E+02 -0.38714484173E+02 -0.55724269823E+03  0.55957260796E+03  0.47000000000E+01 0. -1.
        -13    1    4    4    0    0 -0.34332725612E+02 -0.36383599070E+02 -0.27897727379E+03  0.28342692466E+03  0.00000000000E+00 0.  1.
         14    1    4    4    0    0 -0.43190869903E+02  0.19681737719E+02 -0.84805564239E+02  0.97184390560E+02  0.00000000000E+00 0. -1.
         -5    1    5    5    0  502  0.34700343120E+02  0.42945939789E+02 -0.49813694657E+03  0.50120951217E+03  0.47000000000E+01 0.  1.
         13    1    6    6    0    0  0.13084213909E+02 -0.32263291181E+02 -0.42344947084E+02  0.54819806229E+02  0.00000000000E+00 0. -1.
        -14    1    6    6    0    0 -0.31422261125E+01  0.44733696916E+02 -0.83156551770E+02  0.94477454067E+02  0.00000000000E+00 0.  1.
</event>
<event>
12    1  0.1046899E+000  0.3918715E+03  0.7818608E-02  0.1046680E+00
         21   -1    0    0  503  502  0.00000000000E+00  0.00000000000E+00  0.37232048610E+03  0.37232048610E+03  0.00000000000E+00 0. -1.
         21   -1    0    0  501  503 -0.00000000000E+00 -0.00000000000E+00 -0.42215051952E+03  0.42215051952E+03  0.00000000000E+00 0. -1.
          6    2    1    2  501    0 -0.10466267251E+03 -0.33547292729E+03  0.37082582508E+02  0.39307705565E+03  0.17215717758E+03 0.  0.
         24    2    3    3    0    0 -0.12462078923E+03 -0.17920577510E+03  0.25258618964E+02  0.23502755267E+03  0.83396053548E+02 0.  0.
         -6    2    1    2    0  502  0.10466267251E+03  0.33547292729E+03 -0.86912615927E+02  0.40139394996E+03  0.17339821307E+03 0.  0.
        -24    2    5    5    0    0  0.80494834693E+02  0.25751999338E+03 -0.12934440096E+03  0.30928916903E+03  0.78318903318E+02 0.  0.
          5    1    3    3  501    0  0.19958116722E+02 -0.15626715219E+03  0.11823963544E+02  0.15804950298E+03  0.47000000000E+01 0. -1.
        -13    1    4    4    0    0  0.69598383541E+01 -0.45092175065E+02  0.15237123103E+01  0.45651564061E+02  0.00000000000E+00 0.  1.
         14    1    4    4    0    0 -0.13158062759E+03 -0.13411360003E+03  0.23734906654E+02  0.18937598861E+03  0.00000000000E+00 0. -1.
         -5    1    5    5    0  502  0.24167837818E+02  0.77952933912E+02  0.42431785029E+02  0.92104780935E+02  0.47000000000E+01 0.  1.
         13    1    6    6    0    0  0.26898452330E+01  0.26659408397E+02  0.10040659829E+02  0.28614230258E+02  0.00000000000E+00 0. -1.
        -14    1    6    6    0    0  0.77804989460E+02  0.23086058498E+03 -0.13938506079E+03  0.28067493877E+03  0.00000000000E+00 0.  1.
</event>
<event>
12    1  0.1046899E+000  0.1807762E+03  0.7818608E-02  0.1167102E+00
         21   -1    0    0  501  502  0.00000000000E+00  0.00000000000E+00  0.12006371118E+04  0.12006371118E+04  0.00000000000E+00 0. -1.
         21   -1    0    0  502  503 -0.00000000000E+00 -0.00000000000E+00 -0.42734814108E+02  0.42734814108E+02  0.00000000000E+00 0. -1.
         -6    2    1    2    0  503  0.80943290544E+01 -0.56250196965E+02  0.20378781453E+03  0.27228260434E+03  0.17140227669E+03 0.  0.
        -24    2    3    3    0    0  0.29199331784E+02  0.30493070493E+02  0.96104040372E+02  0.13232653692E+03  0.80572312081E+02 0.  0.
          6    2    1    2  501    0 -0.80943290544E+01  0.56250196965E+02  0.95411448317E+03  0.97108932158E+03  0.17161124865E+03 0.  0.
         24    2    5    5    0    0  0.10180120701E+02  0.10387670357E+03  0.60201727097E+03  0.61528491396E+03  0.72503285381E+02 0.  0.
          5    1    5    5  501    0 -0.18274449755E+02 -0.47626506601E+02  0.35209721220E+03  0.35580440762E+03  0.47000000000E+01 0. -1.
        -11    1    6    6    0    0 -0.98208025130E+01 -0.57742660494E+00  0.17309261981E+03  0.17337196029E+03  0.00000000000E+00 0.  1.
         12    1    6    6    0    0  0.20000923214E+02  0.10445413017E+03  0.42892465117E+03  0.44191295367E+03  0.00000000000E+00 0. -1.
         -5    1    3    3    0  503 -0.21105002729E+02 -0.86743267458E+02  0.10768377416E+03  0.13995606742E+03  0.47000000000E+01 0.  1.
         13    1    4    4    0    0  0.31048197585E+02 -0.15247917419E+02  0.73584370207E+02  0.81308973045E+02  0.00000000000E+00 0. -1.
        -14    1    4    4    0    0 -0.18488658009E+01  0.45740987912E+02  0.22519670165E+02  0.51017563880E+02  0.00000000000E+00 0.  1.
</event>
<event>
12    1  0.1046899E+000  0.2112404E+03  0.7818608E-02  0.1140646E+00
         21   -1    0    0  503  502  0.00000000000E+00  0.00000000000E+00  0.40115630331E+03  0.40115630331E+03  0.00000000000E+00 0.  1.
         21   -1    0    0  501  503 -0.00000000000E+00 -0.00000000000E+00 -0.11444445180E+03  0.11444445180E+03  0.00000000000E+00 0.  1.
          6    2    1    2  501    0 -0.14171849334E+02 -0.12146313026E+03  0.18766377207E+03  0.28256008260E+03  0.17224510329E+03 0.  0.
         24    2    3    3    0    0 -0.62531702298E+02 -0.64418069838E+02  0.16555006264E+03  0.20443249182E+03  0.79535645818E+02 0.  0.
         -6    2    1    2    0  502  0.14171849334E+02  0.12146313026E+03  0.99048079439E+02  0.23304067251E+03  0.17188164440E+03 0.  0.
        -24    2    5    5    0    0 -0.50225090561E+02  0.65028355821E+02  0.93342818915E+02  0.14709598314E+03  0.78569075541E+02 0.  0.
          5    1    3    3  501    0  0.48359852964E+02 -0.57045060419E+02  0.22113709425E+02  0.78127590782E+02  0.47000000000E+01 0. -1.
        -11    1    4    4    0    0 -0.10147341788E+02 -0.41251230400E+02  0.13059477964E+03  0.13733036454E+03  0.00000000000E+00 0.  1.
         12    1    4    4    0    0 -0.52384360510E+02 -0.23166839438E+02  0.34955283001E+02  0.67102127278E+02  0.00000000000E+00 0. -1.
         -5    1    5    5    0  502  0.64396939895E+02  0.56434774436E+02  0.57052605238E+01  0.85944689371E+02  0.47000000000E+01 0.  1.
         13    1    6    6    0    0 -0.42385181407E+02  0.80647707390E+02  0.58944666089E+02  0.10851281017E+03  0.00000000000E+00 0. -1.
        -14    1    6    6    0    0 -0.78399091542E+01 -0.15619351570E+02  0.34398152826E+02  0.38583172975E+02  0.00000000000E+00 0.  1.
</event>
<event>
12    1  0.1046899E+000  0.2934598E+03  0.7818608E-02  0.1088561E+00
         21   -1    0    0  501  502  0.00000000000E+00  0.00000000000E+00  0.11628476926E+03  0.11628476926E+03  0.00000000000E+00 0. -1.
         21   -1    0    0  502  503 -0.00000000000E+00 -0.00000000000E+00 -0.88306204863E+03  0.88306204863E+03  0.00000000000E+00 0.  1.
         -6    2    1    2    0  503  0.23612799080E+03  0.30894589702E+02 -0.18260427909E+03  0.34560621483E+03  0.17143053775E+03 0.  0.
        -24    2    3    3    0    0  0.12639404836E+03  0.75912036457E+02 -0.66398788183E+02  0.17949205302E+03  0.77913447393E+02 0.  0.
          6    2    1    2  501    0 -0.23612799080E+03 -0.30894589702E+02 -0.58417300028E+03  0.65374060306E+03  0.17148696197E+03 0.  0.
         24    2    5    5    0    0 -0.18593325199E+03 -0.27003148448E+02 -0.28979675817E+03  0.35505327987E+03  0.82342736637E+02 0.  0.
          5    1    5    5  501    0 -0.50194738812E+02 -0.38914412534E+01 -0.29437624211E+03  0.29868732320E+03  0.47000000000E+01 0. -1.
        -11    1    6    6    0    0 -0.79767321070E+02 -0.18504772684E+02 -0.19866983136E+03  0.21488358247E+03  0.00000000000E+00 0.  1.
         12    1    6    6    0    0 -0.10616593092E+03 -0.84983757641E+01 -0.91126926812E+02  0.14016969740E+03  0.00000000000E+00 0. -1.
         -5    1    3    3    0  503  0.10973394244E+03 -0.45017446755E+02 -0.11620549091E+03  0.16611416181E+03  0.47000000000E+01 0.  1.
         13    1    4    4    0    0 -0.16087797847E+00 -0.13799686176E+01 -0.25672791616E+02  0.25710356366E+02  0.00000000000E+00 0. -1.
        -14    1    4    4    0    0  0.12655492634E+03  0.77292005075E+02 -0.40725996567E+02  0.15378169665E+03  0.00000000000E+00 0.  1.
</event>
<event>
12    1  0.1046899E+000  0.2539106E+03  0.7818608E-02  0.1111086E+00
         21   -1    0    0  501  502  0.00000000000E+00  0.00000000000E+00  0.10361207420E+04  0.10361207420E+04  0.00000000000E+00 0.  1.
         21   -1    0    0  502  503 -0.00000000000E+00 -0.00000000000E+00 -0.63588142820E+02  0.63588142820E+02  0.00000000000E+00 0.  1.
         -6    2    1    2    0  503  0.12486813007E+03 -0.13838288927E+03  0.39708775249E+03  0.47132715200E+03  0.17242020498E+03 0.  0.
        -24    2    3    3    0    0  0.11208547582E+03 -0.34859135632E+02  0.28452411785E+03  0.31779140482E+03  0.79114411561E+02 0.  0.
          6    2    1    2  501    0 -0.12486813007E+03  0.13838288927E+03  0.57544484667E+03  0.62838173280E+03  0.17024968902E+03 0.  0.
         24    2    5    5    0    0 -0.11983384016E+03  0.15594556171E+03  0.57088265775E+03  0.60897309797E+03  0.79133164176E+02 0.  0.
          5    1    5    5  501    0 -0.50342899044E+01 -0.17562672443E+02  0.45621889243E+01  0.19408634830E+02  0.47000000000E+01 0. -1.
        -11    1    6    6    0    0 -0.68015053180E+02  0.95231857476E+02  0.44322978688E+03  0.45841880209E+03  0.00000000000E+00 0.  1.
         12    1    6    6    0    0 -0.51818786982E+02  0.60713704236E+02  0.12765287087E+03  0.15055429588E+03  0.00000000000E+00 0. -1.
         -5    1    3    3    0  503  0.12782654244E+02 -0.10352375364E+03  0.11256363465E+03  0.15353574718E+03  0.47000000000E+01 0.  1.
         11    1    4    4    0    0  0.27785723477E+02 -0.30926824574E+02  0.34880392827E+02  0.54269298052E+02  0.00000000000E+00 0. -1.
        -12    1    4    4    0    0  0.84299752346E+02 -0.39323110583E+01  0.24964372502E+03  0.26352210677E+03  0.00000000000E+00 0.  1.
</event>
<event>
12    1  0.1046899E+000  0.2009839E+03  0.7818608E-02  0.1148944E+00
         21   -1    0    0  501  502  0.00000000000E+00  0.00000000000E+00  0.45730550389E+02  0.45730550389E+02  0.00000000000E+00 0. -1.
         21   -1    0    0  502  503 -0.00000000000E+00 -0.00000000000E+00 -0.11193457700E+04  0.11193457700E+04  0.00000000000E+00 0. -1.
         -6    2    1    2    0  503 -0.70078200160E+02 -0.76229246585E+02 -0.26908433217E+03  0.33585848459E+03  0.17225763169E+03 0.  0.
        -24    2    3    3    0    0  0.21333009473E+02 -0.46104700045E+02 -0.18596109214E+03  0.20859866931E+03  0.79694017275E+02 0.  0.
          6    2    1    2  501    0  0.70078200160E+02  0.76229246585E+02 -0.80453088741E+03  0.82921783577E+03  0.17207677993E+03 0.  0.
         24    2    5    5    0    0  0.60029903598E+02  0.11296148645E+03 -0.73202021766E+03  0.74718057023E+03  0.77854471465E+02 0.  0.
          5    1    5    5  501    0  0.10048296562E+02 -0.36732239862E+02 -0.72510669754E+02  0.82037265540E+02  0.47000000000E+01 0. -1.
        -11    1    6    6    0    0 -0.14720480598E+02  0.47935489409E+02 -0.27651735804E+03  0.28102731716E+03  0.00000000000E+00 0.  1.
         12    1    6    6    0    0  0.74750384196E+02  0.65025997039E+02 -0.45550285962E+03  0.46615325307E+03  0.00000000000E+00 0. -1.
         -5    1    3    3    0  503 -0.91411209634E+02 -0.30124546540E+02 -0.83123240035E+02  0.12725981528E+03  0.47000000000E+01 0.  1.
         13    1    4    4    0    0  0.22128310693E+01 -0.22611286442E+02 -0.17487258789E+03  0.17634224931E+03  0.00000000000E+00 0. -1.
        -14    1    4    4    0    0  0.19120178404E+02 -0.23493413603E+02 -0.11088504250E+02  0.32256420003E+02  0.00000000000E+00 0.  1.
</event>
<event>
12    1  0.1046899E+000  0.2923036E+03  0.7818608E-02  0.1089214E+00
         21   -1    0    0  503  502  0.00000000000E+00  0.00000000000E+00  0.85421623340E+02  0.85421623340E+02  0.00000000000E+00 0. -1.
         21   -1    0    0  501  503 -0.00000000000E+00 -0.00000000000E+00 -0.11250979186E+04  0.11250979186E+04  0.00000000000E+00 0. -1.
          6    2    1    2  501    0  0.22755752725E+03  0.61986552338E+02 -0.31652637703E+03  0.43052774476E+03  0.17187329861E+03 0.  0.
         24    2    3    3    0    0  0.20708843688E+03  0.36763125606E+00 -0.22428740389E+03  0.31762959038E+03  0.87738026525E+02 0.  0.
         -6    2    1    2    0  502 -0.22755752725E+03 -0.61986552338E+02 -0.72314991819E+03  0.77999179715E+03  0.17267495057E+03 0.  0.
        -24    2    5    5    0    0 -0.32874967389E+02 -0.35849241333E+02 -0.23807930033E+03  0.25663718271E+03  0.82552763236E+02 0.  0.
          5    1    3    3  501    0  0.20469090361E+02  0.61618921082E+02 -0.92238973142E+02  0.11289815438E+03  0.47000000000E+01 0. -1.
        -11    1    4    4    0    0  0.10052768968E+03 -0.42671623607E+02 -0.12246995167E+03  0.16409013656E+03  0.00000000000E+00 0.  1.
         12    1    4    4    0    0  0.10656074720E+03  0.43039254863E+02 -0.10181745222E+03  0.15353945382E+03  0.00000000000E+00 0. -1.
         -5    1    5    5    0  502 -0.19468255986E+03 -0.26137311005E+02 -0.48507061786E+03  0.52335461444E+03  0.47000000000E+01 0.  1.
         13    1    6    6    0    0 -0.27300996064E+02 -0.21016254530E+02 -0.23831214863E+03  0.24078975793E+03  0.00000000000E+00 0. -1.
        -14    1    6    6    0    0 -0.55739713252E+01 -0.14832986803E+02  0.23284829586E+00  0.15847424780E+02  0.00000000000E+00 0.  1.
</event>
<event>
12    1  0.1046899E+000  0.2098199E+03  0.7818608E-02  0.1141795E+00
         21   -1    0    0  503  502  0.00000000000E+00  0.00000000000E+00  0.42718566200E+03  0.42718566200E+03  0.00000000000E+00 0. -1.
         21   -1    0    0  501  503 -0.00000000000E+00 -0.00000000000E+00 -0.15838906037E+03  0.15838906037E+03  0.00000000000E+00 0. -1.
          6    2    1    2  501    0 -0.75461400515E+02 -0.95760182445E+02  0.30769537590E+03  0.37217948884E+03  0.17022541541E+03 0.  0.
         24    2    3    3    0    0 -0.42067318518E+01 -0.44934566815E+02  0.25329935585E+03  0.26902190062E+03  0.78583760715E+02 0.  0.
         -6    2    1    2    0  502  0.75461400515E+02  0.95760182445E+02 -0.38898774273E+02  0.21339523353E+03  0.17076292203E+03 0.  0.
        -24    2    5    5    0    0  0.27356618504E+02  0.94457658548E+02  0.29695800393E+02  0.12947221943E+03  0.78807240845E+02 0.  0.
          5    1    3    3  501    0 -0.71254668663E+02 -0.50825615630E+02  0.54396020050E+02  0.10315758822E+03  0.47000000000E+01 0. -1.
        -13    1    4    4    0    0  0.65966405282E+01 -0.40941310434E+02  0.48136703215E+02  0.63536200411E+02  0.00000000000E+00 0.  1.
         14    1    4    4    0    0 -0.10803372380E+02 -0.39932563810E+01  0.20516265264E+03  0.20548570021E+03  0.00000000000E+00 0. -1.
         -5    1    5    5    0  502  0.48104782010E+02  0.13025238974E+01 -0.68594574666E+02  0.83923014092E+02  0.47000000000E+01 0.  1.
         13    1    6    6    0    0  0.29130666805E+02 -0.16286795718E+01  0.12951863845E+02  0.31921765658E+02  0.00000000000E+00 0. -1.
        -14    1    6    6    0    0 -0.17740483009E+01  0.96086338119E+02  0.16743936548E+02  0.97550453775E+02  0.00000000000E+00 0.  1.
</event>
<event>
12    1  0.1046899E+000  0.1994323E+03  0.7818608E-02  0.1150331E+00
         21   -1    0    0  503  502  0.00000000000E+00  0.00000000000E+00  0.16729650879E+04  0.16729650879E+04  0.00000000000E+00 0. -1.
         21   -1    0    0  501  503 -0.00000000000E+00 -0.00000000000E+00 -0.38800539497E+02  0.38800539497E+02  0.00000000000E+00 0. -1.
          6    2    1    2  501    0  0.93698032469E+02  0.36021896729E+02  0.13514864536E+04  0.13661218406E+04  0.17232629198E+03 0.  0.
         24    2    3    3    0    0  0.13461767480E+02  0.73778212992E+02  0.80527741530E+03  0.81274150024E+03  0.80327994605E+02 0.  0.
         -6    2    1    2    0  502 -0.93698032469E+02 -0.36021896729E+02  0.28267809480E+03  0.34564378674E+03  0.17171436662E+03 0.  0.
        -24    2    5    5    0    0 -0.40457501637E+02  0.38922183418E+02  0.93708706871E+02  0.13544700074E+03  0.80080100307E+02 0.  0.
          5    1    3    3  501    0  0.80236264989E+02 -0.37756316263E+02  0.54620903829E+03  0.55338034040E+03  0.47000000000E+01 0. -1.
        -11    1    4    4    0    0 -0.27659496514E+02  0.44067558360E+02  0.26305240177E+03  0.26814839832E+03  0.00000000000E+00 0.  1.
         12    1    4    4    0    0  0.41121263994E+02  0.29710654632E+02  0.54222501354E+03  0.54459310192E+03  0.00000000000E+00 0. -1.
         -5    1    5    5    0  502 -0.53240530832E+02 -0.74944080147E+02  0.18896938793E+03  0.21019678600E+03  0.47000000000E+01 0.  1.
         11    1    6    6    0    0 -0.58464542009E+02  0.42730906632E+02  0.49940733671E+02  0.87966527347E+02  0.00000000000E+00 0. -1.
        -12    1    6    6    0    0  0.18007040372E+02 -0.38087232146E+01  0.43767973201E+02  0.47480473392E+02  0.00000000000E+00 0.  1.
</event>
<event>
12    1  0.1046899E+000  0.2111144E+03  0.7818608E-02  0.1144463E+00
         21   -1    0    0  503  502  0.00000000000E+00  0.00000000000E+00  0.17284069350E+03  0.17284069350E+03  0.00000000000E+00 0. -1.
         21   -1    0    0  501  503 -0.00000000000E+00 -0.00000000000E+00 -0.25811696109E+03  0.25811696109E+03  0.00000000000E+00 0. -1.
          6    2    1    2  501    0  0.87622252867E+02 -0.69826386875E+00 -0.10742476155E+03  0.23687420080E+03  0.19207071834E+03 0.  0.
         24    2    3    3    0    0  0.10637731961E+03 -0.54402548909E+02 -0.35767297516E+02  0.14526205689E+03  0.74471431740E+02 0.  0.
         -6    2    1    2    0  502 -0.87622252867E+02  0.69826386875E+00  0.22148493968E+02  0.19408345379E+03  0.17175472186E+03 0.  0.
        -24    2    5    5    0    0 -0.37679682462E+02 -0.54518256269E+02 -0.24600298989E+02  0.10604559785E+03  0.79047424858E+02 0.  0.
          5    1    3    3  501    0 -0.18755066743E+02  0.53704285041E+02 -0.71657464036E+02  0.91612143913E+02  0.47000000000E+01 0. -1.
        -11    1    4    4    0    0  0.67764941375E+02 -0.46024408309E+02 -0.57581066861E+02  0.10012947968E+03  0.00000000000E+00 0.  1.
         12    1    4    4    0    0  0.38612378235E+02 -0.83781406004E+01  0.21813769345E+02  0.45132577213E+02  0.00000000000E+00 0. -1.
         -5    1    5    5    0  502 -0.49942570405E+02  0.55216520138E+02  0.46748792958E+02  0.88037855936E+02  0.47000000000E+01 0.  1.
         13    1    6    6    0    0 -0.13788749351E+02  0.16523752543E+02  0.97146289634E+01  0.23612243067E+02  0.00000000000E+00 0. -1.
        -14    1    6    6    0    0 -0.23890933111E+02 -0.71042008812E+02 -0.34314927952E+02  0.82433354786E+02  0.00000000000E+00 0.  1.
</event>
<event>
12    1  0.1046899E+000  0.1781477E+03  0.7818608E-02  0.1171633E+00
         21   -1    0    0  501  502  0.00000000000E+00  0.00000000000E+00  0.39056373925E+03  0.39056373925E+03  0.00000000000E+00 0.  1.
         21   -1    0    0  502  503 -0.00000000000E+00 -0.00000000000E+00 -0.82725666277E+02  0.82725666277E+02  0.00000000000E+00 0.  1.
         -6    2    1    2    0  503  0.26266420783E+02 -0.40796562727E+02  0.21600347514E+03  0.27998945538E+03  0.17141268756E+03 0.  0.
        -24    2    3    3    0    0  0.48241797604E+01  0.43375007495E+02  0.11051986929E+03  0.14326526572E+03  0.80035185191E+02 0.  0.
          6    2    1    2  501    0 -0.26266420783E+02  0.40796562727E+02  0.91834597830E+02  0.19329995015E+03  0.16302451649E+03 0.  0.
         24    2    5    5    0    0  0.16145200191E+02  0.70552319135E+02  0.31053757376E+02  0.11329650523E+03  0.81446086614E+02 0.  0.
          5    1    5    5  501    0 -0.42411620975E+02 -0.29755756408E+02  0.60780840453E+02  0.80003444922E+02  0.47000000000E+01 0. -1.
        -11    1    6    6    0    0  0.89793877928E+01  0.28197049761E+02  0.56204021939E+02  0.63518462690E+02  0.00000000000E+00 0.  1.
         12    1    6    6    0    0  0.71658123986E+01  0.42355269374E+02 -0.25150264563E+02  0.49778042536E+02  0.00000000000E+00 0. -1.
         -5    1    3    3    0  503  0.21442241023E+02 -0.84171570222E+02  0.10548360585E+03  0.13672418966E+03  0.47000000000E+01 0.  1.
         11    1    4    4    0    0 -0.15044850155E+01 -0.23641642080E+02  0.32545022213E+02  0.40253809587E+02  0.00000000000E+00 0. -1.
        -12    1    4    4    0    0  0.63286647759E+01  0.67016649575E+02  0.77974847073E+02  0.10301145613E+03  0.00000000000E+00 0.  1.
</event>
<event>
12    1  0.1046899E+000  0.1732535E+03  0.7818608E-02  0.1176240E+00
         21   -1    0    0  501  502  0.00000000000E+00  0.00000000000E+00  0.98584307739E+02  0.98584307739E+02  0.00000000000E+00 0. -1.
         21   -1    0    0  502  503 -0.00000000000E+00 -0.00000000000E+00 -0.33052310475E+03  0.33052310475E+03  0.00000000000E+00 0. -1.
         -6    2    1    2    0  503 -0.46252266585E+01 -0.49812774186E+00 -0.19047157763E+03  0.25748045255E+03  0.17319099488E+03 0.  0.
        -24    2    3    3    0    0  0.10296052478E+02  0.65132287296E+02 -0.14049279645E+03  0.17351638572E+03  0.77598239132E+02 0.  0.
          6    2    1    2  501    0  0.46252266585E+01  0.49812774186E+00 -0.41467219377E+02  0.17162695994E+03  0.16647715231E+03 0.  0.
         24    2    5    5    0    0 -0.17418551604E+02 -0.41112484651E+02 -0.70966722352E+02  0.11586243807E+03  0.79963657613E+02 0.  0.
          5    1    5    5  501    0  0.22043778262E+02  0.41610612393E+02  0.29499502974E+02  0.55764521872E+02  0.47000000000E+01 0. -1.
        -13    1    6    6    0    0 -0.19400763714E+02 -0.24507599618E+02  0.10286427236E+02  0.32906270785E+02  0.00000000000E+00 0.  1.
         14    1    6    6    0    0  0.19822121096E+01 -0.16604885034E+02 -0.81253149588E+02  0.82956167280E+02  0.00000000000E+00 0. -1.
         -5    1    3    3    0  503 -0.14921279137E+02 -0.65630415038E+02 -0.49978781184E+02  0.83964066825E+02  0.47000000000E+01 0.  1.
         13    1    4    4    0    0 -0.18265403515E+02 -0.98420659882E+01 -0.38653934607E+02  0.43870467163E+02  0.00000000000E+00 0. -1.
        -14    1    4    4    0    0  0.28561455993E+02  0.74974353284E+02 -0.10183886184E+03  0.12964591856E+03  0.00000000000E+00 0.  1.
</event>
<event>
12    1  0.1046899E+000  0.1726547E+03  0.7818608E-02  0.1176153E+00
         21   -1    0    0  501  502  0.00000000000E+00  0.00000000000E+00  0.72073367823E+03  0.72073367823E+03  0.00000000000E+00 0.  1.
         21   -1    0    0  502  503 -0.00000000000E+00 -0.00000000000E+00 -0.46169341939E+02  0.46169341939E+02  0.00000000000E+00 0.  1.
         -6    2    1    2    0  503 -0.61535553759E+01 -0.16839115727E+02  0.20521297566E+03  0.26818281017E+03  0.17172137965E+03 0.  0.
        -24    2    3    3    0    0  0.33222157137E+02 -0.33469209497E+02  0.20537854912E+03  0.22518136636E+03  0.79387654012E+02 0.  0.
          6    2    1    2  501    0  0.61535553759E+01  0.16839115727E+02  0.46935136063E+03  0.49872021000E+03  0.16765955408E+03 0.  0.
         24    2    5    5    0    0  0.54193479261E+02 -0.26905421324E+02  0.33391823724E+03  0.34843501538E+03  0.79023641372E+02 0.  0.
          5    1    5    5  501    0 -0.48039923885E+02  0.43744537051E+02  0.13543312339E+03  0.15028519462E+03  0.47000000000E+01 0. -1.
        -11    1    6    6    0    0 -0.99018769192E+01  0.16715825939E+02  0.10392582167E+03  0.10572626170E+03  0.00000000000E+00 0.  1.
         12    1    6    6    0    0  0.64095356181E+02 -0.43621247263E+02  0.22999241557E+03  0.24270875369E+03  0.00000000000E+00 0. -1.
         -5    1    3    3    0  503 -0.39375712513E+02  0.16630093770E+02 -0.16557345971E+00  0.43001443805E+02  0.47000000000E+01 0.  1.
         11    1    4    4    0    0 -0.21396846658E+02 -0.30240197886E+02  0.95519026770E+02  0.10245086183E+03  0.00000000000E+00 0. -1.
        -12    1    4    4    0    0  0.54619003795E+02 -0.32290116110E+01  0.10985952235E+03  0.12273050453E+03  0.00000000000E+00 0.  1.
</event>
<event>
12    1  0.1046899E+000  0.2009455E+03  0.7818608E-02  0.1149358E+00
         21   -1    0    0  501  502  0.00000000000E+00  0.00000000000E+00  0.41971707533E+03  0.41971707533E+03  0.00000000000E+00 0.  1.
         21   -1    0    0  502  503 -0.00000000000E+00 -0.00000000000E+00 -0.96339712949E+02  0.96339712949E+02  0.00000000000E+00 0.  1.
         -6    2    1    2    0  503 -0.10069298907E+03 -0.21531668499E+01  0.18812347259E+03  0.27383232577E+03  0.17160998665E+03 0.  0.
        -24    2    3    3    0    0 -0.12095232684E+03 -0.38549017952E+02  0.17627496304E+03  0.23027115128E+03  0.76396651541E+02 0.  0.
          6    2    1    2  501    0  0.10069298907E+03  0.21531668499E+01  0.13525388979E+03  0.24222446251E+03  0.17388318309E+03 0.  0.
         24    2    5    5    0    0 -0.13798980073E+02  0.45054315022E+01  0.27721552489E+02  0.85064551235E+02  0.79099827056E+02 0.  0.
          5    1    5    5  501    0  0.11449196914E+03 -0.23522646523E+01  0.10753233730E+03  0.15715991128E+03  0.47000000000E+01 0. -1.
        -13    1    6    6    0    0 -0.70369073766E+01  0.30000676670E+02  0.44260848829E+02  0.53931265563E+02  0.00000000000E+00 0.  1.
         14    1    6    6    0    0 -0.67620726960E+01 -0.25495245168E+02 -0.16539296340E+02  0.31133285672E+02  0.00000000000E+00 0. -1.
         -5    1    3    3    0  503  0.20259337764E+02  0.36395851102E+02  0.11848509559E+02  0.43561174489E+02  0.47000000000E+01 0.  1.
         13    1    4    4    0    0 -0.44714830258E+02  0.22903364715E+02  0.60262860552E+02  0.78457584223E+02  0.00000000000E+00 0. -1.
        -14    1    4    4    0    0 -0.76237496578E+02 -0.61452382667E+02  0.11601210248E+03  0.15181356706E+03  0.00000000000E+00 0.  1.
</event>
<event>
12    1  0.1046899E+000  0.2754316E+03  0.7818608E-02  0.1098252E+00
         21   -1    0    0  501  502  0.00000000000E+00  0.00000000000E+00  0.25849108723E+04  0.25849108723E+04  0.00000000000E+00 0.  1.
         21   -1    0    0  502  503 -0.00000000000E+00 -0.00000000000E+00 -0.31206854520E+02  0.31206854520E+02  0.00000000000E+00 0.  1.
         -6    2    1    2    0  503  0.20881414719E+03 -0.47562054663E+02  0.15994192018E+04  0.16229616060E+04  0.17319669322E+03 0.  0.
        -24    2    3    3    0    0  0.11640788667E+03 -0.91278489680E+02  0.11254689291E+04  0.11380894635E+04  0.81760367626E+02 0.  0.
          6    2    1    2  501    0 -0.20881414719E+03  0.47562054663E+02  0.95428481605E+03  0.99315612083E+03  0.17272542688E+03 0.  0.
         24    2    5    5    0    0 -0.21376011931E+03  0.48012233182E+02  0.70296937448E+03  0.74174767532E+03  0.89582974098E+02 0.  0.
          5    1    5    5  501    0  0.49459721202E+01 -0.45017851910E+00  0.25131544157E+03  0.25140844551E+03  0.47000000000E+01 0. -1.
        -13    1    6    6    0    0  0.65947592365E+01 -0.32726039405E+01  0.53409686774E+02  0.53914705111E+02  0.00000000000E+00 0.  1.
         14    1    6    6    0    0 -0.22035487855E+03  0.51284837122E+02  0.64955968771E+03  0.68783297021E+03  0.00000000000E+00 0. -1.
         -5    1    3    3    0  503  0.92406260519E+02  0.43716435017E+02  0.47395027262E+03  0.48487214252E+03  0.47000000000E+01 0.  1.
         13    1    4    4    0    0  0.81082016595E+02 -0.13965432992E+02  0.47228906291E+03  0.47940200842E+03  0.00000000000E+00 0. -1.
        -14    1    4    4    0    0  0.35325870077E+02 -0.77313056688E+02  0.65317986623E+03  0.65868745507E+03  0.00000000000E+00 0.  1.
</event>
<event>
12    1  0.1046899E+000  0.2375008E+03  0.7818608E-02  0.1121556E+00
         21   -1    0    0  501  502  0.00000000000E+00  0.00000000000E+00  0.30082212547E+03  0.30082212547E+03  0.00000000000E+00 0.  1.
         21   -1    0    0  502  503 -0.00000000000E+00 -0.00000000000E+00 -0.19035366430E+03  0.19035366430E+03  0.00000000000E+00 0.  1.
         -6    2    1    2    0  503 -0.13819593015E+03 -0.87877361613E+02  0.87277537402E+02  0.25254545927E+03  0.17129300823E+03 0.  0.
        -24    2    3    3    0    0 -0.12980213893E+03 -0.18124202073E+02  0.76083769541E+02  0.18124784756E+03  0.99423137574E+02 0.  0.
          6    2    1    2  501    0  0.13819593015E+03  0.87877361613E+02  0.23190923762E+02  0.23863033050E+03  0.17200601703E+03 0.  0.
         24    2    5    5    0    0  0.37805679892E+02  0.42387004404E+02 -0.46894402549E+02  0.10793366677E+03  0.78896538942E+02 0.  0.
          5    1    5    5  501    0  0.10039025026E+03  0.45490357209E+02  0.70085326311E+02  0.13069666373E+03  0.47000000000E+01 0. -1.
        -13    1    6    6    0    0  0.45916137584E+02 -0.12580859547E+01 -0.38421280270E+01  0.46093778524E+02  0.00000000000E+00 0.  1.
         14    1    6    6    0    0 -0.81104576915E+01  0.43645090359E+02 -0.43052274522E+02  0.61839888243E+02  0.00000000000E+00 0. -1.
         -5    1    3    3    0  503 -0.83937912258E+01 -0.69753159541E+02  0.11193767861E+02  0.71297611713E+02  0.47000000000E+01 0.  1.
         11    1    4    4    0    0 -0.19339582978E+02 -0.46053771714E+02  0.30524143210E+02  0.58537959288E+02  0.00000000000E+00 0. -1.
        -12    1    4    4    0    0 -0.11046255595E+03  0.27929569642E+02  0.45559626331E+02  0.12270988827E+03  0.00000000000E+00 0.  1.
</event>
<event>
12    1  0.1046899E+000  0.2260004E+03  0.7818608E-02  0.1129699E+00
         21   -1    0    0  503  502  0.00000000000E+00  0.00000000000E+00  0.28240736276E+03  0.28240736276E+03  0.00000000000E+00 0.  1.
         21   -1    0    0  501  503 -0.00000000000E+00 -0.00000000000E+00 -0.18213274462E+03  0.18213274462E+03  0.00000000000E+00 0.  1.
          6    2    1    2  501    0 -0.13330066057E+03 -0.55857982071E+02  0.75605243948E+02  0.23719733344E+03  0.17221278062E+03 0.  0.
         24    2    3    3    0    0 -0.11130250104E+03 -0.14588153037E+01 -0.50282744255E+01  0.13736225617E+03  0.80328892671E+02 0.  0.
         -6    2    1    2    0  502  0.13330066057E+03  0.55857982071E+02  0.24669374185E+02  0.22734277394E+03  0.17374400298E+03 0.  0.
        -24    2    5    5    0    0  0.24026341803E+02  0.15715732570E+01  0.57715462709E+02  0.10084366370E+03  0.79111534751E+02 0.  0.
          5    1    3    3  501    0 -0.21998159533E+02 -0.54399166767E+02  0.80633518373E+02  0.99835077267E+02  0.47000000000E+01 0. -1.
        -11    1    4    4    0    0  0.94232486702E+01 -0.10796934992E+02  0.64849310181E+01  0.15729772759E+02  0.00000000000E+00 0.  1.
         12    1    4    4    0    0 -0.12072574971E+03  0.93381196887E+01 -0.11513205444E+02  0.12163248341E+03  0.00000000000E+00 0. -1.
         -5    1    5    5    0  502  0.10927431877E+03  0.54286408814E+02 -0.33046088525E+02  0.12649911024E+03  0.47000000000E+01 0.  1.
         11    1    6    6    0    0  0.41428102946E+02 -0.23972895576E+02  0.19476932624E+02  0.51675316549E+02  0.00000000000E+00 0. -1.
        -12    1    6    6    0    0 -0.17401761143E+02  0.25544468833E+02  0.38238530086E+02  0.49168347155E+02  0.00000000000E+00 0.  1.
</event>
<event>
12    1  0.1046899E+000  0.1841937E+03  0.7818608E-02  0.1164336E+00
         21   -1    0    0  503  502  0.00000000000E+00  0.00000000000E+00  0.53841567021E+02  0.53841567021E+02  0.00000000000E+00 0. -1.
         21   -1    0    0  501  503 -0.00000000000E+00 -0.00000000000E+00 -0.62574853408E+03  0.62574853408E+03  0.00000000000E+00 0. -1.
          6    2    1    2  501    0 -0.64853364833E+02  0.14079034342E+01 -0.31231281706E+03  0.36258327015E+03  0.17239312914E+03 0.  0.
         24    2    3    3    0    0 -0.86601363500E+02  0.37511405405E+02 -0.28921627517E+03  0.31429270640E+03  0.78911024436E+02 0.  0.
         -6    2    1    2    0  502  0.64853364833E+02 -0.14079034342E+01 -0.25959415000E+03  0.31700683095E+03  0.16998902032E+03 0.  0.
        -24    2    5    5    0    0  0.77037475581E+02  0.52647990106E+02 -0.14754704187E+03  0.19191831579E+03  0.79724067056E+02 0.  0.
          5    1    3    3  501    0  0.21747998668E+02 -0.36103501971E+02 -0.23096541889E+02  0.48290563756E+02  0.47000000000E+01 0. -1.
        -13    1    4    4    0    0 -0.50377083976E+02 -0.20687846000E+02 -0.12986837758E+03  0.14082483111E+03  0.00000000000E+00 0.  1.
         14    1    4    4    0    0 -0.36224279525E+02  0.58199251405E+02 -0.15934789759E+03  0.17346787529E+03  0.00000000000E+00 0. -1.
         -5    1    5    5    0  502 -0.12184110749E+02 -0.54055893540E+02 -0.11204710814E+03  0.12508851515E+03  0.47000000000E+01 0.  1.
         13    1    6    6    0    0  0.53869827373E+02  0.58221537982E+02 -0.55428851599E+02  0.96768090690E+02  0.00000000000E+00 0. -1.
        -14    1    6    6    0    0  0.23167648208E+02 -0.55735478758E+01 -0.92118190267E+02  0.95150225105E+02  0.00000000000E+00 0.  1.
</event>
<event>
12    1  0.1046899E+000  0.2232201E+03  0.7818608E-02  0.1131655E+00
         21   -1    0    0  501  502  0.00000000000E+00  0.00000000000E+00  0.31280268388E+03  0.31280268388E+03  0.00000000000E+00 0.  1.
         21   -1    0    0  502  503 -0.00000000000E+00 -0.00000000000E+00 -0.16072466054E+03  0.16072466054E+03  0.00000000000E+00 0.  1.
         -6    2    1    2    0  503 -0.49970585637E+02 -0.13223410445E+03  0.49386041544E+02  0.22781846185E+03  0.17169552310E+03 0.  0.
        -24    2    3    3    0    0 -0.73236340035E+02 -0.97001102387E+02  0.88488999456E+02  0.17007947087E+03  0.79523254587E+02 0.  0.
          6    2    1    2  501    0  0.49970585637E+02  0.13223410445E+03  0.10269198180E+03  0.24570888257E+03  0.17275501163E+03 0.  0.
         24    2    5    5    0    0  0.28200079972E+02  0.64508607660E+02 -0.14972046670E+02  0.10813122659E+03  0.80694454635E+02 0.  0.
          5    1    5    5  501    0  0.21770505665E+02  0.67725496786E+02  0.11766402847E+03  0.13757765599E+03  0.47000000000E+01 0. -1.
        -11    1    6    6    0    0  0.11726964539E+02  0.38137107585E+02  0.32446689440E+02  0.51427116659E+02  0.00000000000E+00 0.  1.
         12    1    6    6    0    0  0.16473115434E+02  0.26371500075E+02 -0.47418736110E+02  0.56704109926E+02  0.00000000000E+00 0. -1.
         -5    1    3    3    0  503  0.23265754397E+02 -0.35233002059E+02 -0.39102957913E+02  0.57738990979E+02  0.47000000000E+01 0.  1.
         11    1    4    4    0    0 -0.44660256171E+02 -0.61857671985E+02  0.67036286416E+01  0.76588828830E+02  0.00000000000E+00 0. -1.
        -12    1    4    4    0    0 -0.28576083864E+02 -0.35143430403E+02  0.81785370815E+02  0.93490642039E+02  0.00000000000E+00 0.  1.
</event>
<event>
12    1  0.1046899E+000  0.1753526E+03  0.7818608E-02  0.1172913E+00
         21   -1    0    0  501  502  0.00000000000E+00  0.00000000000E+00  0.48650202940E+02  0.48650202940E+02  0.00000000000E+00 0. -1.
         21   -1    0    0  502  503 -0.00000000000E+00 -0.00000000000E+00 -0.65328732322E+03  0.65328732322E+03  0.00000000000E+00 0. -1.
         -6    2    1    2    0  503  0.25542712761E+02 -0.37127169683E+01 -0.37435321779E+03  0.41249113790E+03  0.17129621343E+03 0.  0.
        -24    2    3    3    0    0 -0.35356393209E+02 -0.34761317198E+02 -0.14180270531E+03  0.17005651262E+03  0.79704369612E+02 0.  0.
          6    2    1    2  501    0 -0.25542712761E+02  0.37127169683E+01 -0.23028390249E+03  0.28944638826E+03  0.17344255962E+03 0.  0.
         24    2    5    5    0    0 -0.18858712081E+02 -0.13748623273E+02 -0.29479387411E+02  0.87718557891E+02  0.79251722082E+02 0.  0.
          5    1    5    5  501    0 -0.66840006802E+01  0.17461340242E+02 -0.20080451508E+03  0.20172783037E+03  0.47000000000E+01 0. -1.
        -11    1    6    6    0    0 -0.50081092102E+02 -0.10590638817E+02 -0.19697218136E+02  0.54847587176E+02  0.00000000000E+00 0.  1.
         12    1    6    6    0    0  0.31222380021E+02 -0.31579844562E+01 -0.97821692756E+01  0.32870970715E+02  0.00000000000E+00 0. -1.
         -5    1    3    3    0  503  0.60899105970E+02  0.31048600230E+02 -0.23255051247E+03  0.24243462528E+03  0.47000000000E+01 0.  1.
         13    1    4    4    0    0 -0.39575247905E+02  0.48773930585E+01 -0.11577436148E+03  0.12244873207E+03  0.00000000000E+00 0. -1.
        -14    1    4    4    0    0  0.42188546966E+01 -0.39638710257E+02 -0.26028343832E+02  0.47607780545E+02  0.00000000000E+00 0.  1.
</event>
<event>
12    1  0.1046899E+000  0.4305199E+03  0.7818608E-02  0.1033705E+00
         21   -1    0    0  503  502  0.00000000000E+00  0.00000000000E+00  0.25159722537E+04  0.25159722537E+04  0.00000000000E+00 0. -1.
         21   -1    0    0  501  503 -0.00000000000E+00 -0.00000000000E+00 -0.85243494776E+02  0.85243494776E+02  0.00000000000E+00 0. -1.
          6    2    1    2  501    0 -0.38716669393E+03 -0.76841066292E+02  0.73582012385E+03  0.85251315163E+03  0.17188606893E+03 0.  0.
         24    2    3    3    0    0 -0.70390507298E+02 -0.18206734340E+02  0.18339443766E+03  0.21299664203E+03  0.80297827223E+02 0.  0.
         -6    2    1    2    0  502  0.38716669393E+03  0.76841066292E+02  0.16949086351E+04  0.17487025968E+04  0.17158931372E+03 0.  0.
        -24    2    5    5    0    0  0.94320631188E+02  0.28046743285E+02  0.37658556942E+03  0.39735604696E+03  0.79950832933E+02 0.  0.
          5    1    3    3  501    0 -0.31677618664E+03 -0.58634331951E+02  0.55242568619E+03  0.63951650961E+03  0.47000000000E+01 0. -1.
        -13    1    4    4    0    0 -0.82400606255E+02 -0.28557795787E+02  0.12450092546E+03  0.15200621057E+03  0.00000000000E+00 0.  1.
         14    1    4    4    0    0  0.12010098957E+02  0.10351061446E+02  0.58893512196E+02  0.60990431453E+02  0.00000000000E+00 0. -1.
         -5    1    5    5    0  502  0.29284606275E+03  0.48794323006E+02  0.13183230657E+04  0.13513465499E+04  0.47000000000E+01 0.  1.
         13    1    6    6    0    0  0.10699410217E+03  0.27275751923E+02  0.29895264656E+03  0.31869168397E+03  0.00000000000E+00 0. -1.
        -14    1    6    6    0    0 -0.12673470984E+02  0.77099136264E+00  0.77632922856E+02  0.78664362996E+02  0.00000000000E+00 0.  1.
</event>
<event>
12    1  0.1046899E+000  0.2051723E+03  0.7818608E-02  0.1145472E+00
         21   -1    0    0  503  502  0.00000000000E+00  0.00000000000E+00  0.22241061746E+02  0.22241061746E+02  0.00000000000E+00 0. -1.
         21   -1    0    0  501  503 -0.00000000000E+00 -0.00000000000E+00 -0.21295551794E+04  0.21295551794E+04  0.00000000000E+00 0. -1.
          6    2    1    2  501    0 -0.65270577512E+02 -0.90942235535E+02 -0.14130332605E+04  0.14278338129E+04  0.17180123288E+03 0.  0.
         24    2    3    3    0    0 -0.40731329410E+02  0.11149232536E+02 -0.86952662175E+03  0.87425780289E+03  0.80416499494E+02 0.  0.
         -6    2    1    2    0  502  0.65270577512E+02  0.90942235535E+02 -0.69428085721E+03  0.72396242826E+03  0.17194461418E+03 0.  0.
        -24    2    5    5    0    0 -0.19699992253E+02  0.62875055541E+02 -0.49274846006E+03  0.50340594701E+03  0.79215783074E+02 0.  0.
          5    1    3    3  501    0 -0.24539248102E+02 -0.10209146807E+03 -0.54350663872E+03  0.55357601003E+03  0.47000000000E+01 0. -1.
        -13    1    4    4    0    0 -0.28341941092E+02 -0.33844708668E+02 -0.43124624758E+03  0.43349977622E+03  0.00000000000E+00 0.  1.
         14    1    4    4    0    0 -0.12389388319E+02  0.44993941204E+02 -0.43828037418E+03  0.44075802667E+03  0.00000000000E+00 0. -1.
         -5    1    5    5    0  502  0.84970569765E+02  0.28067179994E+02 -0.20153239715E+03  0.22055648124E+03  0.47000000000E+01 0.  1.
         11    1    6    6    0    0  0.20390391290E+02  0.57236821708E+02 -0.33982709543E+03  0.34521627512E+03  0.00000000000E+00 0. -1.
        -12    1    6    6    0    0 -0.40090383543E+02  0.56382338333E+01 -0.15292136463E+03  0.15818967189E+03  0.00000000000E+00 0.  1.
</event>
<event>
12    1  0.1046899E+000  0.1830839E+03  0.7818608E-02  0.1166076E+00
         21   -1    0    0  501  502  0.00000000000E+00  0.00000000000E+00  0.32223578980E+03  0.32223578980E+03  0.00000000000E+00 0.  1.
         21   -1    0    0  502  503 -0.00000000000E+00 -0.00000000000E+00 -0.11670804642E+03  0.11670804642E+03  0.00000000000E+00 0.  1.
         -6    2    1    2    0  503  0.33412976034E+02  0.29083547526E+02  0.21371783853E+02  0.17926491099E+03  0.17238583313E+03 0.  0.
        -24    2    3    3    0    0 -0.27191149290E+02  0.37062301532E+02 -0.31898755332E+02  0.98046927346E+02  0.80515194688E+02 0.  0.
          6    2    1    2  501    0 -0.33412976034E+02 -0.29083547526E+02  0.18415595953E+03  0.25967892523E+03  0.17764415857E+03 0.  0.
         24    2    5    5    0    0 -0.85070833593E+02 -0.25580563049E+02  0.55410273414E+02  0.12083243863E+03  0.60322200648E+02 0.  0.
          5    1    5    5  501    0  0.51657857559E+02 -0.35029844778E+01  0.12874568612E+03  0.13884648661E+03  0.47000000000E+01 0. -1.
        -13    1    6    6    0    0  0.84473475505E+01 -0.18713293353E+00  0.11933080502E+02  0.14621597370E+02  0.00000000000E+00 0.  1.
         14    1    6    6    0    0 -0.93518181143E+02 -0.25393430115E+02  0.43477192912E+02  0.10621084126E+03  0.00000000000E+00 0. -1.
         -5    1    3    3    0  503  0.60604125324E+02 -0.79787540053E+01  0.53270539185E+02  0.81217983642E+02  0.47000000000E+01 0.  1.
         13    1    4    4    0    0 -0.36255914107E+02  0.21809937740E+02  0.17327334968E+02  0.45720905821E+02  0.00000000000E+00 0. -1.
        -14    1    4    4    0    0  0.90647648169E+01  0.15252363792E+02 -0.49226090300E+02  0.52326021525E+02  0.00000000000E+00 0.  1.
</event>
<event>
12    1  0.1046899E+000  0.1750386E+03  0.7818608E-02  0.1173166E+00
         21   -1    0    0  503  502  0.00000000000E+00  0.00000000000E+00  0.12257432231E+03  0.12257432231E+03  0.00000000000E+00 0. -1.
         21   -1    0    0  501  503 -0.00000000000E+00 -0.00000000000E+00 -0.28395429873E+03  0.28395429873E+03  0.00000000000E+00 0. -1.
          6    2    1    2  501    0 -0.51844200587E+01 -0.27732252626E+02 -0.15410680894E+03  0.23321111389E+03  0.17274998997E+03 0.  0.
         24    2    3    3    0    0 -0.10912709110E+02 -0.50467143684E+02 -0.17671974295E+03  0.20030027447E+03  0.78894312793E+02 0.  0.
         -6    2    1    2    0  502  0.51844200587E+01  0.27732252626E+02 -0.72731674879E+01  0.17331750715E+03  0.17085111434E+03 0.  0.
        -24    2    5    5    0    0  0.73397733468E+01  0.19514438919E+02 -0.71344771864E+02  0.10851443240E+03  0.79060862425E+02 0.  0.
          5    1    3    3  501    0  0.57282890512E+01  0.22734891058E+02  0.22612934015E+02  0.32910839425E+02  0.47000000000E+01 0. -1.
        -11    1    4    4    0    0 -0.35101673795E+02 -0.51082725858E+02 -0.83488859273E+02  0.10398058476E+03  0.00000000000E+00 0.  1.
         12    1    4    4    0    0  0.24188964685E+02  0.61558217362E+00 -0.93230883678E+02  0.96319689708E+02  0.00000000000E+00 0. -1.
         -5    1    5    5    0  502 -0.21553532881E+01  0.82178137072E+01  0.64071604376E+02  0.64803074751E+02  0.47000000000E+01 0.  1.
         11    1    6    6    0    0 -0.11191800711E+02 -0.27957204572E+02 -0.19857279945E+02  0.36071779239E+02  0.00000000000E+00 0. -1.
        -12    1    6    6    0    0  0.18531574057E+02  0.47471643491E+02 -0.51487491919E+02  0.72442653160E+02  0.00000000000E+00 0.  1.
</event>
<event>
12    1  0.1046899E+000  0.2099075E+03  0.7818608E-02  0.1141871E+00
         21   -1    0    0  503  502  0.00000000000E+00  0.00000000000E+00  0.40875147441E+03  0.40875147441E+03  0.00000000000E+00 0.  1.
         21   -1    0    0  501  503 -0.00000000000E+00 -0.00000000000E+00 -0.55389229360E+03  0.55389229360E+03  0.00000000000E+00 0.  1.
          6    2    1    2  501    0 -0.10766505260E+03 -0.50827478685E+02  0.35963426483E+03  0.41641078546E+03  0.17287550916E+03 0.  0.
         24    2    3    3    0    0 -0.95672210206E+02  0.27393155809E+02  0.18293287791E+03  0.22274156729E+03  0.79030444672E+02 0.  0.
         -6    2    1    2    0  502  0.10766505260E+03  0.50827478685E+02 -0.50477508402E+03  0.54623298255E+03  0.17145666985E+03 0.  0.
        -24    2    5    5    0    0  0.13091824753E+03  0.79029509617E+02 -0.42754952832E+03  0.46066463515E+03  0.77640556304E+02 0.  0.
          5    1    3    3  501    0 -0.11992842392E+02 -0.78220634494E+02  0.17670138692E+03  0.19366921818E+03  0.47000000000E+01 0. -1.
        -13    1    4    4    0    0 -0.28253763396E+02  0.27210466794E+02  0.15379810021E+02  0.42133397744E+02  0.00000000000E+00 0.  1.
         14    1    4    4    0    0 -0.67418446810E+02  0.18268901493E+00  0.16755306789E+03  0.18060816954E+03  0.00000000000E+00 0. -1.
         -5    1    5    5    0  502 -0.23253194935E+02 -0.28202030933E+02 -0.77225555702E+02  0.85568347401E+02  0.47000000000E+01 0.  1.
         11    1    6    6    0    0  0.86762094097E+02  0.88351474604E+02 -0.27529463508E+03  0.30186218734E+03  0.00000000000E+00 0. -1.
        -12    1    6    6    0    0  0.44156153437E+02 -0.93219649865E+01 -0.15225489323E+03  0.15880244781E+03  0.00000000000E+00 0.  1.
</event>
<event>
12    1  0.1046899E+000  0.3432680E+03  0.7818608E-02  0.1065442E+00
         21   -1    0    0  503  502  0.00000000000E+00  0.00000000000E+00  0.25570187228E+03  0.25570187228E+03  0.00000000000E+00 0. -1.
         21   -1    0    0  501  503 -0.00000000000E+00 -0.00000000000E+00 -0.79889937461E+03  0.79889937461E+03  0.00000000000E+00 0. -1.
          6    2    1    2  501    0  0.46777293906E+02  0.29349769078E+03 -0.61487434780E+03  0.70420410088E+03  0.17176711672E+03 0.  0.
         24    2    3    3    0    0  0.30424655283E+02  0.23679209355E+03 -0.58734564019E+03  0.63891357101E+03  0.78990473829E+02 0.  0.
         -6    2    1    2    0  502 -0.46777293906E+02 -0.29349769078E+03  0.71676845474E+02  0.35039714601E+03  0.17120624999E+03 0.  0.
        -24    2    5    5    0    0 -0.13261534992E+02 -0.29010323439E+03  0.86408839519E+02  0.31333031342E+03  0.79835097826E+02 0.  0.
          5    1    3    3  501    0  0.16352638623E+02  0.56705597229E+02 -0.27528707613E+02  0.65290529864E+02  0.47000000000E+01 0. -1.
        -11    1    4    4    0    0 -0.24956021562E+02  0.11463534431E+03 -0.27831250223E+03  0.30202965761E+03  0.00000000000E+00 0.  1.
         12    1    4    4    0    0  0.55380676845E+02  0.12215674924E+03 -0.30903313796E+03  0.33688391340E+03  0.00000000000E+00 0. -1.
         -5    1    5    5    0  502 -0.33515758915E+02 -0.33944563891E+01 -0.14731994044E+02  0.37066832591E+02  0.47000000000E+01 0.  1.
         11    1    6    6    0    0  0.12091478837E+02 -0.45262743413E+02  0.42581041847E+02  0.63309279940E+02  0.00000000000E+00 0. -1.
        -12    1    6    6    0    0 -0.25353013829E+02 -0.24484049098E+03  0.43827797672E+02  0.25002103348E+03  0.00000000000E+00 0.  1.
</event>
<event>
12    1  0.1046899E+000  0.2677275E+03  0.7818608E-02  0.1102667E+00
         21   -1    0    0  501  502  0.00000000000E+00  0.00000000000E+00  0.32107960358E+03  0.32107960358E+03  0.00000000000E+00 0. -1.
         21   -1    0    0  502  503 -0.00000000000E+00 -0.00000000000E+00 -0.25522056138E+03  0.25522056138E+03  0.00000000000E+00 0. -1.
         -6    2    1    2    0  503  0.20228737442E+03 -0.30279011665E+02  0.13563182789E+03  0.29963022879E+03  0.17188740755E+03 0.  0.
        -24    2    3    3    0    0  0.49755346382E+02 -0.57817423983E+02  0.38342215045E+02  0.11656810137E+03  0.79369690642E+02 0.  0.
          6    2    1    2  501    0 -0.20228737442E+03  0.30279011665E+02 -0.69772785697E+02  0.27666993617E+03  0.17274551097E+03 0.  0.
         24    2    5    5    0    0 -0.72674570784E+02 -0.44266143586E+02 -0.16315294044E+02  0.11781071405E+03  0.79825377040E+02 0.  0.
          5    1    5    5  501    0 -0.12961280363E+03  0.74545155250E+02 -0.53457491652E+02  0.15885922211E+03  0.47000000000E+01 0. -1.
        -11    1    6    6    0    0 -0.62568759742E+02  0.31626226508E+01  0.86924505769E+01  0.63248798998E+02  0.00000000000E+00 0.  1.
         12    1    6    6    0    0 -0.10105811042E+02 -0.47428766236E+02 -0.25007744621E+02  0.54561915056E+02  0.00000000000E+00 0. -1.
         -5    1    3    3    0  503  0.15253202803E+03  0.27538412318E+02  0.97289612845E+02  0.18306212742E+03  0.47000000000E+01 0.  1.
         11    1    4    4    0    0  0.40550152788E+02 -0.17289249977E+01  0.43501894800E+02  0.59495537009E+02  0.00000000000E+00 0. -1.
        -12    1    4    4    0    0  0.92051935934E+01 -0.56088498985E+02 -0.51596797546E+01  0.57072564360E+02  0.00000000000E+00 0.  1.
</event>
<event>
12    1  0.1046899E+000  0.2409861E+03  0.7818608E-02  0.1119465E+00
         21   -1    0    0  503  502  0.00000000000E+00  0.00000000000E+00  0.54227270924E+02  0.54227270924E+02  0.00000000000E+00 0. -1.
         21   -1    0    0  501  503 -0.00000000000E+00 -0.00000000000E+00 -0.22607017373E+04  0.22607017373E+04  0.00000000000E+00 0. -1.
          6    2    1    2  501    0  0.11636257235E+03 -0.12336180353E+03 -0.26260718675E+03  0.35642223913E+03  0.17121885178E+03 0.  0.
         24    2    3    3    0    0 -0.73466479510E+01 -0.57425941248E+02 -0.12368242527E+03  0.15900469059E+03  0.81445916687E+02 0.  0.
         -6    2    1    2    0  502 -0.11636257235E+03  0.12336180353E+03 -0.19438672796E+04  0.19585067690E+04  0.16843509416E+03 0.  0.
        -24    2    5    5    0    0 -0.35218421365E+02  0.75263170095E+02 -0.15186347915E+04  0.15229122206E+04  0.78135264110E+02 0.  0.
          5    1    3    3  501    0  0.12370922030E+03 -0.65935862279E+02 -0.13892476148E+03  0.19741754854E+03  0.47000000000E+01 0. -1.
        -13    1    4    4    0    0 -0.92736662410E+01 -0.77522293371E+02 -0.85298916877E+02  0.11563568686E+03  0.00000000000E+00 0.  1.
         14    1    4    4    0    0  0.19270182900E+01  0.20096352123E+02 -0.38383508390E+02  0.43369003730E+02  0.00000000000E+00 0. -1.
         -5    1    5    5    0  502 -0.81144150982E+02  0.48098633433E+02 -0.42523248806E+03  0.43559454849E+03  0.47000000000E+01 0.  1.
         13    1    6    6    0    0 -0.39820070632E+01 -0.86156633152E+01 -0.27468755725E+02  0.29062322270E+02  0.00000000000E+00 0. -1.
        -14    1    6    6    0    0 -0.31236414301E+02  0.83878833410E+02 -0.14911660358E+04  0.14938498983E+04  0.00000000000E+00 0.  1.
</event>
<event>
12    1  0.1046899E+000  0.1747984E+03  0.7818608E-02  0.1173256E+00
         21   -1    0    0  501  502  0.00000000000E+00  0.00000000000E+00  0.46890560243E+02  0.46890560243E+02  0.00000000000E+00 0.  1.
         21   -1    0    0  502  503 -0.00000000000E+00 -0.00000000000E+00 -0.16704692361E+04  0.16704692361E+04  0.00000000000E+00 0. -1.
         -6    2    1    2    0  503  0.22790125497E+02  0.11115830750E+02 -0.14077497401E+03  0.22443725653E+03  0.17294952240E+03 0.  0.
        -24    2    3    3    0    0 -0.24581733820E+01  0.54358316973E+02 -0.14534815338E+03  0.17393583892E+03  0.78528473383E+02 0.  0.
          6    2    1    2  501    0 -0.22790125497E+02 -0.11115830750E+02 -0.14828037019E+04  0.14929225398E+04  0.17166228515E+03 0.  0.
         24    2    5    5    0    0 -0.71732373628E+02  0.23464488977E+02 -0.85964447754E+03  0.86687090376E+03  0.82343307829E+02 0.  0.
          5    1    5    5  501    0  0.48942248131E+02 -0.34580319727E+02 -0.62315922435E+03  0.62605163609E+03  0.47000000000E+01 0. -1.
        -13    1    6    6    0    0 -0.47588339312E+02  0.43070250465E+02 -0.75443999294E+03  0.75716537128E+03  0.00000000000E+00 0.  1.
         14    1    6    6    0    0 -0.24144034316E+02 -0.19605761488E+02 -0.10520448460E+03  0.10970553248E+03  0.00000000000E+00 0. -1.
         -5    1    3    3    0  503  0.25248298879E+02 -0.43242486223E+02  0.45731793678E+01  0.50501417609E+02  0.47000000000E+01 0.  1.
         13    1    4    4    0    0 -0.25667636831E+02 -0.26395005446E+01 -0.80498158768E+02  0.84532526927E+02  0.00000000000E+00 0. -1.
        -14    1    4    4    0    0  0.23209463449E+02  0.56997817517E+02 -0.64849994609E+02  0.89403311997E+02  0.00000000000E+00 0.  1.
</event>
<event>
12    1  0.1046899E+000  0.7434762E+03  0.7818608E-02  0.9646547E-01
         21   -1    0    0  503  502  0.00000000000E+00  0.00000000000E+00  0.91742266326E+03  0.91742266326E+03  0.00000000000E+00 0.  1.
         21   -1    0    0  501  503 -0.00000000000E+00 -0.00000000000E+00 -0.62118064425E+03  0.62118064425E+03  0.00000000000E+00 0.  1.
          6    2    1    2  501    0  0.81330619663E+02  0.71868949383E+03  0.85294510096E+01  0.74352516537E+03  0.17212687694E+03 0.  0.
         24    2    3    3    0    0  0.91666590069E+02  0.29674865523E+03  0.18421591239E+02  0.32131568182E+03  0.80261349614E+02 0.  0.
         -6    2    1    2    0  502 -0.81330619663E+02 -0.71868949383E+03  0.28771256800E+03  0.79507814215E+03  0.16199219763E+03 0.  0.
        -24    2    5    5    0    0 -0.79501680708E+02 -0.28395718643E+03  0.14280750939E+03  0.33680410827E+03  0.78043716249E+02 0.  0.
          5    1    3    3  501    0 -0.10335970407E+02  0.42194083860E+03 -0.98921402295E+01  0.42220948355E+03  0.47000000000E+01 0. -1.
        -13    1    4    4    0    0  0.11409409543E+02  0.72899909984E+01  0.15956292104E+02  0.20926582439E+02  0.00000000000E+00 0.  1.
         14    1    4    4    0    0  0.80257180527E+02  0.28945866424E+03  0.24652991346E+01  0.30038909938E+03  0.00000000000E+00 0. -1.
         -5    1    5    5    0  502 -0.18289389550E+01 -0.43473230740E+03  0.14490505861E+03  0.45827403388E+03  0.47000000000E+01 0.  1.
         13    1    6    6    0    0 -0.66578363424E+02 -0.17853232557E+03  0.53172414867E+02  0.19782258580E+03  0.00000000000E+00 0. -1.
        -14    1    6    6    0    0 -0.12923317284E+02 -0.10542486087E+03  0.89635094525E+02  0.13898152247E+03  0.00000000000E+00 0.  1.
</event>
<event>
12    1  0.1046899E+000  0.2495812E+03  0.7818608E-02  0.1114319E+00
         21   -1    0    0  503  502  0.00000000000E+00  0.00000000000E+00  0.21672730185E+04  0.21672730185E+04  0.00000000000E+00 0. -1.
         21   -1    0    0  501  503 -0.00000000000E+00 -0.00000000000E+00 -0.29821785172E+02  0.29821785172E+02  0.00000000000E+00 0. -1.
          6    2    1    2  501    0  0.56782134502E+02  0.17162459614E+03  0.13149712553E+04  0.13375809252E+04  0.16520931082E+03 0.  0.
         24    2    3    3    0    0  0.58070847236E+02  0.16031602223E+03  0.13112281059E+04  0.13247105798E+04  0.80408483915E+02 0.  0.
         -6    2    1    2    0  502 -0.56782134502E+02 -0.17162459614E+03  0.82247997796E+03  0.85951387841E+03  0.17208015643E+03 0.  0.
        -24    2    5    5    0    0 -0.38371952591E+02 -0.50726321353E+02  0.19721318597E+03  0.22238282532E+03  0.80718732980E+02 0.  0.
          5    1    3    3  501    0 -0.12887127348E+01  0.11308573914E+02  0.37431494927E+01  0.12870345473E+02  0.47000000000E+01 0. -1.
        -13    1    4    4    0    0 -0.13892173227E+02  0.68648774995E+02  0.40377023895E+03  0.40980001543E+03  0.00000000000E+00 0.  1.
         14    1    4    4    0    0  0.71963020463E+02  0.91667247232E+02  0.90745786690E+03  0.91491056434E+03  0.00000000000E+00 0. -1.
         -5    1    5    5    0  502 -0.18410181910E+02 -0.12089827479E+03  0.62526679199E+03  0.63713105309E+03  0.47000000000E+01 0.  1.
         11    1    6    6    0    0 -0.13039387547E+02  0.27936562375E+01  0.13800126536E+03  0.13864407446E+03  0.00000000000E+00 0. -1.
        -12    1    6    6    0    0 -0.25332565044E+02 -0.53519977591E+02  0.59211920611E+02  0.83738750859E+02  0.00000000000E+00 0.  1.
</event>
<event>
12    1  0.1046899E+000  0.5191971E+03  0.7818608E-02  0.1008932E+00
         21   -1    0    0  501  502  0.00000000000E+00  0.00000000000E+00  0.70796278680E+03  0.70796278680E+03  0.00000000000E+00 0. -1.
         21   -1    0    0  502  503 -0.00000000000E+00 -0.00000000000E+00 -0.62693293314E+03  0.62693293314E+03  0.00000000000E+00 0.  1.
         -6    2    1    2    0  503  0.26251485046E+03 -0.41318003721E+03  0.45922445002E+03  0.69314696290E+03  0.17301394978E+03 0.  0.
        -24    2    3    3    0    0  0.51462961830E+02 -0.11023483210E+03  0.17781761127E+03  0.22889423443E+03  0.77287211299E+02 0.  0.
          6    2    1    2  501    0 -0.26251485046E+03  0.41318003721E+03 -0.37819459636E+03  0.64174875704E+03  0.17081722568E+03 0.  0.
         24    2    5    5    0    0 -0.25548495683E+03  0.30367805378E+03 -0.26424662044E+03  0.48348841774E+03  0.80261137330E+02 0.  0.
          5    1    5    5  501    0 -0.70298936379E+01  0.10950198343E+03 -0.11394797592E+03  0.15826033930E+03  0.47000000000E+01 0. -1.
        -13    1    6    6    0    0 -0.22285289053E+03  0.25326961405E+03 -0.25465214976E+03  0.42267792182E+03  0.00000000000E+00 0.  1.
         14    1    6    6    0    0 -0.32632066297E+02  0.50408439724E+02 -0.95944706823E+01  0.60810495919E+02  0.00000000000E+00 0. -1.
         -5    1    3    3    0  503  0.21105188863E+03 -0.30294520511E+03  0.28140683874E+03  0.46425272846E+03  0.47000000000E+01 0.  1.
         13    1    4    4    0    0  0.39583088677E+02 -0.71720840816E+02  0.16874935787E+03  0.18758210388E+03  0.00000000000E+00 0. -1.
        -14    1    4    4    0    0  0.11879873153E+02 -0.38513991287E+02  0.90682534042E+01  0.41312130552E+02  0.00000000000E+00 0.  1.
</event>
<event>
12    1  0.1046899E+000  0.1898608E+03  0.7818608E-02  0.1159168E+00
         21   -1    0    0  503  502  0.00000000000E+00  0.00000000000E+00  0.33953058222E+03  0.33953058222E+03  0.00000000000E+00 0. -1.
         21   -1    0    0  501  503 -0.00000000000E+00 -0.00000000000E+00 -0.11928500102E+03  0.11928500102E+03  0.00000000000E+00 0. -1.
          6    2    1    2  501    0  0.12556571538E+02  0.73643724074E+02  0.18956565647E+03  0.26649196998E+03  0.17176078238E+03 0.  0.
         24    2    3    3    0    0  0.69859577537E+02  0.67642432869E+02  0.14614310660E+03  0.19419219245E+03  0.83047821795E+02 0.  0.
         -6    2    1    2    0  502 -0.12556571538E+02 -0.73643724074E+02  0.30679924728E+02  0.19232361326E+03  0.17454526305E+03 0.  0.
        -24    2    5    5    0    0  0.47780139858E+02 -0.86518740944E+02  0.94938763398E+01  0.12692312819E+03  0.79062712335E+02 0.  0.
          5    1    3    3  501    0 -0.57303005999E+02  0.60012912048E+01  0.43422549874E+02  0.72299777526E+02  0.47000000000E+01 0. -1.
        -11    1    4    4    0    0 -0.15248085450E+02  0.14244406868E+02  0.53898592915E+02  0.57796760767E+02  0.00000000000E+00 0.  1.
         12    1    4    4    0    0  0.85107662987E+02  0.53398026001E+02  0.92244513684E+02  0.13639543169E+03  0.00000000000E+00 0. -1.
         -5    1    5    5    0  502 -0.60336711395E+02  0.12875016870E+02  0.21186048388E+02  0.65400485073E+02  0.47000000000E+01 0.  1.
         11    1    6    6    0    0  0.62703594273E+02 -0.34415484915E+02 -0.18459602897E+01  0.71551197797E+02  0.00000000000E+00 0. -1.
        -12    1    6    6    0    0 -0.14923454416E+02 -0.52103256029E+02  0.11339836629E+02  0.55371930392E+02  0.00000000000E+00 0.  1.
</event>
<event>
12    1  0.1046899E+000  0.2128319E+03  0.7818608E-02  0.1139618E+00
         21   -1    0    0  503  502  0.00000000000E+00  0.00000000000E+00  0.34271435363E+03  0.34271435363E+03  0.00000000000E+00 0. -1.
         21   -1    0    0  501  503 -0.00000000000E+00 -0.00000000000E+00 -0.29113696424E+03  0.29113696424E+03  0.00000000000E+00 0. -1.
          6    2    1    2  501    0  0.12431126711E+03 -0.15369137484E+02 -0.20899927249E+03  0.29829198736E+03  0.17206949846E+03 0.  0.
         24    2    3    3    0    0  0.15324015121E+03 -0.16298897574E+02 -0.15586716446E+03  0.23760545101E+03  0.91725565631E+02 0.  0.
         -6    2    1    2    0  502 -0.12431126711E+03  0.15369137484E+02  0.26057666189E+03  0.33555933051E+03  0.17032429672E+03 0.  0.
        -24    2    5    5    0    0 -0.13449596276E+03 -0.11448531934E+02  0.26346753143E+03  0.30634696078E+03  0.78823139892E+02 0.  0.
          5    1    3    3  501    0 -0.28928884101E+02  0.92976009006E+00 -0.53132108037E+02  0.60686536345E+02  0.47000000000E+01 0. -1.
        -11    1    4    4    0    0  0.31790928760E+02  0.21048961958E+02 -0.21729370809E+01  0.38189574579E+02  0.00000000000E+00 0.  1.
         12    1    4    4    0    0  0.12144922245E+03 -0.37347859533E+02 -0.15369422738E+03  0.19941587643E+03  0.00000000000E+00 0. -1.
         -5    1    5    5    0  502  0.10184695647E+02  0.26817669418E+02 -0.28908695388E+01  0.29212369728E+02  0.47000000000E+01 0.  1.
         13    1    6    6    0    0 -0.16264515903E+02 -0.28732118724E+02  0.88624787462E+02  0.94574954807E+02  0.00000000000E+00 0. -1.
        -14    1    6    6    0    0 -0.11823144685E+03  0.17283586791E+02  0.17484274396E+03  0.21177200597E+03  0.00000000000E+00 0.  1.
</event>
<event>
12    1  0.1046899E+000  0.9771037E+03  0.7818608E-02  0.9334020E-01
         21   -1    0    0  503  502  0.00000000000E+00  0.00000000000E+00  0.87353074579E+03  0.87353074579E+03  0.00000000000E+00 0.  1.
         21   -1    0    0  501  503 -0.00000000000E+00 -0.00000000000E+00 -0.11159309904E+04  0.11159309904E+04  0.00000000000E+00 0.  1.
          6    2    1    2  501    0  0.47286518043E+03  0.83745446123E+03  0.21534581854E+02  0.97733857438E+03  0.17261372268E+03 0.  0.
         24    2    3    3    0    0  0.15930633638E+03  0.40450806081E+03 -0.85937056727E+01  0.44190273506E+03  0.78733064246E+02 0.  0.
         -6    2    1    2    0  502 -0.47286518043E+03 -0.83745446123E+03 -0.26393482646E+03  0.10121231618E+04  0.17262748487E+03 0.  0.
        -24    2    5    5    0    0 -0.24905607319E+03 -0.35669006709E+03 -0.16456773975E+03  0.47256702285E+03  0.83548300787E+02 0.  0.
          5    1    3    3  501    0  0.31355884405E+03  0.43294640042E+03  0.30128287527E+02  0.53543583932E+03  0.47000000000E+01 0. -1.
        -13    1    4    4    0    0  0.16610617442E+03  0.37278195388E+03  0.82901230657E+00  0.40811558851E+03  0.00000000000E+00 0.  1.
         14    1    4    4    0    0 -0.67998380391E+01  0.31726106931E+02 -0.94227179793E+01  0.33787146557E+02  0.00000000000E+00 0. -1.
         -5    1    5    5    0  502 -0.22380910724E+03 -0.48076439414E+03 -0.99367086716E+02  0.53955613895E+03  0.47000000000E+01 0.  1.
         13    1    6    6    0    0 -0.24418534222E+03 -0.35823034676E+03 -0.16947251899E+03  0.46548512048E+03  0.00000000000E+00 0. -1.
        -14    1    6    6    0    0 -0.48707309748E+01  0.15402796744E+01  0.49047792441E+01  0.70819023671E+01  0.00000000000E+00 0.  1.
</event>
<event>
12    1  0.1046899E+000  0.2327558E+03  0.7818608E-02  0.1124808E+00
         21   -1    0    0  501  502  0.00000000000E+00  0.00000000000E+00  0.93503835599E+03  0.93503835599E+03  0.00000000000E+00 0.  1.
         21   -1    0    0  502  503 -0.00000000000E+00 -0.00000000000E+00 -0.58615545456E+02  0.58615545456E+02  0.00000000000E+00 0.  1.
         -6    2    1    2    0  503  0.13174630652E+03  0.83288512057E+02  0.37931449592E+03  0.44475323151E+03  0.17213914314E+03 0.  0.
        -24    2    3    3    0    0  0.11760796255E+03 -0.36993864173E+01  0.20840192945E+03  0.25239943605E+03  0.80179753079E+02 0.  0.
          6    2    1    2  501    0 -0.13174630652E+03 -0.83288512057E+02  0.49710831462E+03  0.54890066994E+03  0.17286180456E+03 0.  0.
         24    2    5    5    0    0 -0.28610876955E+02  0.13691020068E+02  0.23170934163E+03  0.24806740824E+03  0.82717553881E+02 0.  0.
          5    1    5    5  501    0 -0.10313542957E+03 -0.96979532126E+02  0.26539897298E+03  0.30083326170E+03  0.47000000000E+01 0. -1.
        -13    1    6    6    0    0 -0.22385496316E+02 -0.24156259989E+01  0.83074578563E+01  0.23999157283E+02  0.00000000000E+00 0.  1.
         14    1    6    6    0    0 -0.62253806396E+01  0.16106646067E+02  0.22340188378E+03  0.22406825096E+03  0.00000000000E+00 0. -1.
         -5    1    3    3    0  503  0.14138343970E+02  0.86987898474E+02  0.17091256647E+03  0.19235379546E+03  0.47000000000E+01 0.  1.
         13    1    4    4    0    0 -0.10688373167E+02  0.81949657844E+01  0.17453191162E+02  0.22045694974E+02  0.00000000000E+00 0. -1.
        -14    1    4    4    0    0  0.12829633572E+03 -0.11894352202E+02  0.19094873829E+03  0.23035374108E+03  0.00000000000E+00 0.  1.
</event>
<event>
12    1  0.1046899E+000  0.2164191E+03  0.7818608E-02  0.1136638E+00
         21   -1    0    0  503  502  0.00000000000E+00  0.00000000000E+00  0.12247914286E+04  0.12247914286E+04  0.00000000000E+00 0.  1.
         21   -1    0    0  501  503 -0.00000000000E+00 -0.00000000000E+00 -0.38787295647E+02  0.38787295647E+02  0.00000000000E+00 0.  1.
          6    2    1    2  501    0 -0.78869059599E+02 -0.10741709401E+03  0.67192838846E+03  0.70592136710E+03  0.17052406476E+03 0.  0.
         24    2    3    3    0    0 -0.12321292184E+03 -0.72756550763E+02  0.48340781284E+03  0.50912241179E+03  0.71046301039E+02 0.  0.
         -6    2    1    2    0  502  0.78869059599E+02  0.10741709401E+03  0.51407574454E+03  0.55765735719E+03  0.17014433949E+03 0.  0.
        -24    2    5    5    0    0  0.61649710801E+02  0.13897670459E+03  0.44142152880E+03  0.47645858837E+03  0.95103149724E+02 0.  0.
          5    1    3    3  501    0  0.44343862239E+02 -0.34660543246E+02  0.18852057563E+03  0.19679895531E+03  0.47000000000E+01 0. -1.
        -11    1    4    4    0    0 -0.16159700509E+02  0.93423609445E+01  0.24532378909E+02  0.30826177893E+02  0.00000000000E+00 0.  1.
         12    1    4    4    0    0 -0.10705322133E+03 -0.82098911707E+02  0.45887543393E+03  0.47829623390E+03  0.00000000000E+00 0. -1.
         -5    1    5    5    0  502  0.17219348799E+02 -0.31559610581E+02  0.72654215739E+02  0.81198768819E+02  0.47000000000E+01 0.  1.
         13    1    6    6    0    0  0.52300115737E+02  0.17191096289E+02  0.17310817882E+03  0.18165152758E+03  0.00000000000E+00 0. -1.
        -14    1    6    6    0    0  0.93495950634E+01  0.12178560830E+03  0.26831334998E+03  0.29480706079E+03  0.00000000000E+00 0.  1.
</event>
<event>
12    1  0.1046899E+000  0.3760870E+03  0.7818608E-02  0.1052448E+00
         21   -1    0    0  503  502  0.00000000000E+00  0.00000000000E+00  0.33980007830E+03  0.33980007830E+03  0.00000000000E+00 0. -1.
         21   -1    0    0  501  503 -0.00000000000E+00 -0.00000000000E+00 -0.41649319691E+03  0.41649319691E+03  0.00000000000E+00 0. -1.
          6    2    1    2  501    0 -0.96983905773E+02 -0.31935058178E+03 -0.56234220006E+02  0.37965025491E+03  0.17199231519E+03 0.  0.
         24    2    3    3    0    0 -0.37277670943E+02 -0.26524304106E+03 -0.88289844604E+02  0.29280491244E+03  0.78715465460E+02 0.  0.
         -6    2    1    2    0  502  0.96983905773E+02  0.31935058178E+03 -0.20458898609E+02  0.37664302030E+03  0.17335145268E+03 0.  0.
        -24    2    5    5    0    0  0.13254287207E+03  0.20937567498E+03 -0.21529365373E+01  0.25952718679E+03  0.77096947660E+02 0.  0.
          5    1    3    3  501    0 -0.59706234830E+02 -0.54107540720E+02  0.32055624598E+02  0.86845342470E+02  0.47000000000E+01 0. -1.
        -13    1    4    4    0    0 -0.52560126769E+02 -0.24392151454E+03 -0.65298517749E+02  0.25792279581E+03  0.00000000000E+00 0.  1.
         14    1    4    4    0    0  0.15282455826E+02 -0.21321526528E+02 -0.22991326856E+02  0.34882116624E+02  0.00000000000E+00 0. -1.
         -5    1    5    5    0  502 -0.35558966301E+02  0.10997490681E+03 -0.18305962072E+02  0.11711583351E+03  0.47000000000E+01 0.  1.
         13    1    6    6    0    0  0.58153812650E+02  0.74597499536E+02  0.35526632969E+02  0.10103857933E+03  0.00000000000E+00 0. -1.
        -14    1    6    6    0    0  0.74389059424E+02  0.13477817544E+03 -0.37679569506E+02  0.15848860746E+03  0.00000000000E+00 0.  1.
</event>
<event>
12    1  0.1046899E+000  0.2188331E+03  0.7818608E-02  0.1135463E+00
         21   -1    0    0  501  502  0.00000000000E+00  0.00000000000E+00  0.59008832893E+03  0.59008832893E+03  0.00000000000E+00 0.  1.
         21   -1    0    0  502  503 -0.00000000000E+00 -0.00000000000E+00 -0.19695403692E+03  0.19695403692E+03  0.00000000000E+00 0.  1.
         -6    2    1    2    0  503 -0.53214550968E+02 -0.11966867539E+03  0.50078189364E+03  0.54650750307E+03  0.17531561712E+03 0.  0.
        -24    2    3    3    0    0 -0.76360994638E+02 -0.63951880165E+02  0.18495031793E+03  0.22493046200E+03  0.80412984989E+02 0.  0.
          6    2    1    2  501    0  0.53214550968E+02  0.11966867539E+03 -0.10764760163E+03  0.24053486278E+03  0.17063596858E+03 0.  0.
         24    2    5    5    0    0  0.71791486880E+02  0.12090048308E+03 -0.34784868242E+02  0.16518442938E+03  0.79403805022E+02 0.  0.
          5    1    5    5  501    0 -0.18576935913E+02 -0.12318076893E+01 -0.72862733386E+02  0.75350433406E+02  0.47000000000E+01 0. -1.
        -13    1    6    6    0    0  0.23828828972E+02 -0.66765927608E+01 -0.98104112720E+01  0.26620183140E+02  0.00000000000E+00 0.  1.
         14    1    6    6    0    0  0.47962657908E+02  0.12757707584E+03 -0.24974456970E+02  0.13856424624E+03  0.00000000000E+00 0. -1.
         -5    1    3    3    0  503  0.23146443670E+02 -0.55716795229E+02  0.31583157571E+03  0.32157704107E+03  0.47000000000E+01 0.  1.
         11    1    4    4    0    0 -0.61075150699E+02 -0.77776691538E+02  0.17717022719E+03  0.20290065841E+03  0.00000000000E+00 0. -1.
        -12    1    4    4    0    0 -0.15285843939E+02  0.13824811374E+02  0.77800907399E+01  0.22029803593E+02  0.00000000000E+00 0.  1.
</event>
<event>
12    1  0.1046899E+000  0.1798156E+03  0.7818608E-02  0.1168354E+00
         21   -1    0    0  503  502  0.00000000000E+00  0.00000000000E+00  0.39958003995E+03  0.39958003995E+03  0.00000000000E+00 0. -1.
         21   -1    0    0  501  503 -0.00000000000E+00 -0.00000000000E+00 -0.91516545893E+02  0.91516545893E+02  0.00000000000E+00 0. -1.
          6    2    1    2  501    0 -0.31977187199E+02 -0.41804971962E+02  0.24083537148E+03  0.30055835959E+03  0.17194026631E+03 0.  0.
         24    2    3    3    0    0  0.11569526611E+02  0.16680102938E+02  0.48220510288E+02  0.94550119407E+02  0.78755493062E+02 0.  0.
         -6    2    1    2    0  502  0.31977187199E+02  0.41804971962E+02  0.67228122576E+02  0.19053822625E+03  0.17033789660E+03 0.  0.
        -24    2    5    5    0    0  0.71515228924E+02 -0.38500566334E+01  0.20894436069E+02  0.11427198939E+03  0.86557837296E+02 0.  0.
          5    1    3    3  501    0 -0.43546713811E+02 -0.58485074900E+02  0.19261486119E+03  0.20600824018E+03  0.47000000000E+01 0. -1.
        -13    1    4    4    0    0  0.34156682439E+01  0.82805424641E+01  0.69600803852E+02  0.70174825043E+02  0.00000000000E+00 0.  1.
         14    1    4    4    0    0  0.81538583675E+01  0.83995604744E+01 -0.21380293564E+02  0.24375294364E+02  0.00000000000E+00 0. -1.
         -5    1    5    5    0  502 -0.39538041725E+02  0.45655028595E+02  0.46333686507E+02  0.76266236860E+02  0.47000000000E+01 0.  1.
         13    1    6    6    0    0  0.57465722082E+01 -0.30428661786E+02  0.29557804814E+02  0.42808765173E+02  0.00000000000E+00 0. -1.
        -14    1    6    6    0    0  0.65768656716E+02  0.26578605153E+02 -0.86633687454E+01  0.71463224221E+02  0.00000000000E+00 0.  1.
</event>
<event>
12    1  0.1046899E+000  0.2433080E+03  0.7818608E-02  0.1117710E+00
         21   -1    0    0  503  502  0.00000000000E+00  0.00000000000E+00  0.34742475641E+03  0.34742475641E+03  0.00000000000E+00 0. -1.
         21   -1    0    0  501  503 -0.00000000000E+00 -0.00000000000E+00 -0.23259801674E+03  0.23259801674E+03  0.00000000000E+00 0. -1.
          6    2    1    2  501    0  0.23596105738E+02 -0.16937199066E+03  0.20785912191E+03  0.31953512973E+03  0.17220231458E+03 0.  0.
         24    2    3    3    0    0  0.64849934958E+02 -0.16880141679E+03  0.19188851651E+03  0.27504519585E+03  0.78289364649E+02 0.  0.
         -6    2    1    2    0  502 -0.23596105738E+02  0.16937199066E+03 -0.93032382240E+02  0.26048764341E+03  0.17307553496E+03 0.  0.
        -24    2    5    5    0    0 -0.47568886830E+02  0.33353425427E+02 -0.69399731747E+02  0.12028658604E+03  0.79229350823E+02 0.  0.
          5    1    3    3  501    0 -0.41253829219E+02 -0.57057386376E+00  0.15970605399E+02  0.44489933879E+02  0.47000000000E+01 0. -1.
        -13    1    4    4    0    0  0.33982717791E+02 -0.35773855355E+02  0.14991332485E+02  0.51568729722E+02  0.00000000000E+00 0.  1.
         14    1    4    4    0    0  0.30867217167E+02 -0.13302756144E+03  0.17689718403E+03  0.22347646613E+03  0.00000000000E+00 0. -1.
         -5    1    5    5    0  502  0.23972781092E+02  0.13601856523E+03 -0.23632650493E+02  0.14020105738E+03  0.47000000000E+01 0.  1.
         13    1    6    6    0    0 -0.76460640409E+01  0.11715261943E+02 -0.73381060915E+02  0.74702675714E+02  0.00000000000E+00 0. -1.
        -14    1    6    6    0    0 -0.39922822789E+02  0.21638163485E+02  0.39813291684E+01  0.45583910323E+02  0.00000000000E+00 0.  1.
</event>
<event>
12    1  0.1046899E+000  0.2243921E+03  0.7818608E-02  0.1131762E+00
         21   -1    0    0  501  502  0.00000000000E+00  0.00000000000E+00  0.41407603428E+03  0.41407603428E+03  0.00000000000E+00 0. -1.
         21   -1    0    0  502  503 -0.00000000000E+00 -0.00000000000E+00 -0.12102580001E+03  0.12102580001E+03  0.00000000000E+00 0. -1.
         -6    2    1    2    0  503 -0.46066321070E+01 -0.13549311003E+03  0.10481741923E+03  0.24221381354E+03  0.17117603854E+03 0.  0.
        -24    2    3    3    0    0  0.33912750606E+02 -0.12980702540E+03  0.37378592655E+02  0.16419997032E+03  0.86974321319E+02 0.  0.
          6    2    1    2  501    0  0.46066321070E+01  0.13549311003E+03  0.18823281504E+03  0.29288802075E+03  0.17880770709E+03 0.  0.
         24    2    5    5    0    0 -0.14430736602E+02  0.91782647759E+02  0.29185128416E+02  0.12678178203E+03  0.81176030614E+02 0.  0.
          5    1    5    5  501    0  0.19037368709E+02  0.43710462268E+02  0.15904768662E+03  0.16610623871E+03  0.47000000000E+01 0. -1.
        -11    1    6    6    0    0 -0.40519881154E+02  0.50962557617E+02 -0.81545861891E+01  0.65616616216E+02  0.00000000000E+00 0.  1.
         12    1    6    6    0    0  0.26089144552E+02  0.40820090141E+02  0.37339714605E+02  0.61165165817E+02  0.00000000000E+00 0. -1.
         -5    1    3    3    0  503 -0.38519382713E+02 -0.56860846294E+01  0.67438826579E+02  0.78013843217E+02  0.47000000000E+01 0.  1.
         13    1    4    4    0    0 -0.10641909687E+02  0.45756053369E+01 -0.95875575108E+01  0.15036876837E+02  0.00000000000E+00 0. -1.
        -14    1    4    4    0    0  0.44554660293E+02 -0.13438263073E+03  0.46966150166E+02  0.14916309349E+03  0.00000000000E+00 0.  1.
</event>
<event>
12    1  0.1046899E+000  0.3193277E+03  0.7818608E-02  0.1076107E+00
         21   -1    0    0  501  502  0.00000000000E+00  0.00000000000E+00  0.12371146237E+03  0.12371146237E+03  0.00000000000E+00 0. -1.
         21   -1    0    0  502  503 -0.00000000000E+00 -0.00000000000E+00 -0.82104679772E+03  0.82104679772E+03  0.00000000000E+00 0. -1.
         -6    2    1    2    0  503  0.12016548607E+03  0.24054226315E+03 -0.34298474230E+03  0.46775248037E+03  0.16986325393E+03 0.  0.
        -24    2    3    3    0    0  0.10407354096E+03  0.22542597297E+03 -0.21562650148E+03  0.33840927632E+03  0.79861623730E+02 0.  0.
          6    2    1    2  501    0 -0.12016548607E+03 -0.24054226315E+03 -0.35435059305E+03  0.47700577973E+03  0.17224937357E+03 0.  0.
         24    2    5    5    0    0 -0.90606133230E+02 -0.21684244087E+03 -0.36132388985E+03  0.43819658256E+03  0.78937798636E+02 0.  0.
          5    1    5    5  501    0 -0.29559352844E+02 -0.23699822278E+02  0.69732967946E+01  0.38809197167E+02  0.47000000000E+01 0. -1.
        -13    1    6    6    0    0 -0.78007243083E+02 -0.14888353718E+03 -0.30808434123E+03  0.35095213196E+03  0.00000000000E+00 0.  1.
         14    1    6    6    0    0 -0.12598890148E+02 -0.67958903692E+02 -0.53239548617E+02  0.87244450602E+02  0.00000000000E+00 0. -1.
         -5    1    3    3    0  503  0.16091945116E+02  0.15116290178E+02 -0.12735824083E+03  0.12934320404E+03  0.47000000000E+01 0.  1.
         13    1    4    4    0    0  0.14201999787E+01  0.81823194960E+02 -0.47431250727E+02  0.94587397400E+02  0.00000000000E+00 0. -1.
        -14    1    4    4    0    0  0.10265334098E+03  0.14360277801E+03 -0.16819525075E+03  0.24382187892E+03  0.00000000000E+00 0.  1.
</event>
<event>
12    1  0.1046899E+000  0.1743145E+03  0.7818608E-02  0.1173776E+00
         21   -1    0    0  503  502  0.00000000000E+00  0.00000000000E+00  0.14036973257E+03  0.14036973257E+03  0.00000000000E+00 0.  1.
         21   -1    0    0  501  503 -0.00000000000E+00 -0.00000000000E+00 -0.25600700900E+03  0.25600700900E+03  0.00000000000E+00 0.  1.
          6    2    1    2  501    0 -0.14826963432E+02 -0.55508470585E+01  0.21562609730E+02  0.17564303679E+03  0.17359400763E+03 0.  0.
         24    2    3    3    0    0  0.18506091310E+02  0.49995196274E+02 -0.20106721385E+02  0.98475176741E+02  0.80318647419E+02 0.  0.
         -6    2    1    2    0  502  0.14826963432E+02  0.55508470585E+01 -0.13719988616E+03  0.22073370479E+03  0.17218858533E+03 0.  0.
        -24    2    5    5    0    0  0.69282174208E+02  0.32867803709E+02 -0.10396910038E+03  0.15117825047E+03  0.78517370047E+02 0.  0.
          5    1    3    3  501    0 -0.33333054742E+02 -0.55546043332E+02  0.41669331115E+02  0.77167860044E+02  0.47000000000E+01 0. -1.
        -13    1    4    4    0    0 -0.18663635176E+02  0.34304471177E+02 -0.37863567313E+02  0.54394648178E+02  0.00000000000E+00 0.  1.
         14    1    4    4    0    0  0.37169726485E+02  0.15690725096E+02  0.17756845928E+02  0.44080528563E+02  0.00000000000E+00 0. -1.
         -5    1    5    5    0  502 -0.54455210776E+02 -0.27316956651E+02 -0.33230785781E+02  0.69555454315E+02  0.47000000000E+01 0.  1.
         13    1    6    6    0    0  0.18147542829E+02  0.39395640792E+02 -0.86471018258E+02  0.96739789243E+02  0.00000000000E+00 0. -1.
        -14    1    6    6    0    0  0.51134631378E+02 -0.65278370826E+01 -0.17498082119E+02  0.54438461229E+02  0.00000000000E+00 0.  1.
</event>
<event>
12    1  0.1046899E+000  0.4663411E+03  0.7818608E-02  0.1023301E+00
         21   -1    0    0  503  502  0.00000000000E+00  0.00000000000E+00  0.20726708997E+04  0.20726708997E+04  0.00000000000E+00 0.  1.
         21   -1    0    0  501  503 -0.00000000000E+00 -0.00000000000E+00 -0.15363590774E+03  0.15363590774E+03  0.00000000000E+00 0.  1.
          6    2    1    2  501    0 -0.27615217615E+03  0.32715686291E+03  0.15965106463E+04  0.16632258746E+04  0.18488490698E+03 0.  0.
         24    2    3    3    0    0 -0.91263602695E+02  0.71726492474E+02  0.68543463078E+03  0.69911485672E+03  0.73940617461E+02 0.  0.
         -6    2    1    2    0  502  0.27615217615E+03 -0.32715686291E+03  0.32252434575E+03  0.56308093293E+03  0.17247187043E+03 0.  0.
        -24    2    5    5    0    0  0.21432801388E+03 -0.18310092534E+03  0.26796715883E+03  0.39702998643E+03  0.79774466574E+02 0.  0.
          5    1    3    3  501    0 -0.18488857346E+03  0.25543037044E+03  0.91107601547E+03  0.96411101783E+03  0.47000000000E+01 0. -1.
        -11    1    4    4    0    0 -0.18981165748E+02  0.61050043300E+02  0.35332414239E+03  0.35906175240E+03  0.00000000000E+00 0.  1.
         12    1    4    4    0    0 -0.72282436946E+02  0.10676449175E+02  0.33211048840E+03  0.34005310432E+03  0.00000000000E+00 0. -1.
         -5    1    5    5    0  502  0.61824162273E+02 -0.14405593757E+03  0.54557186913E+02  0.16605094650E+03  0.47000000000E+01 0.  1.
         11    1    6    6    0    0  0.40920640309E+02 -0.81893028395E+02  0.96231398882E+02  0.13282111667E+03  0.00000000000E+00 0. -1.
        -12    1    6    6    0    0  0.17340737357E+03 -0.10120789694E+03  0.17173575995E+03  0.26420886976E+03  0.00000000000E+00 0.  1.
</event>
<event>
12    1  0.1046899E+000  0.1942923E+03  0.7818608E-02  0.1158641E+00
         21   -1    0    0  503  502  0.00000000000E+00  0.00000000000E+00  0.18255814771E+02  0.18255814771E+02  0.00000000000E+00 0. -1.
         21   -1    0    0  501  503 -0.00000000000E+00 -0.00000000000E+00 -0.34043641508E+04  0.34043641508E+04  0.00000000000E+00 0. -1.
          6    2    1    2  501    0 -0.28245455038E+01 -0.40793125194E+02 -0.27908944304E+04  0.27964976896E+04  0.17214978605E+03 0.  0.
         24    2    3    3    0    0 -0.12223968750E+02  0.31043859132E+02 -0.21006756211E+04  0.21024710358E+04  0.80207508575E+02 0.  0.
         -6    2    1    2    0  502  0.28245455038E+01  0.40793125194E+02 -0.59521390563E+03  0.62612227603E+03  0.18994065907E+03 0.  0.
        -24    2    5    5    0    0  0.53433208703E+02 -0.27852835571E+01 -0.50675298481E+03  0.51518202630E+03  0.75835789727E+02 0.  0.
          5    1    3    3  501    0  0.93994232458E+01 -0.71836984326E+02 -0.69021880931E+03  0.69402665381E+03  0.47000000000E+01 0. -1.
        -13    1    4    4    0    0  0.30969747887E+02  0.18263469351E+02 -0.57002358565E+03  0.57115634269E+03  0.00000000000E+00 0.  1.
         14    1    4    4    0    0 -0.43193716637E+02  0.12780389782E+02 -0.15306520355E+04  0.15313146931E+04  0.00000000000E+00 0. -1.
         -5    1    5    5    0  502 -0.50608663199E+02  0.43578408751E+02 -0.88460920813E+02  0.11094024973E+03  0.47000000000E+01 0.  1.
         13    1    6    6    0    0  0.37782710241E+02  0.31585001622E+02 -0.19381637074E+03  0.19997482613E+03  0.00000000000E+00 0. -1.
        -14    1    6    6    0    0  0.15650498461E+02 -0.34370285179E+02 -0.31293661408E+03  0.31520720017E+03  0.00000000000E+00 0.  1.
</event>
<event>
12    1  0.1046899E+000  0.1774639E+03  0.7818608E-02  0.1170970E+00
         21   -1    0    0  501  502  0.00000000000E+00  0.00000000000E+00  0.11438024047E+02  0.11438024047E+02  0.00000000000E+00 0.  1.
         21   -1    0    0  502  503 -0.00000000000E+00 -0.00000000000E+00 -0.32206451484E+04  0.32206451484E+04  0.00000000000E+00 0.  1.
         -6    2    1    2    0  503 -0.34413277526E+02 -0.28237370505E+01 -0.95079340530E+03  0.96670771311E+03  0.17124092930E+03 0.  0.
        -24    2    3    3    0    0 -0.27037457446E+02  0.65560017259E+02 -0.58470957169E+03  0.59418898365E+03  0.78397226269E+02 0.  0.
          6    2    1    2  501    0  0.34413277526E+02  0.28237370505E+01 -0.22584137191E+04  0.22653754594E+04  0.17407239354E+03 0.  0.
         24    2    5    5    0    0  0.30672696053E+02 -0.60714537200E+02 -0.17263669568E+04  0.17295145152E+04  0.79060226328E+02 0.  0.
          5    1    5    5  501    0  0.37405814722E+01  0.63538274251E+02 -0.53204676227E+03  0.53586094417E+03  0.47000000000E+01 0. -1.
        -13    1    6    6    0    0  0.47644426096E+01  0.16692306223E+02 -0.14382490688E+03  0.14486868826E+03  0.00000000000E+00 0.  1.
         14    1    6    6    0    0  0.25908253444E+02 -0.77406843423E+02 -0.15825420499E+04  0.15846458269E+04  0.00000000000E+00 0. -1.
         -5    1    3    3    0  503 -0.73758200794E+01 -0.68383754310E+02 -0.36608383361E+03  0.37251872947E+03  0.47000000000E+01 0.  1.
         11    1    4    4    0    0 -0.18930378469E+02  0.69289928879E+02 -0.57933629972E+03  0.58377221726E+03  0.00000000000E+00 0. -1.
        -12    1    4    4    0    0 -0.81070789769E+01 -0.37299116195E+01 -0.53732719778E+01  0.10416766388E+02  0.00000000000E+00 0.  1.
</event>
<event>
12    1  0.1046899E+000  0.2245074E+03  0.7818608E-02  0.1130758E+00
         21   -1    0    0  503  502  0.00000000000E+00  0.00000000000E+00  0.17853465476E+03  0.17853465476E+03  0.00000000000E+00 0. -1.
         21   -1    0    0  501  503 -0.00000000000E+00 -0.00000000000E+00 -0.29436879735E+03  0.29436879735E+03  0.00000000000E+00 0. -1.
          6    2    1    2  501    0 -0.51559771260E+01  0.14191001814E+03 -0.73904648769E+01  0.22357719097E+03  0.17253145801E+03 0.  0.
         24    2    3    3    0    0  0.57519569483E+01  0.12143926708E+03  0.53094444475E+02  0.15862683351E+03  0.86964772634E+02 0.  0.
         -6    2    1    2    0  502  0.51559771260E+01 -0.14191001814E+03 -0.10844367772E+03  0.24932626114E+03  0.17389225374E+03 0.  0.
        -24    2    5    5    0    0 -0.23880868160E+02 -0.50692214254E+02 -0.11750151770E+03  0.15305601343E+03  0.80495590777E+02 0.  0.
          5    1    3    3  501    0 -0.10907934074E+02  0.20470751063E+02 -0.60484909352E+02  0.64950357460E+02  0.47000000000E+01 0. -1.
        -13    1    4    4    0    0 -0.23613421094E+02  0.60917209498E+02  0.62845906130E+02  0.90653780870E+02  0.00000000000E+00 0.  1.
         14    1    4    4    0    0  0.29365378042E+02  0.60522057579E+02 -0.97514616548E+01  0.67973052642E+02  0.00000000000E+00 0. -1.
         -5    1    5    5    0  502  0.29036845286E+02 -0.91217803886E+02  0.90578399868E+01  0.96270247715E+02  0.47000000000E+01 0.  1.
         13    1    6    6    0    0 -0.32512761388E+02 -0.26532507835E+02 -0.10826069856E+02  0.43338867239E+02  0.00000000000E+00 0. -1.
        -14    1    6    6    0    0  0.86318932281E+01 -0.24159706419E+02 -0.10667544785E+03  0.10971714619E+03  0.00000000000E+00 0.  1.
</event>
<event>
12    1  0.1046899E+000  0.2305396E+03  0.7818608E-02  0.1126727E+00
         21   -1    0    0  501  502  0.00000000000E+00  0.00000000000E+00  0.10541188750E+03  0.10541188750E+03  0.00000000000E+00 0.  1.
         21   -1    0    0  502  503 -0.00000000000E+00 -0.00000000000E+00 -0.54971315068E+03  0.54971315068E+03  0.00000000000E+00 0.  1.
         -6    2    1    2    0  503 -0.12726951207E+02 -0.14970775151E+03 -0.12327146238E+03  0.26142758115E+03  0.17485462704E+03 0.  0.
        -24    2    3    3    0    0  0.47019421244E+02 -0.49315039620E+02 -0.22005476129E+02  0.10674980125E+03  0.79173732894E+02 0.  0.
          6    2    1    2  501    0  0.12726951207E+02  0.14970775151E+03 -0.32102980080E+03  0.39369745703E+03  0.17135684556E+03 0.  0.
         24    2    5    5    0    0  0.38284345178E+02  0.11331992358E+03 -0.11799800680E+03  0.18580023775E+03  0.79316471012E+02 0.  0.
          5    1    5    5  501    0 -0.25557393971E+02  0.36387827929E+02 -0.20303179400E+03  0.20789721928E+03  0.47000000000E+01 0. -1.
        -11    1    6    6    0    0 -0.18895200629E+02  0.16079138622E+02 -0.45146145907E+02  0.51514481420E+02  0.00000000000E+00 0.  1.
         12    1    6    6    0    0  0.57179545807E+02  0.97240784962E+02 -0.72851860892E+02  0.13428575633E+03  0.00000000000E+00 0. -1.
         -5    1    3    3    0  503 -0.59746372452E+02 -0.10039271189E+03 -0.10126598625E+03  0.15467777990E+03  0.47000000000E+01 0.  1.
         13    1    4    4    0    0  0.39061672197E+02 -0.57831133706E+01 -0.42472373730E+02  0.57992768216E+02  0.00000000000E+00 0. -1.
        -14    1    4    4    0    0  0.79577490475E+01 -0.43531926249E+02  0.20466897601E+02  0.48757033034E+02  0.00000000000E+00 0.  1.
</event>
<event>
12    1  0.1046899E+000  0.1752733E+03  0.7818608E-02  0.1172533E+00
         21   -1    0    0  503  502  0.00000000000E+00  0.00000000000E+00  0.16433325501E+02  0.16433325501E+02  0.00000000000E+00 0.  1.
         21   -1    0    0  501  503 -0.00000000000E+00 -0.00000000000E+00 -0.19867865731E+04  0.19867865731E+04  0.00000000000E+00 0.  1.
          6    2    1    2  501    0  0.23960700068E+02 -0.26170546130E+02 -0.73920929074E+03  0.75970460781E+03  0.17164411720E+03 0.  0.
         24    2    3    3    0    0 -0.26646676258E+02 -0.10524179937E+01 -0.15592197024E+03  0.17366858915E+03  0.71679600413E+02 0.  0.
         -6    2    1    2    0  502 -0.23960700068E+02  0.26170546130E+02 -0.12311439568E+04  0.12435152908E+04  0.17133541171E+03 0.  0.
        -24    2    5    5    0    0  0.38612084980E+02  0.53078419329E+02 -0.85316924857E+03  0.85942369082E+03  0.80019384714E+02 0.  0.
          5    1    3    3  501    0  0.50607376326E+02 -0.25118128136E+02 -0.58328732050E+03  0.58603601865E+03  0.47000000000E+01 0. -1.
        -13    1    4    4    0    0 -0.12065713952E+02 -0.13914794647E+02 -0.15288393730E+03  0.15398928939E+03  0.00000000000E+00 0.  1.
         14    1    4    4    0    0 -0.14580962305E+02  0.12862376653E+02 -0.30380329410E+01  0.19679299761E+02  0.00000000000E+00 0. -1.
         -5    1    5    5    0  502 -0.62572785049E+02 -0.26907873199E+02 -0.37797470827E+03  0.38409159996E+03  0.47000000000E+01 0.  1.
         11    1    6    6    0    0  0.41321284599E+02  0.67108121181E+02 -0.51903674890E+03  0.52498580475E+03  0.00000000000E+00 0. -1.
        -12    1    6    6    0    0 -0.27091996185E+01 -0.14029701852E+02 -0.33413249968E+03  0.33443788607E+03  0.00000000000E+00 0.  1.
</event>
<event>
12    1  0.1046899E+000  0.3157443E+03  0.7818608E-02  0.1077755E+00
         21   -1    0    0  501  502  0.00000000000E+00  0.00000000000E+00  0.72380259779E+02  0.72380259779E+02  0.00000000000E+00 0. -1.
         21   -1    0    0  502  503 -0.00000000000E+00 -0.00000000000E+00 -0.13874426872E+04  0.13874426872E+04  0.00000000000E+00 0.  1.
         -6    2    1    2    0  503  0.14736361472E+03 -0.22037213576E+03 -0.58073138716E+03  0.66048787610E+03  0.16945612199E+03 0.  0.
        -24    2    3    3    0    0  0.93188003698E+02 -0.16657632109E+03 -0.26670415246E+03  0.33727868588E+03  0.78702809556E+02 0.  0.
          6    2    1    2  501    0 -0.14736361472E+03  0.22037213576E+03 -0.73433104024E+03  0.79933507086E+03  0.17150675112E+03 0.  0.
         24    2    5    5    0    0 -0.10180814079E+03  0.68016577633E+02 -0.24910047414E+03  0.28869007717E+03  0.79371040550E+02 0.  0.
          5    1    5    5  501    0 -0.45555473931E+02  0.15235555812E+03 -0.48523056610E+03  0.51064499368E+03  0.47000000000E+01 0. -1.
        -11    1    6    6    0    0 -0.53368448417E+02  0.73556698580E+02 -0.19906785705E+03  0.21883050725E+03  0.00000000000E+00 0.  1.
         12    1    6    6    0    0 -0.48439692372E+02 -0.55401209473E+01 -0.50032617090E+02  0.69859569925E+02  0.00000000000E+00 0. -1.
         -5    1    3    3    0  503  0.54175611022E+02 -0.53795814665E+02 -0.31402723470E+03  0.32320919022E+03  0.47000000000E+01 0.  1.
         11    1    4    4    0    0 -0.83014740480E+01 -0.49435142680E+02 -0.49525106197E+02  0.70466190099E+02  0.00000000000E+00 0. -1.
        -12    1    4    4    0    0  0.10148947775E+03 -0.11714117841E+03 -0.21717904626E+03  0.26681249579E+03  0.00000000000E+00 0.  1.
</event>
<event>
12    1  0.1046899E+000  0.1989397E+03  0.7818608E-02  0.1150710E+00
         21   -1    0    0  503  502  0.00000000000E+00  0.00000000000E+00  0.70725228673E+02  0.70725228673E+02  0.00000000000E+00 0.  1.
         21   -1    0    0  501  503 -0.00000000000E+00 -0.00000000000E+00 -0.58289142668E+03  0.58289142668E+03  0.00000000000E+00 0.  1.
          6    2    1    2  501    0 -0.78961010350E+02  0.59502443261E+02 -0.18960720211E+03  0.27482338579E+03  0.17263145824E+03 0.  0.
         24    2    3    3    0    0 -0.81272643238E+02 -0.13878904599E+02 -0.15798281730E+03  0.19474618819E+03  0.78547060557E+02 0.  0.
         -6    2    1    2    0  502  0.78961010350E+02 -0.59502443261E+02 -0.32255899589E+03  0.37879326956E+03  0.17223429775E+03 0.  0.
        -24    2    5    5    0    0  0.52551536309E+02  0.27600060721E+02 -0.21749018618E+03  0.23970390515E+03  0.81440491993E+02 0.  0.
          5    1    3    3  501    0  0.23116328882E+01  0.73381347860E+02 -0.31624384814E+02  0.80077197599E+02  0.47000000000E+01 0. -1.
        -11    1    4    4    0    0 -0.72274300261E+01 -0.34433150916E+02 -0.34307844827E+02  0.49141691500E+02  0.00000000000E+00 0.  1.
         12    1    4    4    0    0 -0.74045213212E+02  0.20554246317E+02 -0.12367497247E+03  0.14560449669E+03  0.00000000000E+00 0. -1.
         -5    1    5    5    0  502  0.26409474040E+02 -0.87102503982E+02 -0.10506880971E+03  0.13908936441E+03  0.47000000000E+01 0.  1.
         11    1    6    6    0    0  0.30438516532E+02 -0.24556531455E+02 -0.53984146129E+02  0.66661942359E+02  0.00000000000E+00 0. -1.
        -12    1    6    6    0    0  0.22113019777E+02  0.52156592176E+02 -0.16350604005E+03  0.17304196279E+03  0.00000000000E+00 0.  1.
</event>
<event>
12    1  0.1046899E+000  0.1833217E+03  0.7818608E-02  0.1165510E+00
         21   -1    0    0  503  502  0.00000000000E+00  0.00000000000E+00  0.10373097790E+03  0.10373097790E+03  0.00000000000E+00 0.  1.
         21   -1    0    0  501  503 -0.00000000000E+00 -0.00000000000E+00 -0.46989104511E+03  0.46989104511E+03  0.00000000000E+00 0.  1.
          6    2    1    2  501    0 -0.20503308408E+01  0.51342665279E+02 -0.20999252140E+02  0.18452054442E+03  0.17597326384E+03 0.  0.
         24    2    3    3    0    0  0.56502293468E+00  0.40516328985E+02 -0.82383185489E+02  0.12195756090E+03  0.80279295244E+02 0.  0.
         -6    2    1    2    0  502  0.20503308408E+01 -0.51342665279E+02 -0.34516081507E+03  0.38910147859E+03  0.17211536610E+03 0.  0.
        -24    2    5    5    0    0  0.16896723340E+02 -0.84985626843E+02 -0.14776983013E+03  0.18825936356E+03  0.78087190006E+02 0.  0.
          5    1    3    3  501    0 -0.26153537755E+01  0.10826336293E+02  0.61383933348E+02  0.62562983514E+02  0.47000000000E+01 0. -1.
        -11    1    4    4    0    0  0.21526244125E+02  0.22605479157E+02  0.38241802957E+01  0.31448548917E+02  0.00000000000E+00 0.  1.
         12    1    4    4    0    0 -0.20961221190E+02  0.17910849828E+02 -0.86207365784E+02  0.90509011987E+02  0.00000000000E+00 0. -1.
         -5    1    5    5    0  502 -0.14846392499E+02  0.33642961564E+02 -0.19739098494E+03  0.20084211502E+03  0.47000000000E+01 0.  1.
         11    1    6    6    0    0  0.93861978549E+01  0.46424893698E+01  0.45099114663E+01  0.11401434960E+02  0.00000000000E+00 0. -1.
        -12    1    6    6    0    0  0.75105254848E+01 -0.89628116213E+02 -0.15227974160E+03  0.17685792860E+03  0.00000000000E+00 0.  1.
</event>
<event>
12    1  0.1046899E+000  0.1763704E+03  0.7818608E-02  0.1172549E+00
         21   -1    0    0  501  502  0.00000000000E+00  0.00000000000E+00  0.34086913824E+03  0.34086913824E+03  0.00000000000E+00 0.  1.
         21   -1    0    0  502  503 -0.00000000000E+00 -0.00000000000E+00 -0.92263487165E+02  0.92263487165E+02  0.00000000000E+00 0.  1.
         -6    2    1    2    0  503  0.16776771550E+02  0.90187616885E+01  0.16440821362E+03  0.23769538204E+03  0.17060549759E+03 0.  0.
        -24    2    3    3    0    0  0.15221221655E+02 -0.38005702532E+02  0.13801172283E+02  0.79840097448E+02  0.67140522716E+02 0.  0.
          6    2    1    2  501    0 -0.16776771550E+02 -0.90187616885E+01  0.84197437450E+02  0.19543724337E+03  0.17533884195E+03 0.  0.
         24    2    5    5    0    0  0.55574522443E+02  0.50256491623E+00  0.81120988824E+02  0.12224626073E+03  0.72627496992E+02 0.  0.
          5    1    5    5  501    0 -0.72351293993E+02 -0.95213266047E+01  0.30764486258E+01  0.73190982634E+02  0.47000000000E+01 0. -1.
        -11    1    6    6    0    0  0.55218967354E+01 -0.97342327627E+01  0.68784769745E+02  0.69689247233E+02  0.00000000000E+00 0.  1.
         12    1    6    6    0    0  0.50052625708E+02  0.10236797679E+02  0.12336219079E+02  0.52557013501E+02  0.00000000000E+00 0. -1.
         -5    1    3    3    0  503  0.15555498952E+01  0.47024464220E+02  0.15060704134E+03  0.15785528459E+03  0.47000000000E+01 0.  1.
         11    1    4    4    0    0  0.62513119155E+01  0.66109653115E+01  0.30142460990E+02  0.31485738320E+02  0.00000000000E+00 0. -1.
        -12    1    4    4    0    0  0.89699097391E+01 -0.44616667843E+02 -0.16341288706E+02  0.48354359129E+02  0.00000000000E+00 0.  1.
</event>
<event>
12    1  0.1046899E+000  0.2441064E+03  0.7818608E-02  0.1117127E+00
         21   -1    0    0  501  502  0.00000000000E+00  0.00000000000E+00  0.11911611190E+03  0.11911611190E+03  0.00000000000E+00 0.  1.
         21   -1    0    0  502  503 -0.00000000000E+00 -0.00000000000E+00 -0.52655511112E+03  0.52655511112E+03  0.00000000000E+00 0.  1.
         -6    2    1    2    0  503 -0.81640758800E+02 -0.15270813745E+03 -0.27646747664E+03  0.36864869383E+03  0.17170499434E+03 0.  0.
        -24    2    3    3    0    0 -0.76302779929E+02 -0.66809521751E+02 -0.82978355705E+02  0.15682991251E+03  0.86166046225E+02 0.  0.
          6    2    1    2  501    0  0.81640758800E+02  0.15270813745E+03 -0.13097152258E+03  0.27702252920E+03  0.17205508774E+03 0.  0.
         24    2    5    5    0    0  0.12117867302E+03  0.93730504058E+02 -0.95883556010E+02  0.19768235464E+03  0.80093563003E+02 0.  0.
          5    1    5    5  501    0 -0.39537914223E+02  0.58977633389E+02 -0.35087966568E+02  0.79340174560E+02  0.47000000000E+01 0. -1.
        -11    1    6    6    0    0  0.99796908779E-01  0.45055951753E+00  0.11104555969E+02  0.11114140838E+02  0.00000000000E+00 0.  1.
         12    1    6    6    0    0  0.12107887611E+03  0.93279944541E+02 -0.10698811198E+03  0.18656821380E+03  0.00000000000E+00 0. -1.
         -5    1    3    3    0  503 -0.53379788709E+01 -0.85898615697E+02 -0.19348912094E+03  0.21181878131E+03  0.47000000000E+01 0.  1.
         11    1    4    4    0    0 -0.86534291697E+02 -0.53001506026E+02 -0.92391405125E+02  0.13723525430E+03  0.00000000000E+00 0. -1.
        -12    1    4    4    0    0  0.10231511768E+02 -0.13808015724E+02  0.94130494198E+01  0.19594658218E+02  0.00000000000E+00 0.  1.
</event>
<event>
12    1  0.1046899E+000  0.2298468E+03  0.7818608E-02  0.1126836E+00
         21   -1    0    0  503  502  0.00000000000E+00  0.00000000000E+00  0.64938692349E+02  0.64938692349E+02  0.00000000000E+00 0.  1.
         21   -1    0    0  501  503 -0.00000000000E+00 -0.00000000000E+00 -0.97730736754E+03  0.97730736754E+03  0.00000000000E+00 0. -1.
          6    2    1    2  501    0 -0.14882919573E+03  0.34106623888E+02 -0.24211525030E+03  0.33384029041E+03  0.17180265941E+03 0.  0.
         24    2    3    3    0    0 -0.88115740404E+02 -0.44777122352E+02 -0.11105485757E+03  0.16919617232E+03  0.80776165705E+02 0.  0.
         -6    2    1    2    0  502  0.14882919573E+03 -0.34106623888E+02 -0.67025342489E+03  0.70840576947E+03  0.17113062073E+03 0.  0.
        -24    2    5    5    0    0  0.54178751389E+02 -0.49801185175E+02 -0.19444872922E+03  0.22300158296E+03  0.80646776494E+02 0.  0.
          5    1    3    3  501    0 -0.60713455329E+02  0.78883746240E+02 -0.13106039273E+03  0.16464411809E+03  0.47000000000E+01 0. -1.
        -11    1    4    4    0    0 -0.10351187569E+02 -0.45862126790E+02 -0.25163139252E+02  0.53326028680E+02  0.00000000000E+00 0.  1.
         12    1    4    4    0    0 -0.77764552835E+02  0.10850044382E+01 -0.85891718316E+02  0.11587014364E+03  0.00000000000E+00 0. -1.
         -5    1    5    5    0  502  0.94650444344E+02  0.15694561287E+02 -0.47580469566E+03  0.48540418651E+03  0.47000000000E+01 0.  1.
         13    1    6    6    0    0  0.46367219056E+02  0.82252472145E+01 -0.11533862044E+03  0.12458158395E+03  0.00000000000E+00 0. -1.
        -14    1    6    6    0    0  0.78115323332E+01 -0.58026432389E+02 -0.79110108788E+02  0.98419999013E+02  0.00000000000E+00 0.  1.
</event>
<event>
12    1  0.1046899E+000  0.3491307E+03  0.7818608E-02  0.1062981E+00
         21   -1    0    0  501  502  0.00000000000E+00  0.00000000000E+00  0.14605144245E+04  0.14605144245E+04  0.00000000000E+00 0. -1.
         21   -1    0    0  502  503 -0.00000000000E+00 -0.00000000000E+00 -0.27712627309E+03  0.27712627309E+03  0.00000000000E+00 0. -1.
         -6    2    1    2    0  503  0.17308825927E+03  0.24938600310E+03  0.13180170236E+04  0.13634520430E+04  0.17227790054E+03 0.  0.
        -24    2    3    3    0    0  0.19753678460E+03  0.22504859313E+03  0.11123978553E+04  0.11549061912E+04  0.81924791930E+02 0.  0.
          6    2    1    2  501    0 -0.17308825927E+03 -0.24938600310E+03 -0.13462887210E+03  0.37418865469E+03  0.17245083952E+03 0.  0.
         24    2    5    5    0    0 -0.41660148531E+02 -0.18228316819E+03 -0.83402398428E+02  0.21791203983E+03  0.74612168306E+02 0.  0.
          5    1    5    5  501    0 -0.13142811074E+03 -0.67102834916E+02 -0.51226473668E+02  0.15627661486E+03  0.47000000000E+01 0. -1.
        -11    1    6    6    0    0 -0.49355594371E+02 -0.56396017436E+02 -0.36410673613E+02  0.83320001388E+02  0.00000000000E+00 0.  1.
         12    1    6    6    0    0  0.76954458394E+01 -0.12588715075E+03 -0.46991724815E+02  0.13459203844E+03  0.00000000000E+00 0. -1.
         -5    1    3    3    0  503 -0.24448525334E+02  0.24337409971E+02  0.20561916830E+03  0.20854585176E+03  0.47000000000E+01 0.  1.
         13    1    4    4    0    0  0.10072061488E+03  0.59028440139E+02  0.47704437794E+03  0.49112150995E+03  0.00000000000E+00 0. -1.
        -14    1    4    4    0    0  0.96816169727E+02  0.16602015299E+03  0.63535347731E+03  0.66378468124E+03  0.00000000000E+00 0.  1.
</event>
<event>
12    1  0.1046899E+000  0.2191526E+03  0.7818608E-02  0.1135351E+00
         21   -1    0    0  501  502  0.00000000000E+00  0.00000000000E+00  0.53659686330E+03  0.53659686330E+03  0.00000000000E+00 0.  1.
         21   -1    0    0  502  503 -0.00000000000E+00 -0.00000000000E+00 -0.87830071702E+02  0.87830071702E+02  0.00000000000E+00 0.  1.
         -6    2    1    2    0  503 -0.34859017195E+02 -0.12378118537E+03  0.23345313656E+03  0.31720087215E+03  0.17198573602E+03 0.  0.
        -24    2    3    3    0    0 -0.31439033248E+02 -0.62144121740E+02  0.23234714785E+03  0.25528046264E+03  0.79577715560E+02 0.  0.
          6    2    1    2  501    0  0.34859017195E+02  0.12378118537E+03  0.21531365504E+03  0.30722606285E+03  0.17745689819E+03 0.  0.
         24    2    5    5    0    0 -0.18840518302E+02 -0.11387123178E+01  0.98014151462E+02  0.12758785842E+03  0.79470912500E+02 0.  0.
          5    1    5    5  501    0  0.53699535497E+02  0.12491989768E+03  0.11729950358E+03  0.17963820443E+03  0.47000000000E+01 0. -1.
        -13    1    6    6    0    0 -0.11268778764E+02 -0.37877821756E+02  0.71357690138E+02  0.81569814868E+02  0.00000000000E+00 0.  1.
         14    1    6    6    0    0 -0.75717395376E+01  0.36739109438E+02  0.26656461324E+02  0.46018043551E+02  0.00000000000E+00 0. -1.
         -5    1    3    3    0  503 -0.34199839471E+01 -0.61637063627E+02  0.11059887029E+01  0.61920409509E+02  0.47000000000E+01 0.  1.
         11    1    4    4    0    0 -0.29707076166E+02  0.10200434945E+02  0.94654895688E+02  0.99730178608E+02  0.00000000000E+00 0. -1.
        -12    1    4    4    0    0 -0.17319570816E+01 -0.72344556686E+02  0.13769225217E+03  0.15555028404E+03  0.00000000000E+00 0.  1.
</event>
<event>
12    1  0.1046899E+000  0.2240001E+03  0.7818608E-02  0.1131333E+00
         21   -1    0    0  503  502  0.00000000000E+00  0.00000000000E+00  0.39282952877E+02  0.39282952877E+02  0.00000000000E+00 0.  1.
         21   -1    0    0  501  503 -0.00000000000E+00 -0.00000000000E+00 -0.15800409316E+04  0.15800409316E+04  0.00000000000E+00 0.  1.
          6    2    1    2  501    0 -0.24642515797E+02  0.13988714821E+03 -0.40582069991E+03  0.46249257401E+03  0.17039152774E+03 0.  0.
         24    2    3    3    0    0 -0.80109190608E+02  0.86962308431E+02 -0.22349742746E+03  0.26465057555E+03  0.78159462327E+02 0.  0.
         -6    2    1    2    0  502  0.24642515797E+02 -0.13988714821E+03 -0.11349372788E+04  0.11568313105E+04  0.17320619561E+03 0.  0.
        -24    2    5    5    0    0 -0.30711870398E+02 -0.66963685182E+02 -0.36018152445E+03  0.37667074465E+03  0.81992470386E+02 0.  0.
          5    1    3    3  501    0  0.55466674811E+02  0.52924839777E+02 -0.18232327245E+03  0.19784199846E+03  0.47000000000E+01 0. -1.
        -13    1    4    4    0    0 -0.20737973856E+02  0.55496413618E+02 -0.16585887908E+03  0.17612235308E+03  0.00000000000E+00 0.  1.
         14    1    4    4    0    0 -0.59371216752E+02  0.31465894813E+02 -0.57638548378E+02  0.88528222472E+02  0.00000000000E+00 0. -1.
         -5    1    5    5    0  502  0.55354386195E+02 -0.72923463027E+02 -0.77475575437E+03  0.78016056582E+03  0.47000000000E+01 0.  1.
         13    1    6    6    0    0 -0.29675353875E+02 -0.24350696920E+02 -0.47383732352E+02  0.60981974056E+02  0.00000000000E+00 0. -1.
        -14    1    6    6    0    0 -0.10365165235E+01 -0.42612988261E+02 -0.31279779210E+03  0.31568877059E+03  0.00000000000E+00 0.  1.
</event>
<event>
12    1  0.1046899E+000  0.2853312E+03  0.7818608E-02  0.1092995E+00
         21   -1    0    0  503  502  0.00000000000E+00  0.00000000000E+00  0.11917309200E+04  0.11917309200E+04  0.00000000000E+00 0. -1.
         21   -1    0    0  501  503 -0.00000000000E+00 -0.00000000000E+00 -0.72823834987E+02  0.72823834987E+02  0.00000000000E+00 0. -1.
          6    2    1    2  501    0  0.11559831025E+02 -0.22631664985E+03  0.39526432201E+03  0.48669054470E+03  0.17111676233E+03 0.  0.
         24    2    3    3    0    0  0.56348663783E+02 -0.84259886189E+02  0.13760758857E+03  0.18904100928E+03  0.80782141777E+02 0.  0.
         -6    2    1    2    0  502 -0.11559831025E+02  0.22631664985E+03  0.72364276302E+03  0.77786421031E+03  0.17338115674E+03 0.  0.
        -24    2    5    5    0    0  0.34316471035E+02  0.19507536360E+03  0.44751533122E+03  0.49617448446E+03  0.81774871947E+02 0.  0.
          5    1    3    3  501    0 -0.44788832758E+02 -0.14205676366E+03  0.25765673344E+03  0.29764953541E+03  0.47000000000E+01 0. -1.
        -13    1    4    4    0    0 -0.16986546712E+02 -0.34731827498E+02  0.25933271031E+02  0.46555098076E+02  0.00000000000E+00 0.  1.
         14    1    4    4    0    0  0.73335210496E+02 -0.49528058691E+02  0.11167431753E+03  0.14248591121E+03  0.00000000000E+00 0. -1.
         -5    1    5    5    0  502 -0.45876302060E+02  0.31241286255E+02  0.27612743180E+03  0.28168972585E+03  0.47000000000E+01 0.  1.
         13    1    6    6    0    0 -0.22370733765E+02  0.51808454222E+02  0.82295778743E+02  0.99785574393E+02  0.00000000000E+00 0. -1.
        -14    1    6    6    0    0  0.56687204799E+02  0.14326690937E+03  0.36521955248E+03  0.39638891006E+03  0.00000000000E+00 0.  1.
</event>
<event>
12    1  0.1046899E+000  0.4848556E+03  0.7818608E-02  0.1017809E+00
         21   -1    0    0  503  502  0.00000000000E+00  0.00000000000E+00  0.33306498062E+04  0.33306498062E+04  0.00000000000E+00 0.  1.
         21   -1    0    0  501  503 -0.00000000000E+00 -0.00000000000E+00 -0.70766098503E+02  0.70766098503E+02  0.00000000000E+00 0.  1.
          6    2    1    2  501    0 -0.44470002324E+03 -0.87988252939E+02  0.17167054682E+04  0.17838617187E+04  0.17200268481E+03 0.  0.
         24    2    3    3    0    0 -0.28146037950E+03 -0.10974737138E+03  0.12678720802E+04  0.13057465226E+04  0.78803165399E+02 0.  0.
         -6    2    1    2    0  502  0.44470002324E+03  0.87988252939E+02  0.15431782395E+04  0.16175541860E+04  0.17199541408E+03 0.  0.
        -24    2    5    5    0    0  0.37217958370E+03  0.12799373335E+03  0.12659426405E+04  0.13281732606E+04  0.80829468176E+02 0.  0.
          5    1    3    3  501    0 -0.16323964375E+03  0.21759118440E+02  0.44883338798E+03  0.47811519605E+03  0.47000000000E+01 0. -1.
        -11    1    4    4    0    0 -0.34608399998E+02  0.11601638366E+02  0.12354775604E+03  0.12882696684E+03  0.00000000000E+00 0.  1.
         12    1    4    4    0    0 -0.24685197950E+03 -0.12134900974E+03  0.11443243242E+04  0.11769195558E+04  0.00000000000E+00 0. -1.
         -5    1    5    5    0  502  0.72520439541E+02 -0.40005480416E+02  0.27723559904E+03  0.28938092541E+03  0.47000000000E+01 0.  1.
         11    1    6    6    0    0  0.31912548143E+03  0.11913101070E+03  0.11651950037E+04  0.12139656779E+04  0.00000000000E+00 0. -1.
        -12    1    6    6    0    0  0.53054102273E+02  0.88627226557E+01  0.10074763682E+03  0.11420758270E+03  0.00000000000E+00 0.  1.
</event>
<event>
12    1  0.1046899E+000  0.1799101E+03  0.7818608E-02  0.1167941E+00
         21   -1    0    0  503  502  0.00000000000E+00  0.00000000000E+00  0.50036261567E+03  0.50036261567E+03  0.00000000000E+00 0. -1.
         21   -1    0    0  501  503 -0.00000000000E+00 -0.00000000000E+00 -0.11629537264E+03  0.11629537264E+03  0.00000000000E+00 0. -1.
          6    2    1    2  501    0  0.25801170790E+02 -0.45892980777E+02 -0.13447562252E+02  0.18041198681E+03  0.17203424647E+03 0.  0.
         24    2    3    3    0    0 -0.39645907154E+02 -0.58300934881E+00 -0.39029393664E+02  0.96669323729E+02  0.79053948203E+02 0.  0.
         -6    2    1    2    0  502 -0.25801170790E+02  0.45892980777E+02  0.39751480528E+03  0.43624600150E+03  0.17181585289E+03 0.  0.
        -24    2    5    5    0    0  0.10421718666E+00 -0.38876308562E+02  0.20809303507E+03  0.22705800334E+03  0.82105099774E+02 0.  0.
          5    1    3    3  501    0  0.65447077944E+02 -0.45309971428E+02  0.25581831413E+02  0.83742663085E+02  0.47000000000E+01 0. -1.
        -13    1    4    4    0    0  0.12546662896E+02  0.15476574799E+02 -0.37001235519E+02  0.42024213821E+02  0.00000000000E+00 0.  1.
         14    1    4    4    0    0 -0.52192570050E+02 -0.16059584148E+02 -0.20281581453E+01  0.54645109908E+02  0.00000000000E+00 0. -1.
         -5    1    5    5    0  502 -0.25905387977E+02  0.84769289338E+02  0.18942177021E+03  0.20918799815E+03  0.47000000000E+01 0.  1.
         11    1    6    6    0    0  0.32950740895E+01 -0.60355518841E+02  0.10034994431E+03  0.11714844212E+03  0.00000000000E+00 0. -1.
        -12    1    6    6    0    0 -0.31908569028E+01  0.21479210279E+02  0.10774309076E+03  0.10990956123E+03  0.00000000000E+00 0.  1.
</event>
<event>
12    1  0.1046899E+000  0.2402353E+03  0.7818608E-02  0.1119786E+00
         21   -1    0    0  503  502  0.00000000000E+00  0.00000000000E+00  0.10176450550E+03  0.10176450550E+03  0.00000000000E+00 0.  1.
         21   -1    0    0  501  503 -0.00000000000E+00 -0.00000000000E+00 -0.67997429951E+03  0.67997429951E+03  0.00000000000E+00 0.  1.
          6    2    1    2  501    0 -0.12625331887E+03 -0.10940423116E+03 -0.12882935994E+03  0.27259865249E+03  0.17263787253E+03 0.  0.
         24    2    3    3    0    0 -0.74064255554E+02 -0.92742539476E+02 -0.15411592066E+03  0.21207749542E+03  0.84489374986E+02 0.  0.
         -6    2    1    2    0  502  0.12625331887E+03  0.10940423116E+03 -0.44938043406E+03  0.50914015252E+03  0.17138183703E+03 0.  0.
        -24    2    5    5    0    0  0.74131701961E+02  0.12896363909E+02 -0.32660179416E+03  0.34443703837E+03  0.79412316550E+02 0.  0.
          5    1    3    3  501    0 -0.52189063315E+02 -0.16661691689E+02  0.25286560715E+02  0.60521157064E+02  0.47000000000E+01 0. -1.
        -13    1    4    4    0    0 -0.33259069916E+02 -0.68789613030E+02 -0.35263284802E+02  0.84152693644E+02  0.00000000000E+00 0.  1.
         14    1    4    4    0    0 -0.40805185638E+02 -0.23952926446E+02 -0.11885263586E+03  0.12792480178E+03  0.00000000000E+00 0. -1.
         -5    1    5    5    0  502  0.52121616907E+02  0.96507867256E+02 -0.12277863991E+03  0.16470311414E+03  0.47000000000E+01 0.  1.
         13    1    6    6    0    0  0.32919867798E+02  0.29281959878E+02 -0.61511717652E+02  0.75662687493E+02  0.00000000000E+00 0. -1.
        -14    1    6    6    0    0  0.41211834163E+02 -0.16385595970E+02 -0.26509007651E+03  0.26877435088E+03  0.00000000000E+00 0.  1.
</event>
<event>
12    1  0.1046899E+000  0.2034722E+03  0.7818608E-02  0.1147285E+00
         21   -1    0    0  503  502  0.00000000000E+00  0.00000000000E+00  0.89959669345E+03  0.89959669345E+03  0.00000000000E+00 0.  1.
         21   -1    0    0  501  503 -0.00000000000E+00 -0.00000000000E+00 -0.65474199515E+02  0.65474199515E+02  0.00000000000E+00 0.  1.
          6    2    1    2  501    0  0.46508406766E+02 -0.96888789304E+02  0.68483611808E+03  0.71442385624E+03  0.17277288082E+03 0.  0.
         24    2    3    3    0    0  0.93697504616E+02 -0.43746518356E+02  0.48883155264E+03  0.50587939673E+03  0.79149838572E+02 0.  0.
         -6    2    1    2    0  502 -0.46508406766E+02  0.96888789304E+02  0.14928637586E+03  0.25064703672E+03  0.17025582401E+03 0.  0.
        -24    2    5    5    0    0 -0.96272505034E+01 -0.13095346416E+02  0.84924524148E+02  0.11790191345E+03  0.80153068213E+02 0.  0.
          5    1    3    3  501    0 -0.47189097850E+02 -0.53142270949E+02  0.19600456544E+03  0.20854445951E+03  0.47000000000E+01 0. -1.
        -13    1    4    4    0    0 -0.85023560267E+01  0.61637631026E+01  0.10575780004E+03  0.10627791070E+03  0.00000000000E+00 0.  1.
         14    1    4    4    0    0  0.10219986064E+03 -0.49910281458E+02  0.38307375260E+03  0.39960148603E+03  0.00000000000E+00 0. -1.
         -5    1    5    5    0  502 -0.36881156263E+02  0.10998413572E+03  0.64361851708E+02  0.13274512327E+03  0.47000000000E+01 0.  1.
         13    1    6    6    0    0 -0.15455510597E+02  0.19938814550E+02 -0.14229328553E+01  0.25267644753E+02  0.00000000000E+00 0. -1.
        -14    1    6    6    0    0  0.58282600932E+01 -0.33034160966E+02  0.86347457003E+02  0.92634268699E+02  0.00000000000E+00 0.  1.
</event>
<event>
12    1  0.1046899E+000  0.2471692E+03  0.7818608E-02  0.1115236E+00
         21   -1    0    0  503  502  0.00000000000E+00  0.00000000000E+00  0.36861378437E+03  0.36861378437E+03  0.00000000000E+00 0.  1.
         21   -1    0    0  501  503 -0.00000000000E+00 -0.00000000000E+00 -0.28878845433E+03  0.28878845433E+03  0.00000000000E+00 0. -1.
          6    2    1    2  501    0 -0.77363506846E+02  0.15856959003E+03  0.25498315948E+03  0.35511834578E+03  0.17309881806E+03 0.  0.
         24    2    3    3    0    0 -0.15215658412E+02  0.37424052356E+02  0.18906078119E+03  0.20376958852E+03  0.64389364545E+02 0.  0.
         -6    2    1    2    0  502  0.77363506846E+02 -0.15856959003E+03 -0.17515782944E+03  0.30228389292E+03  0.17194725827E+03 0.  0.
        -24    2    5    5    0    0  0.58094468759E+02 -0.89620667617E+02 -0.26930306542E+02  0.13760621296E+03  0.82482707702E+02 0.  0.
          5    1    3    3  501    0 -0.62147848434E+02  0.12114553768E+03  0.65922378293E+02  0.15134875726E+03  0.47000000000E+01 0. -1.
        -13    1    4    4    0    0 -0.35306686390E+02  0.19785909569E+02  0.15645213058E+03  0.16160233131E+03  0.00000000000E+00 0.  1.
         14    1    4    4    0    0  0.20091027978E+02  0.17638142787E+02  0.32608650603E+02  0.42167257207E+02  0.00000000000E+00 0. -1.
         -5    1    5    5    0  502  0.19269038087E+02 -0.68948922415E+02 -0.14822752290E+03  0.16467767996E+03  0.47000000000E+01 0.  1.
         13    1    6    6    0    0 -0.17464485357E+02 -0.52402609539E+01  0.67430919773E+01  0.19440624298E+02  0.00000000000E+00 0. -1.
        -14    1    6    6    0    0  0.75558954117E+02 -0.84380406663E+02 -0.33673398519E+02  0.11816558866E+03  0.00000000000E+00 0.  1.
</event>
<event>
12    1  0.1046899E+000  0.3106373E+03  0.7818608E-02  0.1080251E+00
         21   -1    0    0  501  502  0.00000000000E+00  0.00000000000E+00  0.89234809606E+03  0.89234809606E+03  0.00000000000E+00 0. -1.
         21   -1    0    0  502  503 -0.00000000000E+00 -0.00000000000E+00 -0.13950581351E+03  0.13950581351E+03  0.00000000000E+00 0. -1.
         -6    2    1    2    0  503  0.22372866889E+03  0.12936058932E+03  0.62261505588E+03  0.69502363156E+03  0.16917346499E+03 0.  0.
        -24    2    3    3    0    0  0.20324141349E+03  0.11316152592E+03  0.39660600413E+03  0.46746195033E+03  0.84331188693E+02 0.  0.
          6    2    1    2  501    0 -0.22372866889E+03 -0.12936058932E+03  0.13022722667E+03  0.33683027801E+03  0.17235668327E+03 0.  0.
         24    2    5    5    0    0 -0.12866819817E+03 -0.13601780226E+03  0.12931648067E+03  0.24141680393E+03  0.80641014979E+02 0.  0.
          5    1    5    5  501    0 -0.95060470721E+02  0.66572129424E+01  0.91074600014E+00  0.95413474081E+02  0.47000000000E+01 0. -1.
        -13    1    6    6    0    0 -0.13689406194E+03 -0.13269931582E+03  0.10987897718E+03  0.22005109007E+03  0.00000000000E+00 0.  1.
         14    1    6    6    0    0  0.82258637754E+01 -0.33184864390E+01  0.19437503482E+02  0.21365713859E+02  0.00000000000E+00 0. -1.
         -5    1    3    3    0  503  0.20487255398E+02  0.16199063394E+02  0.22600905175E+03  0.22756168122E+03  0.47000000000E+01 0.  1.
         13    1    4    4    0    0  0.69474886385E+02  0.15350012686E+02  0.18821901322E+03  0.20121823890E+03  0.00000000000E+00 0. -1.
        -14    1    4    4    0    0  0.13376652711E+03  0.97811513239E+02  0.20838699091E+03  0.26624371143E+03  0.00000000000E+00 0.  1.
</event>
<event>
12    1  0.1046899E+000  0.2805098E+03  0.7818608E-02  0.1095688E+00
         21   -1    0    0  503  502  0.00000000000E+00  0.00000000000E+00  0.48336646708E+03  0.48336646708E+03  0.00000000000E+00 0. -1.
         21   -1    0    0  501  503 -0.00000000000E+00 -0.00000000000E+00 -0.20320435884E+03  0.20320435884E+03  0.00000000000E+00 0. -1.
          6    2    1    2  501    0  0.18338523532E+03 -0.12278583787E+03 -0.14823431765E+02  0.28090118788E+03  0.17314513192E+03 0.  0.
         24    2    3    3    0    0  0.18879824639E+03 -0.83912092994E+02 -0.51003563179E+02  0.22731424321E+03  0.79902343648E+02 0.  0.
         -6    2    1    2    0  502 -0.18338523532E+03  0.12278583787E+03  0.29498554000E+03  0.40566963804E+03  0.16983780469E+03 0.  0.
        -24    2    5    5    0    0 -0.18614333201E+03  0.11690093324E+03  0.19179424161E+03  0.30216711023E+03  0.78770318926E+02 0.  0.
          5    1    3    3  501    0 -0.54130110664E+01 -0.38873744873E+02  0.36180131414E+02  0.53586944664E+02  0.47000000000E+01 0. -1.
        -13    1    4    4    0    0  0.13488785933E+03 -0.54804456651E+02  0.30252588361E+01  0.14562765965E+03  0.00000000000E+00 0.  1.
         14    1    4    4    0    0  0.53910387060E+02 -0.29107636343E+02 -0.54028822015E+02  0.81686583566E+02  0.00000000000E+00 0. -1.
         -5    1    5    5    0  502  0.27580966876E+01  0.58849046260E+01  0.10319129839E+03  0.10350252781E+03  0.47000000000E+01 0.  1.
         13    1    6    6    0    0 -0.24378909821E+02  0.22277812585E+02 -0.13422063117E+01  0.33051984743E+02  0.00000000000E+00 0. -1.
        -14    1    6    6    0    0 -0.16176442219E+03  0.94623120657E+02  0.19313644792E+03  0.26911512548E+03  0.00000000000E+00 0.  1.
</event>
<event>
12    1  0.1046899E+000  0.2234224E+03  0.7818608E-02  0.1131415E+00
         21   -1    0    0  501  502  0.00000000000E+00  0.00000000000E+00  0.52262602425E+02  0.52262602425E+02  0.00000000000E+00 0.  1.
         21   -1    0    0  502  503 -0.00000000000E+00 -0.00000000000E+00 -0.10836774761E+04  0.10836774761E+04  0.00000000000E+00 0.  1.
         -6    2    1    2    0  503 -0.98886200812E+02  0.10397384164E+03 -0.71268866880E+03  0.74688867464E+03  0.17125569543E+03 0.  0.
        -24    2    3    3    0    0 -0.11593306262E+03  0.12432222846E+03 -0.67506881854E+03  0.70060697763E+03  0.78966675576E+02 0.  0.
          6    2    1    2  501    0  0.98886200812E+02 -0.10397384164E+03 -0.31872620491E+03  0.38905140391E+03  0.17083781998E+03 0.  0.
         24    2    5    5    0    0 -0.10659430181E+02 -0.45747685564E+02 -0.18323001357E+03  0.20528024625E+03  0.79751284898E+02 0.  0.
          5    1    5    5  501    0  0.10954563099E+03 -0.58226156075E+02 -0.13549619134E+03  0.18377115766E+03  0.47000000000E+01 0. -1.
        -11    1    6    6    0    0 -0.29780129722E+02 -0.25863475048E+02 -0.29917981546E+02  0.49506172217E+02  0.00000000000E+00 0.  1.
         12    1    6    6    0    0  0.19120699541E+02 -0.19884210517E+02 -0.15331203202E+03  0.15577407403E+03  0.00000000000E+00 0. -1.
         -5    1    3    3    0  503  0.17046861812E+02 -0.20348386825E+02 -0.37619850262E+02  0.46281697006E+02  0.47000000000E+01 0.  1.
         13    1    4    4    0    0 -0.50253555531E+02  0.30072872140E+02 -0.37037770853E+03  0.37497925871E+03  0.00000000000E+00 0. -1.
        -14    1    4    4    0    0 -0.65679507093E+02  0.94249356324E+02 -0.30469111000E+03  0.32562771893E+03  0.00000000000E+00 0.  1.
</event>
<event>
12    1  0.1046899E+000  0.3088577E+03  0.7818608E-02  0.1080897E+00
         21   -1    0    0  501  502  0.00000000000E+00  0.00000000000E+00  0.17550065843E+04  0.17550065843E+04  0.00000000000E+00 0. -1.
         21   -1    0    0  502  503 -0.00000000000E+00 -0.00000000000E+00 -0.69813627765E+02  0.69813627765E+02  0.00000000000E+00 0.  1.
         -6    2    1    2    0  503 -0.25363152961E+03 -0.35493226833E+02  0.41322351474E+03  0.51589411539E+03  0.17263934428E+03 0.  0.
        -24    2    3    3    0    0 -0.21804313428E+03 -0.85638820185E+02  0.32229165062E+03  0.40602233409E+03  0.78137134478E+02 0.  0.
          6    2    1    2  501    0  0.25363152961E+03  0.35493226833E+02  0.12719694418E+04  0.13089260966E+04  0.17260516719E+03 0.  0.
         24    2    5    5    0    0  0.19029596024E+03 -0.37684367474E+02  0.78808942037E+03  0.81544021057E+03  0.78899546743E+02 0.  0.
          5    1    5    5  501    0  0.63335569366E+02  0.73177594307E+02  0.48388002138E+03  0.49348588607E+03  0.47000000000E+01 0. -1.
        -11    1    6    6    0    0  0.57146179176E+02 -0.43020408768E+01  0.11490925391E+03  0.12840689228E+03  0.00000000000E+00 0.  1.
         12    1    6    6    0    0  0.13314978107E+03 -0.33382326597E+02  0.67318016646E+03  0.68703331829E+03  0.00000000000E+00 0. -1.
         -5    1    3    3    0  503 -0.35588395325E+02  0.50145593352E+02  0.90931864118E+02  0.10987178130E+03  0.47000000000E+01 0.  1.
         11    1    4    4    0    0 -0.18320120962E+02  0.86941409365E+01  0.58791720815E+02  0.62190685436E+02  0.00000000000E+00 0. -1.
        -12    1    4    4    0    0 -0.19972301332E+03 -0.94332961122E+02  0.26349992981E+03  0.34383164865E+03  0.00000000000E+00 0.  1.
</event>
<event>
12    1  0.1046899E+000  0.2565021E+03  0.7818608E-02  0.1109359E+00
         21   -1    0    0  501  502  0.00000000000E+00  0.00000000000E+00  0.66103830079E+02  0.66103830079E+02  0.00000000000E+00 0. -1.
         21   -1    0    0  502  503 -0.00000000000E+00 -0.00000000000E+00 -0.13135138715E+04  0.13135138715E+04  0.00000000000E+00 0. -1.
         -6    2    1    2    0  503  0.16859834400E+03 -0.88398051544E+02 -0.28346560952E+03  0.38229058334E+03  0.17191195773E+03 0.  0.
        -24    2    3    3    0    0  0.13889473214E+03 -0.10355825944E+03 -0.14643545263E+03  0.24118250292E+03  0.81912137161E+02 0.  0.
          6    2    1    2  501    0 -0.16859834400E+03  0.88398051544E+02 -0.96394443187E+03  0.99732711821E+03  0.17097630208E+03 0.  0.
         24    2    5    5    0    0 -0.53850022975E+02  0.71874630986E+02 -0.68279748379E+03  0.69317929721E+03  0.78862834467E+02 0.  0.
          5    1    5    5  501    0 -0.11474832102E+03  0.16523420558E+02 -0.28114694809E+03  0.30414782101E+03  0.47000000000E+01 0. -1.
        -13    1    6    6    0    0 -0.38864468553E+01  0.49021987862E+02 -0.15705454513E+03  0.16457335722E+03  0.00000000000E+00 0.  1.
         14    1    6    6    0    0 -0.49963576119E+02  0.22852643124E+02 -0.52574293866E+03  0.52860593998E+03  0.00000000000E+00 0. -1.
         -5    1    3    3    0  503  0.29703611864E+02  0.15160207896E+02 -0.13703015689E+03  0.14110808042E+03  0.47000000000E+01 0.  1.
         11    1    4    4    0    0  0.57548108020E+02 -0.23143217084E+01 -0.23032807024E+02  0.62029436730E+02  0.00000000000E+00 0. -1.
        -12    1    4    4    0    0  0.81346624115E+02 -0.10124393773E+03 -0.12340264560E+03  0.17915306619E+03  0.00000000000E+00 0.  1.
</event>
<event>
12    1  0.1046899E+000  0.2198718E+03  0.7818608E-02  0.1134503E+00
         21   -1    0    0  503  502  0.00000000000E+00  0.00000000000E+00  0.92593856162E+02  0.92593856162E+02  0.00000000000E+00 0.  1.
         21   -1    0    0  501  503 -0.00000000000E+00 -0.00000000000E+00 -0.54155076072E+03  0.54155076072E+03  0.00000000000E+00 0.  1.
          6    2    1    2  501    0  0.12270125953E+03  0.54326008964E+02 -0.29539993531E+03  0.36824547447E+03  0.17417431885E+03 0.  0.
         24    2    3    3    0    0  0.77377998601E+02 -0.35015926264E+02 -0.11959477447E+03  0.16584556353E+03  0.77384566300E+02 0.  0.
         -6    2    1    2    0  502 -0.12270125953E+03 -0.54326008964E+02 -0.15355696925E+03  0.26589914242E+03  0.17063322301E+03 0.  0.
        -24    2    5    5    0    0 -0.14522061183E+03 -0.75728144250E+02 -0.14663150775E+03  0.23372423542E+03  0.79387916116E+02 0.  0.
          5    1    3    3  501    0  0.45323260926E+02  0.89341935228E+02 -0.17580516084E+03  0.20239991094E+03  0.47000000000E+01 0. -1.
        -13    1    4    4    0    0 -0.85979383225E+01 -0.26865689197E+02 -0.35035023144E+02  0.44979358000E+02  0.00000000000E+00 0.  1.
         14    1    4    4    0    0  0.85975936923E+02 -0.81502370669E+01 -0.84559751328E+02  0.12086620553E+03  0.00000000000E+00 0. -1.
         -5    1    5    5    0  502  0.22519352308E+02  0.21402135286E+02 -0.69254614996E+01  0.32174906995E+02  0.47000000000E+01 0.  1.
         11    1    6    6    0    0 -0.82006794724E+02 -0.84795488336E+02 -0.10007324178E+03  0.15469338365E+03  0.00000000000E+00 0. -1.
        -12    1    6    6    0    0 -0.63213817111E+02  0.90673440861E+01 -0.46558265972E+02  0.79030851779E+02  0.00000000000E+00 0.  1.
</event>
<event>
12    1  0.1046899E+000  0.1914125E+03  0.7818608E-02  0.1157541E+00
         21   -1    0    0  503  502  0.00000000000E+00  0.00000000000E+00  0.26159956850E+03  0.26159956850E+03  0.00000000000E+00 0.  1.
         21   -1    0    0  501  503 -0.00000000000E+00 -0.00000000000E+00 -0.13892640399E+03  0.13892640399E+03  0.00000000000E+00 0.  1.
          6    2    1    2  501    0 -0.80295824019E+02  0.10860625972E+01  0.60424524462E+02  0.19924593242E+03  0.17204423717E+03 0.  0.
         24    2    3    3    0    0 -0.10679364317E+03  0.41284645868E+02  0.56472547784E+02  0.15070967138E+03  0.80093396664E+02 0.  0.
         -6    2    1    2    0  502  0.80295824019E+02 -0.10860625972E+01  0.62248640046E+02  0.20128004007E+03  0.17375316531E+03 0.  0.
        -24    2    5    5    0    0  0.12091138295E+03 -0.79427485638E+00  0.67331218978E+02  0.16007771760E+03  0.80443702203E+02 0.  0.
          5    1    3    3  501    0  0.26497819147E+02 -0.40198583271E+02  0.39519766785E+01  0.48536261045E+02  0.47000000000E+01 0. -1.
        -11    1    4    4    0    0 -0.42289456261E+02  0.36616568610E+02 -0.11258798094E+02  0.57060772358E+02  0.00000000000E+00 0.  1.
         12    1    4    4    0    0 -0.64504186905E+02  0.46680772578E+01  0.67731345878E+02  0.93648899022E+02  0.00000000000E+00 0. -1.
         -5    1    5    5    0  502 -0.40615558935E+02 -0.29178774080E+00 -0.50825789322E+01  0.41202322462E+02  0.47000000000E+01 0.  1.
         11    1    6    6    0    0  0.10039527985E+03 -0.61608362357E+01  0.12585776780E+02  0.10136848571E+03  0.00000000000E+00 0. -1.
        -12    1    6    6    0    0  0.20516103106E+02  0.53665613793E+01  0.54745442199E+02  0.58709231891E+02  0.00000000000E+00 0.  1.
</event>
<event>
12    1  0.1046899E+000  0.2387188E+03  0.7818608E-02  0.1123115E+00
         21   -1    0    0  503  502  0.00000000000E+00  0.00000000000E+00  0.11239715495E+04  0.11239715495E+04  0.00000000000E+00 0.  1.
         21   -1    0    0  501  503 -0.00000000000E+00 -0.00000000000E+00 -0.47948006198E+02  0.47948006198E+02  0.00000000000E+00 0.  1.
          6    2    1    2  501    0  0.96767856876E+02 -0.10717681497E+03  0.51443612997E+03  0.56712537813E+03  0.19009412118E+03 0.  0.
         24    2    3    3    0    0  0.39656251212E+01 -0.11875114919E+03  0.34989748230E+03  0.37780745502E+03  0.78693477077E+02 0.  0.
         -6    2    1    2    0  502 -0.96767856876E+02  0.10717681497E+03  0.56158741334E+03  0.60479417758E+03  0.17188567892E+03 0.  0.
        -24    2    5    5    0    0  0.88066617360E+01  0.83946627304E+02  0.29987383332E+03  0.32159511584E+03  0.79840522913E+02 0.  0.
          5    1    3    3  501    0  0.92802231754E+02  0.11574334226E+02  0.16453864767E+03  0.18931792311E+03  0.47000000000E+01 0. -1.
        -13    1    4    4    0    0  0.61347541875E+01 -0.99149596036E+02  0.17049405185E+03  0.19732333699E+03  0.00000000000E+00 0.  1.
         14    1    4    4    0    0 -0.21691290663E+01 -0.19601553158E+02  0.17940343044E+03  0.18048411803E+03  0.00000000000E+00 0. -1.
         -5    1    5    5    0  502 -0.10557451861E+03  0.23230187664E+02  0.26171358003E+03  0.28319906174E+03  0.47000000000E+01 0.  1.
         11    1    6    6    0    0 -0.34799917002E+02  0.45798717113E+02  0.13143248885E+03  0.14346796101E+03  0.00000000000E+00 0. -1.
        -12    1    6    6    0    0  0.43606578738E+02  0.38147910191E+02  0.16844134447E+03  0.17812715483E+03  0.00000000000E+00 0.  1.
</event>
<event>
12    1  0.1046899E+000  0.2224698E+03  0.7818608E-02  0.1132148E+00
         21   -1    0    0  503  502  0.00000000000E+00  0.00000000000E+00  0.30034884601E+02  0.30034884601E+02  0.00000000000E+00 0. -1.
         21   -1    0    0  501  503 -0.00000000000E+00 -0.00000000000E+00 -0.17726066608E+04  0.17726066608E+04  0.00000000000E+00 0. -1.
          6    2    1    2  501    0 -0.86877021147E+02  0.11031163777E+03 -0.62770561917E+03  0.66579532063E+03  0.17190925050E+03 0.  0.
         24    2    3    3    0    0  0.82265028301E+01  0.26182483225E+02 -0.16072534567E+03  0.18183761509E+03  0.80492755843E+02 0.  0.
         -6    2    1    2    0  502  0.86877021147E+02 -0.11031163777E+03 -0.11148661570E+04  0.11368462248E+04  0.17255873335E+03 0.  0.
        -24    2    5    5    0    0  0.11110360419E+03 -0.94211308472E+02 -0.10717736317E+04  0.10846427415E+04  0.80816938118E+02 0.  0.
          5    1    3    3  501    0 -0.95103523978E+02  0.84129154540E+02 -0.46698027350E+03  0.48395770554E+03  0.47000000000E+01 0. -1.
        -13    1    4    4    0    0 -0.23306088171E+02  0.30281913499E+02 -0.33884597488E+02  0.51071851130E+02  0.00000000000E+00 0.  1.
         14    1    4    4    0    0  0.31532591001E+02 -0.40994302734E+01 -0.12684074818E+03  0.13076576396E+03  0.00000000000E+00 0. -1.
         -5    1    5    5    0  502 -0.24226583046E+02 -0.16100329294E+02 -0.43092525266E+02  0.52203483249E+02  0.47000000000E+01 0.  1.
         11    1    6    6    0    0  0.15493641914E+01 -0.14085811112E+02 -0.22252532998E+02  0.26381543338E+02  0.00000000000E+00 0. -1.
        -12    1    6    6    0    0  0.10955424000E+03 -0.80125497359E+02 -0.10495210987E+04  0.10582611982E+04  0.00000000000E+00 0.  1.
</event>
<event>
12    1  0.1046899E+000  0.5013683E+03  0.7818608E-02  0.1013423E+00
         21   -1    0    0  503  502  0.00000000000E+00  0.00000000000E+00  0.12459770302E+03  0.12459770302E+03  0.00000000000E+00 0.  1.
         21   -1    0    0  501  503 -0.00000000000E+00 -0.00000000000E+00 -0.26446916372E+04  0.26446916372E+04  0.00000000000E+00 0.  1.
          6    2    1    2  501    0  0.19162974177E+02  0.47055424939E+03 -0.58570933664E+03  0.77099002613E+03  0.17199323292E+03 0.  0.
         24    2    3    3    0    0 -0.36605306281E+02  0.32106551658E+03 -0.45969125605E+03  0.56761935720E+03  0.80328509293E+02 0.  0.
         -6    2    1    2    0  502 -0.19162974177E+02 -0.47055424939E+03 -0.19343845976E+04  0.19982993141E+04  0.17195306418E+03 0.  0.
        -24    2    5    5    0    0 -0.18459378998E+01 -0.43352092163E+03 -0.18737104438E+04  0.19249863545E+04  0.82691238269E+02 0.  0.
          5    1    3    3  501    0  0.55768280458E+02  0.14948873281E+03 -0.12601808059E+03  0.20337066892E+03  0.47000000000E+01 0. -1.
        -13    1    4    4    0    0  0.20811618912E+02  0.61811192696E+02 -0.11865005135E+03  0.13539417163E+03  0.00000000000E+00 0.  1.
         14    1    4    4    0    0 -0.57416925193E+02  0.25925432388E+03 -0.34104120469E+03  0.43222518558E+03  0.00000000000E+00 0. -1.
         -5    1    5    5    0  502 -0.17317036277E+02 -0.37033327754E+02 -0.60674153793E+02  0.73312959622E+02  0.47000000000E+01 0.  1.
         11    1    6    6    0    0 -0.14620705882E+02 -0.13772199133E+03 -0.45061598081E+03  0.47141900057E+03  0.00000000000E+00 0. -1.
        -12    1    6    6    0    0  0.12774767982E+02 -0.29579893030E+03 -0.14230944630E+04  0.14535673539E+04  0.00000000000E+00 0.  1.
</event>
<event>
12    1  0.1046899E+000  0.1722679E+03  0.7818608E-02  0.1175889E+00
         21   -1    0    0  501  502  0.00000000000E+00  0.00000000000E+00  0.17979093359E+03  0.17979093359E+03  0.00000000000E+00 0. -1.
         21   -1    0    0  502  503 -0.00000000000E+00 -0.00000000000E+00 -0.26149341746E+03  0.26149341746E+03  0.00000000000E+00 0. -1.
         -6    2    1    2    0  503 -0.35314198011E+02 -0.25466589698E+00 -0.17594240274E+03  0.24623554660E+03  0.16860918685E+03 0.  0.
        -24    2    3    3    0    0 -0.77614381851E+02  0.30583442434E+02 -0.14234287038E+03  0.18385515663E+03  0.81128827490E+02 0.  0.
          6    2    1    2  501    0  0.35314198011E+02  0.25466589698E+00  0.94239918869E+02  0.19504880444E+03  0.16707996999E+03 0.  0.
         24    2    5    5    0    0 -0.18334275372E+02  0.25467709455E+02  0.39620760461E+01  0.86946837918E+02  0.80989534503E+02 0.  0.
          5    1    5    5  501    0  0.53648473384E+02 -0.25213043558E+02  0.90277842823E+02  0.10810196653E+03  0.47000000000E+01 0. -1.
        -13    1    6    6    0    0 -0.30893262190E+02 -0.20513565759E+02 -0.77015850500E+01  0.37874984372E+02  0.00000000000E+00 0.  1.
         14    1    6    6    0    0  0.12558986817E+02  0.45981275215E+02  0.11663661096E+02  0.49071853546E+02  0.00000000000E+00 0. -1.
         -5    1    3    3    0  503  0.42300183840E+02 -0.30838108331E+02 -0.33599532368E+02  0.62380389977E+02  0.47000000000E+01 0.  1.
         11    1    4    4    0    0  0.68211901461E+01  0.26280396610E+02 -0.15049178480E+02  0.31042964644E+02  0.00000000000E+00 0. -1.
        -12    1    4    4    0    0 -0.84435571997E+02  0.43030458245E+01 -0.12729369189E+03  0.15281219198E+03  0.00000000000E+00 0.  1.
</event>
<event>
12    1  0.1046899E+000  0.1965122E+03  0.7818608E-02  0.1154085E+00
         21   -1    0    0  501  502  0.00000000000E+00  0.00000000000E+00  0.11868810482E+03  0.11868810482E+03  0.00000000000E+00 0. -1.
         21   -1    0    0  502  503 -0.00000000000E+00 -0.00000000000E+00 -0.34333640716E+03  0.34333640716E+03  0.00000000000E+00 0. -1.
         -6    2    1    2    0  503  0.57644169789E+02 -0.70422639967E+02 -0.44448105345E+02  0.19539901900E+03  0.16710159791E+03 0.  0.
        -24    2    3    3    0    0  0.99756326417E+02 -0.71550820710E+02 -0.22540315770E+02  0.14768374082E+03  0.78940337359E+02 0.  0.
          6    2    1    2  501    0 -0.57644169789E+02  0.70422639967E+02 -0.18020019699E+03  0.26662549298E+03  0.17416900982E+03 0.  0.
         24    2    5    5    0    0  0.30857542213E+02  0.49440552041E+02 -0.61771044151E+02  0.11722550877E+03  0.80805952209E+02 0.  0.
          5    1    5    5  501    0 -0.88501712002E+02  0.20982087926E+02 -0.11842915284E+03  0.14939998422E+03  0.47000000000E+01 0. -1.
        -11    1    6    6    0    0 -0.94729644000E+01  0.56477507643E+01  0.15907449177E+02  0.19356680566E+02  0.00000000000E+00 0.  1.
         12    1    6    6    0    0  0.40330506613E+02  0.43792801277E+02 -0.77678493329E+02  0.97868828200E+02  0.00000000000E+00 0. -1.
         -5    1    3    3    0  503 -0.42112156628E+02  0.11281807429E+01 -0.21907789576E+02  0.47715278179E+02  0.47000000000E+01 0.  1.
         11    1    4    4    0    0  0.49476643072E+02 -0.38969925817E+02  0.28356806013E+02  0.69070266939E+02  0.00000000000E+00 0. -1.
        -12    1    4    4    0    0  0.50279683345E+02 -0.32580894893E+02 -0.50897121783E+02  0.78613473878E+02  0.00000000000E+00 0.  1.
</event>
<event>
12    1  0.1046899E+000  0.1768905E+03  0.7818608E-02  0.1171171E+00
         21   -1    0    0  501  502  0.00000000000E+00  0.00000000000E+00  0.11828924080E+04  0.11828924080E+04  0.00000000000E+00 0.  1.
         21   -1    0    0  502  503 -0.00000000000E+00 -0.00000000000E+00 -0.30125312905E+02  0.30125312905E+02  0.00000000000E+00 0.  1.
         -6    2    1    2    0  503  0.19448655808E+02  0.31539346444E+02  0.35720699979E+03  0.39802930935E+03  0.17163190209E+03 0.  0.
        -24    2    3    3    0    0  0.60665808232E+02  0.59372438679E+02  0.18396371855E+03  0.21772717633E+03  0.79731090583E+02 0.  0.
          6    2    1    2  501    0 -0.19448655808E+02 -0.31539346444E+02  0.79556009533E+03  0.81498841158E+03  0.17296608090E+03 0.  0.
         24    2    5    5    0    0 -0.52643852411E+02 -0.59793366917E+02  0.32894440451E+03  0.34631741433E+03  0.73380571552E+02 0.  0.
          5    1    5    5  501    0  0.33195196602E+02  0.28254020473E+02  0.46661569081E+03  0.46867099725E+03  0.47000000000E+01 0. -1.
        -13    1    6    6    0    0 -0.79788022257E+01 -0.38735050560E+01  0.18832127535E+03  0.18853001903E+03  0.00000000000E+00 0.  1.
         14    1    6    6    0    0 -0.44665050185E+02 -0.55919861861E+02  0.14062312917E+03  0.15778739530E+03  0.00000000000E+00 0. -1.
         -5    1    3    3    0  503 -0.41217152424E+02 -0.27833092235E+02  0.17324328124E+03  0.18030213302E+03  0.47000000000E+01 0.  1.
         11    1    4    4    0    0  0.14068826315E+02  0.50479714834E+02  0.15133493879E+03  0.16015116978E+03  0.00000000000E+00 0. -1.
        -12    1    4    4    0    0  0.46596981917E+02  0.88927238450E+01  0.32628779760E+02  0.57576006546E+02  0.00000000000E+00 0.  1.
</event>
<event>
12    1  0.1046899E+000  0.5322942E+03  0.7818608E-02  0.1005678E+00
         21   -1    0    0  501  502  0.00000000000E+00  0.00000000000E+00  0.11956084376E+04  0.11956084376E+04  0.00000000000E+00 0.  1.
         21   -1    0    0  502  503 -0.00000000000E+00 -0.00000000000E+00 -0.24286793703E+03  0.24286793703E+03  0.00000000000E+00 0.  1.
         -6    2    1    2    0  503  0.47869315365E+03 -0.15540051398E+03  0.58838365673E+03  0.79343083749E+03  0.17332256422E+03 0.  0.
        -24    2    3    3    0    0  0.48918333235E+03 -0.15779400432E+03  0.57476791253E+03  0.77545165132E+03  0.82266820805E+02 0.  0.
          6    2    1    2  501    0 -0.47869315365E+03  0.15540051398E+03  0.36435684387E+03  0.64504553718E+03  0.17329564409E+03 0.  0.
         24    2    5    5    0    0 -0.25065994505E+03  0.14677865164E+03  0.23998284117E+03  0.38511388600E+03  0.79665303026E+02 0.  0.
          5    1    5    5  501    0 -0.22803320861E+03  0.86218623427E+01  0.12437400270E+03  0.25993165118E+03  0.47000000000E+01 0. -1.
        -11    1    6    6    0    0 -0.18989491674E+02  0.34883129989E+02  0.56702415284E+02  0.69228588393E+02  0.00000000000E+00 0.  1.
         12    1    6    6    0    0 -0.23167045337E+03  0.11189552165E+03  0.18328042588E+03  0.31588529761E+03  0.00000000000E+00 0. -1.
         -5    1    3    3    0  503 -0.10490178701E+02  0.23934903417E+01  0.13615744196E+02  0.17979186166E+02  0.47000000000E+01 0.  1.
         13    1    4    4    0    0  0.29091664521E+03 -0.84722948329E+02  0.39631817738E+03  0.49887730972E+03  0.00000000000E+00 0. -1.
        -14    1    4    4    0    0  0.19826668714E+03 -0.73071055996E+02  0.17844973516E+03  0.27657434160E+03  0.00000000000E+00 0.  1.
</event>
<event>
12    1  0.1046899E+000  0.3934718E+03  0.7818608E-02  0.1046481E+00
         21   -1    0    0  503  502  0.00000000000E+00  0.00000000000E+00  0.35228472858E+03  0.35228472858E+03  0.00000000000E+00 0.  1.
         21   -1    0    0  501  503 -0.00000000000E+00 -0.00000000000E+00 -0.58592876205E+03  0.58592876205E+03  0.00000000000E+00 0.  1.
          6    2    1    2  501    0  0.31169696954E+03 -0.16702244557E+03  0.12237052440E+03  0.40758517157E+03  0.16155379506E+03 0.  0.
         24    2    3    3    0    0  0.14258251505E+03 -0.20473715991E+02  0.58455286024E+02  0.17481172687E+03  0.79957318266E+02 0.  0.
         -6    2    1    2    0  502 -0.31169696954E+03  0.16702244557E+03 -0.35601455788E+03  0.53062831906E+03  0.17253564681E+03 0.  0.
        -24    2    5    5    0    0 -0.26351641865E+03  0.89258473185E+02 -0.20771120321E+03  0.35631659859E+03  0.80059956044E+02 0.  0.
          5    1    3    3  501    0  0.16911445449E+03 -0.14654872958E+03  0.63915238376E+02  0.23277344470E+03  0.47000000000E+01 0. -1.
        -13    1    4    4    0    0  0.81682319994E+02 -0.31301571900E+02 -0.31237450739E+01  0.87530266687E+02  0.00000000000E+00 0.  1.
         14    1    4    4    0    0  0.60900195052E+02  0.10827855909E+02  0.61579031098E+02  0.87281460185E+02  0.00000000000E+00 0. -1.
         -5    1    5    5    0  502 -0.48180550892E+02  0.77763972389E+02 -0.14830335467E+03  0.17431172046E+03  0.47000000000E+01 0.  1.
         13    1    6    6    0    0 -0.95456919544E+02  0.65995248734E+02 -0.11315477512E+03  0.16208454422E+03  0.00000000000E+00 0. -1.
        -14    1    6    6    0    0 -0.16805949910E+03  0.23263224451E+02 -0.94556428093E+02  0.19423205437E+03  0.00000000000E+00 0.  1.
</event>
<event>
12    1  0.1046899E+000  0.2007961E+03  0.7818608E-02  0.1149487E+00
         21   -1    0    0  503  502  0.00000000000E+00  0.00000000000E+00  0.12802197364E+03  0.12802197364E+03  0.00000000000E+00 0.  1.
         21   -1    0    0  501  503 -0.00000000000E+00 -0.00000000000E+00 -0.35237005770E+03  0.35237005770E+03  0.00000000000E+00 0.  1.
          6    2    1    2  501    0 -0.11918612597E+02  0.98257470343E+02 -0.30217391896E+02  0.20109685573E+03  0.17242468155E+03 0.  0.
         24    2    3    3    0    0 -0.10025208330E+02  0.13457687075E+03 -0.41979334919E+02  0.16258559595E+03  0.80376442482E+02 0.  0.
         -6    2    1    2    0  502  0.11918612597E+02 -0.98257470343E+02 -0.19413069217E+03  0.27929517562E+03  0.17470685641E+03 0.  0.
        -24    2    5    5    0    0  0.17685766769E+02 -0.41434879832E+02 -0.14672817349E+02  0.90909173761E+02  0.77585763462E+02 0.  0.
          5    1    3    3  501    0 -0.18934042664E+01 -0.36319400411E+02  0.11761943023E+02  0.38511259777E+02  0.47000000000E+01 0. -1.
        -13    1    4    4    0    0 -0.36855225318E+01  0.17400563044E+02  0.22506834102E+02  0.28686586620E+02  0.00000000000E+00 0.  1.
         14    1    4    4    0    0 -0.63396857986E+01  0.11717630771E+03 -0.64486169021E+02  0.13389900933E+03  0.00000000000E+00 0. -1.
         -5    1    5    5    0  502 -0.57671541726E+01 -0.56822590511E+02 -0.17945787482E+03  0.18838600185E+03  0.47000000000E+01 0.  1.
         11    1    6    6    0    0 -0.27658904119E+02 -0.33261437387E+02 -0.29142948989E+01  0.43357021448E+02  0.00000000000E+00 0. -1.
        -12    1    6    6    0    0  0.45344670888E+02 -0.81734424448E+01 -0.11758522450E+02  0.47552152313E+02  0.00000000000E+00 0.  1.
</event>
<event>
12    1  0.1046899E+000  0.4164905E+03  0.7818608E-02  0.1038956E+00
         21   -1    0    0  503  502  0.00000000000E+00  0.00000000000E+00  0.73080741604E+03  0.73080741604E+03  0.00000000000E+00 0. -1.
         21   -1    0    0  501  503 -0.00000000000E+00 -0.00000000000E+00 -0.23413836975E+03  0.23413836975E+03  0.00000000000E+00 0. -1.
          6    2    1    2  501    0  0.31352614186E+03  0.20063637155E+03  0.28829467944E+03  0.49923745236E+03  0.16604401957E+03 0.  0.
         24    2    3    3    0    0  0.15137809277E+03  0.85955849176E+02  0.69806687870E+02  0.20393641191E+03  0.80083403104E+02 0.  0.
         -6    2    1    2    0  502 -0.31352614186E+03 -0.20063637155E+03  0.20837436686E+03  0.46570833343E+03  0.18684426629E+03 0.  0.
        -24    2    5    5    0    0 -0.38627298549E+02 -0.33896204793E+02  0.72669619058E+02  0.11669611897E+03  0.75472443694E+02 0.  0.
          5    1    3    3  501    0  0.16214804909E+03  0.11468052237E+03  0.21848799157E+03  0.29530104046E+03  0.47000000000E+01 0. -1.
        -11    1    4    4    0    0  0.80263955914E+02  0.28225168578E+00  0.30266938644E+02  0.85781524000E+02  0.00000000000E+00 0.  1.
         12    1    4    4    0    0  0.71114136853E+02  0.85673597490E+02  0.39539749226E+02  0.11815488791E+03  0.00000000000E+00 0. -1.
         -5    1    5    5    0  502 -0.27489884331E+03 -0.16674016675E+03  0.13570474780E+03  0.34901221445E+03  0.47000000000E+01 0.  1.
         11    1    6    6    0    0 -0.52260707473E+02  0.25774772750E+01  0.39844100508E+02  0.65767600533E+02  0.00000000000E+00 0. -1.
        -12    1    6    6    0    0  0.13633408924E+02 -0.36473682068E+02  0.32825518550E+02  0.50928518441E+02  0.00000000000E+00 0.  1.
</event>
<event>
12    1  0.1046899E+000  0.2654717E+03  0.7818608E-02  0.1103913E+00
         21   -1    0    0  503  502  0.00000000000E+00  0.00000000000E+00  0.12569065108E+03  0.12569065108E+03  0.00000000000E+00 0. -1.
         21   -1    0    0  501  503 -0.00000000000E+00 -0.00000000000E+00 -0.61426027007E+03  0.61426027007E+03  0.00000000000E+00 0. -1.
          6    2    1    2  501    0  0.19825847395E+03  0.39069824597E+02 -0.35376733023E+03  0.44229691452E+03  0.17216957621E+03 0.  0.
         24    2    3    3    0    0  0.53915805111E+02  0.65326840730E+02 -0.18953321913E+03  0.22202623968E+03  0.78729281692E+02 0.  0.
         -6    2    1    2    0  502 -0.19825847395E+03 -0.39069824597E+02 -0.13480228877E+03  0.29765400663E+03  0.17202725631E+03 0.  0.
        -24    2    5    5    0    0 -0.91098874499E+02 -0.17126922986E+02 -0.13175972623E+03  0.18812767247E+03  0.97154821128E+02 0.  0.
          5    1    3    3  501    0  0.14434266884E+03 -0.26257016132E+02 -0.16423411110E+03  0.22027067484E+03  0.47000000000E+01 0. -1.
        -11    1    4    4    0    0 -0.89957915396E+01 -0.16050126550E+01  0.22227365949E+01  0.94043016230E+01  0.00000000000E+00 0.  1.
         12    1    4    4    0    0  0.62911596650E+02  0.66931853385E+02 -0.19175595572E+03  0.21262193806E+03  0.00000000000E+00 0. -1.
         -5    1    5    5    0  502 -0.10715959945E+03 -0.21942901612E+02 -0.30425625399E+01  0.10952633415E+03  0.47000000000E+01 0.  1.
         13    1    6    6    0    0  0.18118851685E+02 -0.15664783308E+02 -0.33675383978E+02  0.41324444443E+02  0.00000000000E+00 0. -1.
        -14    1    6    6    0    0 -0.10921772618E+03 -0.14621396781E+01 -0.98084342249E+02  0.14680322803E+03  0.00000000000E+00 0.  1.
</event>
<event>
12    1  0.1046899E+000  0.2667340E+03  0.7818608E-02  0.1103716E+00
         21   -1    0    0  501  502  0.00000000000E+00  0.00000000000E+00  0.70317377376E+03  0.70317377376E+03  0.00000000000E+00 0.  1.
         21   -1    0    0  502  503 -0.00000000000E+00 -0.00000000000E+00 -0.30809415710E+03  0.30809415710E+03  0.00000000000E+00 0.  1.
         -6    2    1    2    0  503  0.19916137877E+03 -0.50127833361E+01  0.61287690929E+03  0.66690953115E+03  0.17163867280E+03 0.  0.
        -24    2    3    3    0    0  0.16152050687E+03  0.51162055768E+02  0.36446263888E+03  0.40941353598E+03  0.77974343268E+02 0.  0.
          6    2    1    2  501    0 -0.19916137877E+03  0.50127833361E+01 -0.21779729263E+03  0.34435839972E+03  0.17736026609E+03 0.  0.
         24    2    5    5    0    0 -0.18218814060E+03 -0.38275164813E+02 -0.21793244504E+03  0.29762462676E+03  0.80177060521E+02 0.  0.
          5    1    5    5  501    0 -0.16973238165E+02  0.43287948149E+02  0.13515240732E+00  0.46733772959E+02  0.47000000000E+01 0. -1.
        -13    1    6    6    0    0  0.36286153568E+00 -0.68070452396E+01 -0.40652581771E+02  0.41220139956E+02  0.00000000000E+00 0.  1.
         14    1    6    6    0    0 -0.18255100214E+03 -0.31468119574E+02 -0.17727986327E+03  0.25640448680E+03  0.00000000000E+00 0. -1.
         -5    1    3    3    0  503  0.37640871896E+02 -0.56174839104E+02  0.24841427041E+03  0.25749599517E+03  0.47000000000E+01 0.  1.
         13    1    4    4    0    0  0.16357434893E+03  0.37175359664E+02  0.30288360133E+03  0.34623265437E+03  0.00000000000E+00 0. -1.
        -14    1    4    4    0    0 -0.20538420598E+01  0.13986696104E+02  0.61579037549E+02  0.63180881606E+02  0.00000000000E+00 0.  1.
</event>
<event>
12    1  0.1046899E+000  0.2139379E+03  0.7818608E-02  0.1138641E+00
         21   -1    0    0  501  502  0.00000000000E+00  0.00000000000E+00  0.24290586041E+03  0.24290586041E+03  0.00000000000E+00 0. -1.
         21   -1    0    0  502  503 -0.00000000000E+00 -0.00000000000E+00 -0.19069497488E+03  0.19069497488E+03  0.00000000000E+00 0. -1.
         -6    2    1    2    0  503 -0.94665593878E+02  0.82166087953E+02  0.53261645565E+02  0.22046821634E+03  0.17336836751E+03 0.  0.
        -24    2    3    3    0    0 -0.10276396006E+03  0.11463016279E+03  0.64493371570E+02  0.18486286058E+03  0.79463051399E+02 0.  0.
          6    2    1    2  501    0  0.94665593878E+02 -0.82166087953E+02 -0.10507600361E+01  0.21313261895E+03  0.17237043972E+03 0.  0.
         24    2    5    5    0    0  0.10891617429E+03 -0.10921479114E+03  0.93524391171E+01  0.18049785315E+03  0.93281312418E+02 0.  0.
          5    1    5    5  501    0 -0.14250580416E+02  0.27048703188E+02 -0.10403199153E+02  0.32634765802E+02  0.47000000000E+01 0. -1.
        -13    1    6    6    0    0  0.56478760621E+01 -0.64817150153E+02  0.18715021928E+02  0.67700912134E+02  0.00000000000E+00 0.  1.
         14    1    6    6    0    0  0.10326829823E+03 -0.44397640988E+02 -0.93625828111E+01  0.11279694101E+03  0.00000000000E+00 0. -1.
         -5    1    3    3    0  503  0.80983661793E+01 -0.32464074837E+02 -0.11231726005E+02  0.35605355761E+02  0.47000000000E+01 0.  1.
         13    1    4    4    0    0 -0.99888760382E+02  0.56191303660E+02  0.46060981155E+02  0.12351858582E+03  0.00000000000E+00 0. -1.
        -14    1    4    4    0    0 -0.28751996748E+01  0.58438859131E+02  0.18432390415E+02  0.61344274762E+02  0.00000000000E+00 0.  1.
</event>
<event>
12    1  0.1046899E+000  0.1764260E+03  0.7818608E-02  0.1171331E+00
         21   -1    0    0  501  502  0.00000000000E+00  0.00000000000E+00  0.15828947864E+03  0.15828947864E+03  0.00000000000E+00 0.  1.
         21   -1    0    0  502  503 -0.00000000000E+00 -0.00000000000E+00 -0.20060089214E+03  0.20060089214E+03  0.00000000000E+00 0.  1.
         -6    2    1    2    0  503  0.32692537262E+02 -0.19876495380E+02 -0.46701388259E+02  0.18240972202E+03  0.17212905031E+03 0.  0.
        -24    2    3    3    0    0  0.25568234202E+02 -0.68531524690E+01 -0.97519812243E+02  0.12925931872E+03  0.80604946484E+02 0.  0.
          6    2    1    2  501    0 -0.32692537262E+02  0.19876495380E+02  0.43899747667E+01  0.17648064876E+03  0.17222738007E+03 0.  0.
         24    2    5    5    0    0 -0.51856571942E+02 -0.40278915802E+02 -0.20372336896E+02  0.10850127101E+03  0.83940446681E+02 0.  0.
          5    1    5    5  501    0  0.19164034679E+02  0.60155411182E+02  0.24762311663E+02  0.67979377745E+02  0.47000000000E+01 0. -1.
        -11    1    6    6    0    0 -0.14133209738E+02  0.22861279531E+02 -0.22301878818E+02  0.34925055735E+02  0.00000000000E+00 0.  1.
         12    1    6    6    0    0 -0.37723362204E+02 -0.63140195333E+02  0.19295419219E+01  0.73576215278E+02  0.00000000000E+00 0. -1.
         -5    1    3    3    0  503  0.71243030602E+01 -0.13023342911E+02  0.50818423984E+02  0.53150403300E+02  0.47000000000E+01 0.  1.
         13    1    4    4    0    0  0.34700361932E+02  0.30591739226E+02 -0.55119336065E+02  0.71959091402E+02  0.00000000000E+00 0. -1.
        -14    1    4    4    0    0 -0.91321277301E+01 -0.37444891695E+02 -0.42400476178E+02  0.57300227321E+02  0.00000000000E+00 0.  1.
</event>
<event>
12    1  0.1046899E+000  0.1948268E+03  0.7818608E-02  0.1154460E+00
         21   -1    0    0  503  502  0.00000000000E+00  0.00000000000E+00  0.55613077350E+03  0.55613077350E+03  0.00000000000E+00 0.  1.
         21   -1    0    0  501  503 -0.00000000000E+00 -0.00000000000E+00 -0.75982486572E+02  0.75982486572E+02  0.00000000000E+00 0.  1.
          6    2    1    2  501    0 -0.19530918758E+02 -0.90382558210E+02  0.34447574215E+03  0.39575375407E+03  0.17148479034E+03 0.  0.
         24    2    3    3    0    0 -0.25186487188E+02 -0.10563016743E+03  0.15680074422E+03  0.20731684185E+03  0.81250896104E+02 0.  0.
         -6    2    1    2    0  502  0.19530918758E+02  0.90382558210E+02  0.13567254478E+03  0.23635950600E+03  0.17002444840E+03 0.  0.
        -24    2    5    5    0    0  0.62436932253E+02  0.87868946754E+02  0.53908716577E+02  0.14386811268E+03  0.78565652859E+02 0.  0.
          5    1    3    3  501    0  0.56555684299E+01  0.15247609221E+02  0.18767499793E+03  0.18843691222E+03  0.47000000000E+01 0. -1.
        -11    1    4    4    0    0  0.17530716215E+02 -0.65214655297E+02  0.45476094071E+02  0.81414694058E+02  0.00000000000E+00 0.  1.
         12    1    4    4    0    0 -0.42717203403E+02 -0.40415512133E+02  0.11132465015E+03  0.12590214779E+03  0.00000000000E+00 0. -1.
         -5    1    5    5    0  502 -0.42906013495E+02  0.25136114566E+01  0.81763828200E+02  0.92491393322E+02  0.47000000000E+01 0.  1.
         11    1    6    6    0    0  0.22201725055E+02  0.40316319830E+02 -0.17381593269E+02  0.49197988014E+02  0.00000000000E+00 0. -1.
        -12    1    6    6    0    0  0.40235207197E+02  0.47552626924E+02  0.71290309846E+02  0.94670124662E+02  0.00000000000E+00 0.  1.
</event>
<event>
12    1  0.1046899E+000  0.1837708E+03  0.7818608E-02  0.1164402E+00
         21   -1    0    0  503  502  0.00000000000E+00  0.00000000000E+00  0.11531633331E+03  0.11531633331E+03  0.00000000000E+00 0. -1.
         21   -1    0    0  501  503 -0.00000000000E+00 -0.00000000000E+00 -0.36557065817E+03  0.36557065817E+03  0.00000000000E+00 0. -1.
          6    2    1    2  501    0  0.59856897123E+02 -0.17735270737E+02 -0.16678701262E+02  0.18368457447E+03  0.17194317626E+03 0.  0.
         24    2    3    3    0    0  0.67322813755E+01 -0.44879494788E+02  0.42593814571E+02  0.99456581320E+02  0.77575033763E+02 0.  0.
         -6    2    1    2    0  502 -0.59856897123E+02  0.17735270737E+02 -0.23357562359E+03  0.29720241701E+03  0.17284188375E+03 0.  0.
        -24    2    5    5    0    0 -0.11345620498E+02 -0.30823649188E+02 -0.20550718469E+03  0.22289737057E+03  0.79819887208E+02 0.  0.
          5    1    3    3  501    0  0.53124615747E+02  0.27144224051E+02 -0.59272515833E+02  0.84227993154E+02  0.47000000000E+01 0. -1.
        -11    1    4    4    0    0  0.76289169947E+01 -0.12802153069E+02 -0.22439226557E+02  0.26937230485E+02  0.00000000000E+00 0.  1.
         12    1    4    4    0    0 -0.89663561922E+00 -0.32077341719E+02  0.65033041128E+02  0.72519350836E+02  0.00000000000E+00 0. -1.
         -5    1    5    5    0  502 -0.48511276625E+02  0.48558919925E+02 -0.28068438903E+02  0.74305046441E+02  0.47000000000E+01 0.  1.
         11    1    6    6    0    0  0.68369357889E+01 -0.22819701432E+02 -0.91200872191E+01  0.25508007670E+02  0.00000000000E+00 0. -1.
        -12    1    6    6    0    0 -0.18182556287E+02 -0.80039477559E+01 -0.19638709747E+03  0.19738936290E+03  0.00000000000E+00 0.  1.
</event>
<event>
12    1  0.1046899E+000  0.1856660E+03  0.7818608E-02  0.1163437E+00
         21   -1    0    0  501  502  0.00000000000E+00  0.00000000000E+00  0.95924661137E+02  0.95924661137E+02  0.00000000000E+00 0.  1.
         21   -1    0    0  502  503 -0.00000000000E+00 -0.00000000000E+00 -0.35249475458E+03  0.35249475458E+03  0.00000000000E+00 0.  1.
         -6    2    1    2    0  503 -0.58490152559E+01 -0.64048775693E+02 -0.14377727999E+03  0.23482707120E+03  0.17417057869E+03 0.  0.
        -24    2    3    3    0    0  0.52423432220E+02 -0.29723089738E+02 -0.33103042372E+02  0.10503952279E+03  0.79409140687E+02 0.  0.
          6    2    1    2  501    0  0.58490152559E+01  0.64048775693E+02 -0.11279281345E+03  0.21359234451E+03  0.16959662208E+03 0.  0.
         24    2    5    5    0    0 -0.32208906357E+02 -0.16028427647E+02 -0.39018020717E+02  0.98155894742E+02  0.82570270621E+02 0.  0.
          5    1    5    5  501    0  0.38057921613E+02  0.80077203340E+02 -0.73774792735E+02  0.11543644977E+03  0.47000000000E+01 0. -1.
        -13    1    6    6    0    0 -0.95430621807E+01  0.24021347338E+02  0.12808508708E+02  0.28847063265E+02  0.00000000000E+00 0.  1.
         14    1    6    6    0    0 -0.22665844176E+02 -0.40049774985E+02 -0.51826529425E+02  0.69308831477E+02  0.00000000000E+00 0. -1.
         -5    1    3    3    0  503 -0.58272447476E+02 -0.34325685954E+02 -0.11067423762E+03  0.12978754841E+03  0.47000000000E+01 0.  1.
         11    1    4    4    0    0  0.45089135988E+02  0.58400904981E+01 -0.47706137071E+02  0.65901535304E+02  0.00000000000E+00 0. -1.
        -12    1    4    4    0    0  0.73342962317E+01 -0.35563180236E+02  0.14603094699E+02  0.39137987487E+02  0.00000000000E+00 0.  1.
</event>
<event>
12    1  0.1046899E+000  0.3447313E+03  0.7818608E-02  0.1064834E+00
         21   -1    0    0  501  502  0.00000000000E+00  0.00000000000E+00  0.11275555411E+03  0.11275555411E+03  0.00000000000E+00 0. -1.
         21   -1    0    0  502  503 -0.00000000000E+00 -0.00000000000E+00 -0.11401219707E+04  0.11401219707E+04  0.00000000000E+00 0. -1.
         -6    2    1    2    0  503  0.13796341518E+03  0.26462495550E+03 -0.34066567847E+03  0.48465736156E+03  0.17256703805E+03 0.  0.
        -24    2    3    3    0    0  0.56119199858E+01  0.65582027429E+02 -0.12893913699E+03  0.16530610688E+03  0.79801703971E+02 0.  0.
          6    2    1    2  501    0 -0.13796341518E+03 -0.26462495550E+03 -0.68670073811E+03  0.76822016324E+03  0.17188381102E+03 0.  0.
         24    2    5    5    0    0 -0.37839157275E+02 -0.19718956959E+03 -0.51189076499E+03  0.55572777515E+03  0.80533698647E+02 0.  0.
          5    1    5    5  501    0 -0.10012425790E+03 -0.67435385914E+02 -0.17480997313E+03  0.21249238809E+03  0.47000000000E+01 0. -1.
        -11    1    6    6    0    0 -0.35919248181E+02 -0.20068543546E+03 -0.45371504025E+03  0.49741549447E+03  0.00000000000E+00 0.  1.
         12    1    6    6    0    0 -0.19199090949E+01  0.34958658666E+01 -0.58175724739E+02  0.58312280679E+02  0.00000000000E+00 0. -1.
         -5    1    3    3    0  503  0.13235149519E+03  0.19904292808E+03 -0.21172654148E+03  0.31935125468E+03  0.47000000000E+01 0.  1.
         13    1    4    4    0    0 -0.15237506141E+02  0.64182957681E+02 -0.12845599053E+03  0.14440420753E+03  0.00000000000E+00 0. -1.
        -14    1    4    4    0    0  0.20849426127E+02  0.13990697482E+01 -0.48314646349E+00  0.20901899351E+02  0.00000000000E+00 0.  1.
</event>
<event>
12    1  0.1046899E+000  0.1747995E+03  0.7818608E-02  0.1173459E+00
         21   -1    0    0  501  502  0.00000000000E+00  0.00000000000E+00  0.34178859103E+02  0.34178859103E+02  0.00000000000E+00 0. -1.
         21   -1    0    0  502  503 -0.00000000000E+00 -0.00000000000E+00 -0.13958289134E+04  0.13958289134E+04  0.00000000000E+00 0. -1.
         -6    2    1    2    0  503 -0.29482763764E+02  0.84867706174E+01 -0.11114747175E+04  0.11248150878E+04  0.16997551404E+03 0.  0.
        -24    2    3    3    0    0 -0.13382579213E+02  0.69265382892E+02 -0.58657662199E+03  0.59614377558E+03  0.79614577823E+02 0.  0.
          6    2    1    2  501    0  0.29482763764E+02 -0.84867706174E+01 -0.25017533674E+03  0.30519268469E+03  0.17208607451E+03 0.  0.
         24    2    5    5    0    0  0.85331043644E+02 -0.98938314974E-01 -0.14511593946E+03  0.18582370608E+03  0.78679203470E+02 0.  0.
          5    1    5    5  501    0 -0.55848279880E+02 -0.83878323024E+01 -0.10505939728E+03  0.11936897861E+03  0.47000000000E+01 0. -1.
        -11    1    6    6    0    0  0.48638901489E+02  0.20771306190E+02 -0.13106588932E+03  0.14133455785E+03  0.00000000000E+00 0.  1.
         12    1    6    6    0    0  0.36692142155E+02 -0.20870244505E+02 -0.14050050139E+02  0.44489148234E+02  0.00000000000E+00 0. -1.
         -5    1    3    3    0  503 -0.16100184551E+02 -0.60778612274E+02 -0.52489809556E+03  0.52867131223E+03  0.47000000000E+01 0.  1.
         11    1    4    4    0    0 -0.46503236074E+02  0.38748645879E+02 -0.29945119356E+03  0.30550781634E+03  0.00000000000E+00 0. -1.
        -12    1    4    4    0    0  0.33120656861E+02  0.30516737013E+02 -0.28712542843E+03  0.29063595924E+03  0.00000000000E+00 0.  1.
</event>
<event>
12    1  0.1046899E+000  0.1852216E+03  0.7818608E-02  0.1163197E+00
         21   -1    0    0  503  502  0.00000000000E+00  0.00000000000E+00  0.45876897677E+03  0.45876897677E+03  0.00000000000E+00 0. -1.
         21   -1    0    0  501  503 -0.00000000000E+00 -0.00000000000E+00 -0.78298791165E+02  0.78298791165E+02  0.00000000000E+00 0. -1.
          6    2    1    2  501    0  0.67152383909E+02 -0.12129957027E+02  0.25263057250E+03  0.31325587398E+03  0.17219308319E+03 0.  0.
         24    2    3    3    0    0  0.16746862593E+02  0.45460443747E+02  0.83576752832E+02  0.12762544871E+03  0.83403070645E+02 0.  0.
         -6    2    1    2    0  502 -0.67152383909E+02  0.12129957027E+02  0.12783961310E+03  0.22381189395E+03  0.17056441209E+03 0.  0.
        -24    2    5    5    0    0 -0.49460220961E+02 -0.54674132077E+02  0.51824581148E+02  0.12097136675E+03  0.80701364223E+02 0.  0.
          5    1    3    3  501    0  0.50405521316E+02 -0.57590400774E+02  0.16905381967E+03  0.18563042527E+03  0.47000000000E+01 0. -1.
        -13    1    4    4    0    0 -0.29866408427E+02  0.22642468613E+02  0.12279318826E+02  0.39439389043E+02  0.00000000000E+00 0.  1.
         14    1    4    4    0    0  0.46613271020E+02  0.22817975134E+02  0.71297434006E+02  0.88186059671E+02  0.00000000000E+00 0. -1.
         -5    1    5    5    0  502 -0.17692162948E+02  0.66804089104E+02  0.76015031950E+02  0.10284052719E+03  0.47000000000E+01 0.  1.
         11    1    6    6    0    0 -0.24313964492E+02  0.65791062478E+01 -0.12967724171E+02  0.28330467319E+02  0.00000000000E+00 0. -1.
        -12    1    6    6    0    0 -0.25146256469E+02 -0.61253238325E+02  0.64792305319E+02  0.92640899436E+02  0.00000000000E+00 0.  1.
</event>
<event>
12    1  0.1046899E+000  0.1719985E+03  0.7818608E-02  0.1176452E+00
         21   -1    0    0  503  502  0.00000000000E+00  0.00000000000E+00  0.50794049917E+03  0.50794049917E+03  0.00000000000E+00 0.  1.
         21   -1    0    0  501  503 -0.00000000000E+00 -0.00000000000E+00 -0.11525022492E+03  0.11525022492E+03  0.00000000000E+00 0.  1.
          6    2    1    2  501    0  0.73485044193E+01 -0.11534305109E+02  0.41642494367E+03  0.44956229192E+03  0.16884750487E+03 0.  0.
         24    2    3    3    0    0 -0.52525050080E+02 -0.39403268196E+02  0.23189544051E+03  0.25351446825E+03  0.78629459188E+02 0.  0.
         -6    2    1    2    0  502 -0.73485044193E+01  0.11534305109E+02 -0.23734669417E+02  0.17362843217E+03  0.17145395071E+03 0.  0.
        -24    2    5    5    0    0 -0.22223087082E+02 -0.22385946651E+02  0.44745917684E+02  0.95631525187E+02  0.78410428217E+02 0.  0.
          5    1    3    3  501    0  0.59873554499E+02  0.27868963087E+02  0.18452950316E+03  0.19604782368E+03  0.47000000000E+01 0. -1.
        -11    1    4    4    0    0 -0.35716712382E+02 -0.18302480825E+02  0.30726765457E+02  0.50545014227E+02  0.00000000000E+00 0.  1.
         12    1    4    4    0    0 -0.16808337698E+02 -0.21100787371E+02  0.20116867505E+03  0.20296945402E+03  0.00000000000E+00 0. -1.
         -5    1    5    5    0  502  0.14874582663E+02  0.33920251760E+02 -0.68480587101E+02  0.77996906981E+02  0.47000000000E+01 0.  1.
         11    1    6    6    0    0 -0.32894786722E+02 -0.28035122635E+02 -0.58498812093E+01  0.43614862201E+02  0.00000000000E+00 0. -1.
        -12    1    6    6    0    0  0.10671699640E+02  0.56491759841E+01  0.50595798893E+02  0.52016662986E+02  0.00000000000E+00 0.  1.
</event>
<event>
12    1  0.1046899E+000  0.2188561E+03  0.7818608E-02  0.1136356E+00
         21   -1    0    0  503  502  0.00000000000E+00  0.00000000000E+00  0.80464422759E+02  0.80464422759E+02  0.00000000000E+00 0.  1.
         21   -1    0    0  501  503 -0.00000000000E+00 -0.00000000000E+00 -0.69606663061E+03  0.69606663061E+03  0.00000000000E+00 0. -1.
          6    2    1    2  501    0  0.96683573615E+02  0.72352902309E+02 -0.47631792284E+03  0.52419151256E+03  0.18252485404E+03 0.  0.
         24    2    3    3    0    0  0.13005256084E+03  0.86148945312E+02 -0.33700041546E+03  0.38019401962E+03  0.81504007098E+02 0.  0.
         -6    2    1    2    0  502 -0.96683573615E+02 -0.72352902309E+02 -0.13928428501E+03  0.25233954081E+03  0.17231504845E+03 0.  0.
        -24    2    5    5    0    0 -0.51492152850E+02 -0.73566934312E+02 -0.19527731858E+02  0.12424793137E+03  0.83622248891E+02 0.  0.
          5    1    3    3  501    0 -0.33368987228E+02 -0.13796043003E+02 -0.13931750738E+03  0.14399749294E+03  0.47000000000E+01 0. -1.
        -13    1    4    4    0    0  0.66857712243E+02  0.90629031246E+02 -0.21910860361E+03  0.24635777879E+03  0.00000000000E+00 0.  1.
         14    1    4    4    0    0  0.63194848600E+02 -0.44800859347E+01 -0.11789181184E+03  0.13383624083E+03  0.00000000000E+00 0. -1.
         -5    1    5    5    0  502 -0.45191420765E+02  0.12140320035E+01 -0.11975655315E+03  0.12809160943E+03  0.47000000000E+01 0.  1.
         13    1    6    6    0    0  0.17362206458E+02 -0.12992175953E+02 -0.24108575138E+02  0.32426320239E+02  0.00000000000E+00 0. -1.
        -14    1    6    6    0    0 -0.68854359307E+02 -0.60574758359E+02  0.45808432798E+01  0.91821611133E+02  0.00000000000E+00 0.  1.
</event>
<event>
12    1  0.1046899E+000  0.2629877E+03  0.7818608E-02  0.1105526E+00
         21   -1    0    0  501  502  0.00000000000E+00  0.00000000000E+00  0.59328055845E+03  0.59328055845E+03  0.00000000000E+00 0. -1.
         21   -1    0    0  502  503 -0.00000000000E+00 -0.00000000000E+00 -0.37880142123E+03  0.37880142123E+03  0.00000000000E+00 0. -1.
         -6    2    1    2    0  503 -0.63867227174E+02 -0.18807715969E+03  0.51208141834E+03  0.57566473269E+03  0.17236723805E+03 0.  0.
        -24    2    3    3    0    0 -0.42306208971E+02 -0.15207047736E+03  0.50215121326E+03  0.53228204431E+03  0.79076471297E+02 0.  0.
          6    2    1    2  501    0  0.63867227174E+02  0.18807715969E+03 -0.29760228112E+03  0.39641724699E+03  0.17066773358E+03 0.  0.
         24    2    5    5    0    0  0.87554045549E+01  0.22270597194E+02 -0.62968557004E+02  0.10383528643E+03  0.79019560413E+02 0.  0.
          5    1    5    5  501    0  0.55111822619E+02  0.16580656249E+03 -0.23463372411E+03  0.29258196057E+03  0.47000000000E+01 0. -1.
        -11    1    6    6    0    0  0.26603148831E+02  0.41135579671E+02 -0.18551669059E+02  0.52383469410E+02  0.00000000000E+00 0.  1.
         12    1    6    6    0    0 -0.17847744276E+02 -0.18864982477E+02 -0.44416887945E+02  0.51451817017E+02  0.00000000000E+00 0. -1.
         -5    1    3    3    0  503 -0.21561018202E+02 -0.36006682331E+02  0.99302050786E+01  0.43382688382E+02  0.47000000000E+01 0.  1.
         13    1    4    4    0    0 -0.75050957895E+01 -0.55646378968E+02  0.79199522524E+02  0.97084552443E+02  0.00000000000E+00 0. -1.
        -14    1    4    4    0    0 -0.34801113182E+02 -0.96424098388E+02  0.42295169074E+03  0.43519749186E+03  0.00000000000E+00 0.  1.
</event>
<event>
12    1  0.1046899E+000  0.3666332E+03  0.7818608E-02  0.1056077E+00
         21   -1    0    0  503  502  0.00000000000E+00  0.00000000000E+00  0.94571160450E+02  0.94571160450E+02  0.00000000000E+00 0. -1.
         21   -1    0    0  501  503 -0.00000000000E+00 -0.00000000000E+00 -0.14501918930E+04  0.14501918930E+04  0.00000000000E+00 0. -1.
          6    2    1    2  501    0  0.66684779817E+02 -0.31651841065E+03 -0.56153939001E+03  0.67012881346E+03  0.17063228288E+03 0.  0.
         24    2    3    3    0    0  0.45321311675E+02 -0.91499225217E+02 -0.28532967912E+03  0.31319194794E+03  0.79057200541E+02 0.  0.
         -6    2    1    2    0  502 -0.66684779817E+02  0.31651841065E+03 -0.79408134249E+03  0.87463423994E+03  0.17259522311E+03 0.  0.
        -24    2    5    5    0    0  0.15572940346E+02  0.20067213929E+03 -0.56153637751E+03  0.60207976492E+03  0.81640162310E+02 0.  0.
          5    1    3    3  501    0  0.21363468141E+02 -0.22501918543E+03 -0.27620971089E+03  0.35693686553E+03  0.47000000000E+01 0. -1.
        -11    1    4    4    0    0  0.10992706192E+02  0.36810544759E+01 -0.11117651103E+03  0.11177927516E+03  0.00000000000E+00 0.  1.
         12    1    4    4    0    0  0.34328605484E+02 -0.95180279693E+02 -0.17415316809E+03  0.20141267277E+03  0.00000000000E+00 0. -1.
         -5    1    5    5    0  502 -0.82257720163E+02  0.11584627136E+03 -0.23254496499E+03  0.27255447502E+03  0.47000000000E+01 0.  1.
         11    1    6    6    0    0 -0.17553625555E+02  0.32774702511E+02 -0.18179560899E+03  0.18555849305E+03  0.00000000000E+00 0. -1.
        -12    1    6    6    0    0  0.33126565901E+02  0.16789743678E+03 -0.37974076852E+03  0.41652127187E+03  0.00000000000E+00 0.  1.
</event>
<event>
12    1  0.1046899E+000  0.2097397E+03  0.7818608E-02  0.1141822E+00
         21   -1    0    0  503  502  0.00000000000E+00  0.00000000000E+00  0.60589473519E+03  0.60589473519E+03  0.00000000000E+00 0. -1.
         21   -1    0    0  501  503 -0.00000000000E+00 -0.00000000000E+00 -0.80300957951E+02  0.80300957951E+02  0.00000000000E+00 0. -1.
          6    2    1    2  501    0  0.98019724237E+02 -0.69203640453E+02  0.36947400868E+03  0.42473038146E+03  0.17172024824E+03 0.  0.
         24    2    3    3    0    0  0.16773842688E+01  0.34205581451E+01  0.92752059553E+02  0.12281441994E+03  0.80410965408E+02 0.  0.
         -6    2    1    2    0  502 -0.98019724237E+02  0.69203640453E+02  0.15611976856E+03  0.26146531168E+03  0.17202824444E+03 0.  0.
        -24    2    5    5    0    0 -0.71785037009E+02  0.23408622137E+02  0.17743305159E+02  0.11329116367E+03  0.82577283548E+02 0.  0.
          5    1    3    3  501    0  0.96342339968E+02 -0.72624198598E+02  0.27672194912E+03  0.30191596152E+03  0.47000000000E+01 0. -1.
        -11    1    4    4    0    0 -0.22317554288E+00 -0.31570588077E+02  0.79167860016E+02  0.85230874091E+02  0.00000000000E+00 0.  1.
         12    1    4    4    0    0  0.19005598116E+01  0.34991146222E+02  0.13584199537E+02  0.37583545849E+02  0.00000000000E+00 0. -1.
         -5    1    5    5    0  502 -0.26234687228E+02  0.45795018316E+02  0.13837646340E+03  0.14817414802E+03  0.47000000000E+01 0.  1.
         11    1    6    6    0    0  0.57562038548E+01 -0.20792003707E+02 -0.26512544237E+01  0.21736385417E+02  0.00000000000E+00 0. -1.
        -12    1    6    6    0    0 -0.77541240864E+02  0.44200625844E+02  0.20394559583E+02  0.91554778250E+02  0.00000000000E+00 0.  1.
</event>
<event>
12    1  0.1046899E+000  0.3122749E+03  0.7818608E-02  0.1079291E+00
         21   -1    0    0  501  502  0.00000000000E+00  0.00000000000E+00  0.36239147712E+03  0.36239147712E+03  0.00000000000E+00 0.  1.
         21   -1    0    0  502  503 -0.00000000000E+00 -0.00000000000E+00 -0.27350115545E+03  0.27350115545E+03  0.00000000000E+00 0.  1.
         -6    2    1    2    0  503  0.26014583477E+03  0.10284433914E+02  0.85844824607E+02  0.32385940915E+03  0.17243537357E+03 0.  0.
        -24    2    3    3    0    0  0.20651345182E+03  0.53597912635E+02  0.10864685981E+03  0.25109600661E+03  0.75660573406E+02 0.  0.
          6    2    1    2  501    0 -0.26014583477E+03 -0.10284433914E+02  0.30454970613E+01  0.31203322341E+03  0.17197044087E+03 0.  0.
         24    2    5    5    0    0 -0.38536045861E+02  0.15851676270E+02 -0.69116577855E+01  0.88616058165E+02  0.77902068524E+02 0.  0.
          5    1    5    5  501    0 -0.22160978891E+03 -0.26136110184E+02  0.99571548468E+01  0.22341716525E+03  0.47000000000E+01 0. -1.
        -13    1    6    6    0    0  0.60481348119E+01 -0.25754574585E+02  0.37153526502E+01  0.26714825324E+02  0.00000000000E+00 0.  1.
         14    1    6    6    0    0 -0.44584180673E+02  0.41606250855E+02 -0.10627010436E+02  0.61901232841E+02  0.00000000000E+00 0. -1.
         -5    1    3    3    0  503  0.53632382946E+02 -0.43313478722E+02 -0.22802035206E+02  0.72763402539E+02  0.47000000000E+01 0.  1.
         11    1    4    4    0    0  0.15676774575E+03  0.36959337118E+02  0.11549704149E+03  0.19819607791E+03  0.00000000000E+00 0. -1.
        -12    1    4    4    0    0  0.49745706068E+02  0.16638575517E+02 -0.68501816724E+01  0.52899928699E+02  0.00000000000E+00 0.  1.
</event>
<event>
12    1  0.1046899E+000  0.5908843E+03  0.7818608E-02  0.9924843E-01
         21   -1    0    0  501  502  0.00000000000E+00  0.00000000000E+00  0.60303535059E+03  0.60303535059E+03  0.00000000000E+00 0. -1.
         21   -1    0    0  502  503 -0.00000000000E+00 -0.00000000000E+00 -0.62904045105E+03  0.62904045105E+03  0.00000000000E+00 0. -1.
         -6    2    1    2    0  503 -0.25865650281E+03  0.50313127778E+03  0.16187771538E+03  0.61265702114E+03  0.17058710880E+03 0.  0.
        -24    2    3    3    0    0 -0.83274961020E+02  0.11042013580E+03  0.29045935298E+02  0.16249360855E+03  0.80207112768E+02 0.  0.
          6    2    1    2  501    0  0.25865650281E+03 -0.50313127778E+03 -0.18788281583E+03  0.61941878050E+03  0.16833123306E+03 0.  0.
         24    2    5    5    0    0  0.12055424360E+03 -0.17161797701E+03 -0.11975721736E+03  0.25385553049E+03  0.78197081592E+02 0.  0.
          5    1    5    5  501    0  0.13810225921E+03 -0.33151330077E+03 -0.68125598469E+02  0.36556325001E+03  0.47000000000E+01 0. -1.
        -11    1    6    6    0    0  0.76636339750E+02 -0.42997721539E+02 -0.44515236348E+02  0.98506542396E+02  0.00000000000E+00 0.  1.
         12    1    6    6    0    0  0.43917903848E+02 -0.12862025547E+03 -0.75241981014E+02  0.15534898810E+03  0.00000000000E+00 0. -1.
         -5    1    3    3    0  503 -0.17538154179E+03  0.39271114198E+03  0.13283178008E+03  0.45016341259E+03  0.47000000000E+01 0.  1.
         13    1    4    4    0    0 -0.24375457465E+02 -0.14072330060E+01  0.26562058007E+02  0.36078887967E+02  0.00000000000E+00 0. -1.
        -14    1    4    4    0    0 -0.58899503556E+02  0.11182736881E+03  0.24838772912E+01  0.12641472058E+03  0.00000000000E+00 0.  1.
</event>
<event>
12    1  0.1058624E+000  0.1723225E+03  0.7818608E-02  0.1175715E+00
         21   -1    0    0  503  502  0.00000000000E+00  0.00000000000E+00  0.90317401025E+03  0.90317401025E+03  0.00000000000E+00 0.  1.
         21   -1    0    0  501  503 -0.00000000000E+00 -0.00000000000E+00 -0.11309574078E+03  0.11309574078E+03  0.00000000000E+00 0.  1.
          6    2    1    2  501    0 -0.73965172021E+01 -0.11626960932E+02  0.82316821019E+03  0.84079902310E+03  0.17072551153E+03 0.  0.
         24    2    3    3    0    0 -0.61751497126E+02 -0.36812356443E+02  0.45363874435E+03  0.46641568464E+03  0.81160849668E+02 0.  0.
         -6    2    1    2    0  502  0.73965172021E+01  0.11626960932E+02 -0.33089940729E+02  0.17547072793E+03  0.17177059555E+03 0.  0.
        -24    2    5    5    0    0 -0.21215149836E+02  0.59667209645E+02 -0.54300827583E+02  0.11548335669E+03  0.79859672587E+02 0.  0.
          5    1    3    3  501    0  0.54354979924E+02  0.25185395511E+02  0.36952946585E+03  0.37438333846E+03  0.47000000000E+01 0. -1.
        -13    1    4    4    0    0 -0.30649650947E+01 -0.23776091693E+02  0.30696877902E+03  0.30790343915E+03  0.00000000000E+00 0.  1.
         14    1    4    4    0    0 -0.58686532032E+02 -0.13036264750E+02  0.14666996533E+03  0.15851224549E+03  0.00000000000E+00 0. -1.
         -5    1    5    5    0  502  0.28611667039E+02 -0.48040248714E+02  0.21210886854E+02  0.59987371240E+02  0.47000000000E+01 0.  1.
         13    1    6    6    0    0 -0.32669483158E+01  0.10104191597E+02  0.21019563737E+02  0.23549728211E+02  0.00000000000E+00 0. -1.
        -14    1    6    6    0    0 -0.17948201521E+02  0.49563018049E+02 -0.75320391320E+02  0.91933628474E+02  0.00000000000E+00 0.  1.
</event>
<event>
12    1  0.1046899E+000  0.1741537E+03  0.7818608E-02  0.1174113E+00
         21   -1    0    0  503  502  0.00000000000E+00  0.00000000000E+00  0.67940129484E+03  0.67940129484E+03  0.00000000000E+00 0. -1.
         21   -1    0    0  501  503 -0.00000000000E+00 -0.00000000000E+00 -0.46325518142E+02  0.46325518142E+02  0.00000000000E+00 0. -1.
          6    2    1    2  501    0 -0.15965097089E+02  0.31261196210E+02  0.39408633974E+03  0.43001502440E+03  0.16845394422E+03 0.  0.
         24    2    3    3    0    0 -0.49667157733E+02 -0.11542667275E+02  0.34164659571E+03  0.35425212863E+03  0.78562806432E+02 0.  0.
         -6    2    1    2    0  502  0.15965097089E+02 -0.31261196210E+02  0.23898943695E+03  0.29571178858E+03  0.17057949530E+03 0.  0.
        -24    2    5    5    0    0 -0.20166516600E+02  0.16149079101E+02  0.58162182977E+02  0.10525493391E+03  0.83834840223E+02 0.  0.
          5    1    3    3  501    0  0.33702060644E+02  0.42803863485E+02  0.52439744036E+02  0.75762895770E+02  0.47000000000E+01 0. -1.
        -13    1    4    4    0    0  0.12773483274E+02  0.10102294841E+02  0.19543339936E+02  0.25439346923E+02  0.00000000000E+00 0.  1.
         14    1    4    4    0    0 -0.62440641007E+02 -0.21644962116E+02  0.32210325577E+03  0.32881278171E+03  0.00000000000E+00 0. -1.
         -5    1    5    5    0  502  0.36131613689E+02 -0.47410275311E+02  0.18082725398E+03  0.19045685468E+03  0.47000000000E+01 0.  1.
         11    1    6    6    0    0  0.31539383403E+02 -0.41877019622E+01  0.25747343897E+02  0.40929149404E+02  0.00000000000E+00 0. -1.
        -12    1    6    6    0    0 -0.51705900003E+02  0.20336781064E+02  0.32414839080E+02  0.64325784501E+02  0.00000000000E+00 0.  1.
</event>
<event>
12    1  0.1046899E+000  0.2733981E+03  0.7818608E-02  0.1099572E+00
         21   -1    0    0  503  502  0.00000000000E+00  0.00000000000E+00  0.65506041555E+03  0.65506041555E+03  0.00000000000E+00 0.  1.
         21   -1    0    0  501  503 -0.00000000000E+00 -0.00000000000E+00 -0.13608389344E+03  0.13608389344E+03  0.00000000000E+00 0.  1.
          6    2    1    2  501    0 -0.10793206299E+03 -0.18205245376E+03  0.42142824794E+03  0.50234280708E+03  0.17307253253E+03 0.  0.
         24    2    3    3    0    0 -0.10445843641E+03 -0.49642391039E+02  0.19965427609E+03  0.24398206048E+03  0.79306266764E+02 0.  0.
         -6    2    1    2    0  502  0.10793206299E+03  0.18205245376E+03  0.97548274176E+02  0.28880150191E+03  0.17058199076E+03 0.  0.
        -24    2    5    5    0    0  0.33830691976E+02  0.84629361352E+02  0.11262525818E+03  0.16538481922E+03  0.79756160436E+02 0.  0.
          5    1    3    3  501    0 -0.34736265761E+01 -0.13241006272E+03  0.22177397185E+03  0.25836074660E+03  0.47000000000E+01 0. -1.
        -11    1    4    4    0    0 -0.47460944058E+02 -0.64666746698E+01  0.14858055731E+03  0.15611066941E+03  0.00000000000E+00 0.  1.
         12    1    4    4    0    0 -0.56997492353E+02 -0.43175716369E+02  0.51073718780E+02  0.87871391069E+02  0.00000000000E+00 0. -1.
         -5    1    5    5    0  502  0.74101371010E+02  0.97423092411E+02 -0.15076983999E+02  0.12341668269E+03  0.47000000000E+01 0.  1.
         11    1    6    6    0    0  0.58854609101E+02  0.70790701205E+02  0.91803398156E+02  0.13001173910E+03  0.00000000000E+00 0. -1.
        -12    1    6    6    0    0 -0.25023917125E+02  0.13838660147E+02  0.20821860019E+02  0.35373080126E+02  0.00000000000E+00 0.  1.
</event>
<event>
12    1  0.1046899E+000  0.1924262E+03  0.7818608E-02  0.1156664E+00
         21   -1    0    0  503  502  0.00000000000E+00  0.00000000000E+00  0.22478701398E+02  0.22478701398E+02  0.00000000000E+00 0. -1.
         21   -1    0    0  501  503 -0.00000000000E+00 -0.00000000000E+00 -0.22546493629E+04  0.22546493629E+04  0.00000000000E+00 0. -1.
          6    2    1    2  501    0 -0.16581242612E+02 -0.81327433237E+02 -0.52174875772E+03  0.55610214869E+03  0.17360513988E+03 0.  0.
         24    2    3    3    0    0  0.17730624308E+02 -0.23384537267E+02 -0.44737357099E+03  0.45566091310E+03  0.81379015051E+02 0.  0.
         -6    2    1    2    0  502  0.16581242612E+02  0.81327433237E+02 -0.17104219038E+04  0.17210259156E+04  0.17174988866E+03 0.  0.
        -24    2    5    5    0    0  0.39480433187E+02 -0.16714692399E+02 -0.85501966707E+03  0.85970616784E+03  0.78727240489E+02 0.  0.
          5    1    3    3  501    0 -0.34311866919E+02 -0.57942895970E+02 -0.74375186739E+02  0.10044123559E+03  0.47000000000E+01 0. -1.
        -11    1    4    4    0    0  0.19527481575E+02  0.15227106770E+02 -0.44405611863E+02  0.50843344522E+02  0.00000000000E+00 0.  1.
         12    1    4    4    0    0 -0.17968572675E+01 -0.38611644037E+02 -0.40296795912E+03  0.40481756858E+03  0.00000000000E+00 0. -1.
         -5    1    5    5    0  502 -0.22899190575E+02  0.98042125636E+02 -0.85540223672E+03  0.86131974778E+03  0.47000000000E+01 0.  1.
         11    1    6    6    0    0  0.16379713203E+02 -0.11285591000E+02 -0.43416668663E+02  0.47756326142E+02  0.00000000000E+00 0. -1.
        -12    1    6    6    0    0  0.23100719984E+02 -0.54291013992E+01 -0.81160299841E+03  0.81194984170E+03  0.00000000000E+00 0.  1.
</event>
<event>
12    1  0.1046899E+000  0.1761447E+03  0.7818608E-02  0.1171814E+00
         21   -1    0    0  503  502  0.00000000000E+00  0.00000000000E+00  0.28634404526E+03  0.28634404526E+03  0.00000000000E+00 0. -1.
         21   -1    0    0  501  503 -0.00000000000E+00 -0.00000000000E+00 -0.10785380739E+03  0.10785380739E+03  0.00000000000E+00 0. -1.
          6    2    1    2  501    0  0.18393215834E+02  0.28026356692E+02  0.84499619564E+02  0.19454518535E+03  0.17199958250E+03 0.  0.
         24    2    3    3    0    0 -0.50684810972E+02 -0.96476420708E+01  0.60730006109E+02  0.11221543074E+03  0.79007228745E+02 0.  0.
         -6    2    1    2    0  502 -0.18393215834E+02 -0.28026356692E+02  0.93990618310E+02  0.19965266730E+03  0.17292531385E+03 0.  0.
        -24    2    5    5    0    0 -0.15811376386E+01  0.39642502546E+01 -0.17942540239E+02  0.81936199082E+02  0.79833518609E+02 0.  0.
          5    1    3    3  501    0  0.69078026806E+02  0.37673998763E+02  0.23769613455E+02  0.82329754609E+02  0.47000000000E+01 0. -1.
        -11    1    4    4    0    0  0.15845655616E+02 -0.21477101301E+02  0.19527160700E+02  0.33070541079E+02  0.00000000000E+00 0.  1.
         12    1    4    4    0    0 -0.66530466589E+02  0.11829459230E+02  0.41202845409E+02  0.79144889664E+02  0.00000000000E+00 0. -1.
         -5    1    5    5    0  502 -0.16812078195E+02 -0.31990606947E+02  0.11193315855E+03  0.11771646821E+03  0.47000000000E+01 0.  1.
         11    1    6    6    0    0 -0.34824850200E+02 -0.55972842509E+01 -0.28954769052E+02  0.45634180538E+02  0.00000000000E+00 0. -1.
        -12    1    6    6    0    0  0.33243712562E+02  0.95615345055E+01  0.11012228813E+02  0.36302018545E+02  0.00000000000E+00 0.  1.
</event>
<event>
12    1  0.1046899E+000  0.2614433E+03  0.7818608E-02  0.1106468E+00
         21   -1    0    0  501  502  0.00000000000E+00  0.00000000000E+00  0.22562730599E+03  0.22562730599E+03  0.00000000000E+00 0.  1.
         21   -1    0    0  502  503 -0.00000000000E+00 -0.00000000000E+00 -0.17697979494E+04  0.17697979494E+04  0.00000000000E+00 0.  1.
         -6    2    1    2    0  503 -0.33065417297E+02 -0.19443054214E+03  0.13699928409E+03  0.29404788772E+03  0.16970208864E+03 0.  0.
        -24    2    3    3    0    0 -0.15045436618E+02 -0.17078887842E+03  0.41174738200E+02  0.19360844545E+03  0.79960395993E+02 0.  0.
          6    2    1    2  501    0  0.33065417297E+02  0.19443054214E+03 -0.16811699275E+04  0.17013773677E+04  0.17162769172E+03 0.  0.
         24    2    5    5    0    0 -0.32261868940E+02  0.40983099268E+02 -0.64861379798E+03  0.65542898335E+03  0.78529298213E+02 0.  0.
          5    1    5    5  501    0  0.65327286238E+02  0.15344744287E+03 -0.10325561295E+04  0.10459483843E+04  0.47000000000E+01 0. -1.
        -13    1    6    6    0    0  0.13594372115E+01  0.54807339952E+02 -0.46744320627E+03  0.47064726035E+03  0.00000000000E+00 0.  1.
         14    1    6    6    0    0 -0.33621306152E+02 -0.13824240684E+02 -0.18117059171E+03  0.18478172300E+03  0.00000000000E+00 0. -1.
         -5    1    3    3    0  503 -0.18019980680E+02 -0.23641663719E+02  0.95824545894E+02  0.10043944227E+03  0.47000000000E+01 0.  1.
         11    1    4    4    0    0  0.20123218572E+02 -0.14284429200E+03  0.30768321882E+02  0.14749957733E+03  0.00000000000E+00 0. -1.
        -12    1    4    4    0    0 -0.35168655190E+02 -0.27944586426E+02  0.10406416318E+02  0.46108868116E+02  0.00000000000E+00 0.  1.
</event>
<event>
12    1  0.1046899E+000  0.2290680E+03  0.7818608E-02  0.1127483E+00
         21   -1    0    0  501  502  0.00000000000E+00  0.00000000000E+00  0.14322316689E+03  0.14322316689E+03  0.00000000000E+00 0.  1.
         21   -1    0    0  502  503 -0.00000000000E+00 -0.00000000000E+00 -0.37144184655E+03  0.37144184655E+03  0.00000000000E+00 0.  1.
         -6    2    1    2    0  503 -0.25108206814E+02  0.14776869894E+03 -0.79688004203E+02  0.24253312140E+03  0.17322276562E+03 0.  0.
        -24    2    3    3    0    0  0.25125390486E+02  0.65728098487E+02  0.16700290444E+02  0.10627282724E+03  0.77868773786E+02 0.  0.
          6    2    1    2  501    0  0.25108206814E+02 -0.14776869894E+03 -0.14853067545E+03  0.27213189204E+03  0.17183828061E+03 0.  0.
         24    2    5    5    0    0 -0.45303217202E+02 -0.10273704730E+03 -0.78902930732E+02  0.16324786605E+03  0.88413296033E+02 0.  0.
          5    1    5    5  501    0  0.70411424016E+02 -0.45031651635E+02 -0.69627744717E+02  0.10888402599E+03  0.47000000000E+01 0. -1.
        -13    1    6    6    0    0 -0.35511378407E+02 -0.29630079011E+02  0.10418428131E+02  0.47408261129E+02  0.00000000000E+00 0.  1.
         14    1    6    6    0    0 -0.97918387957E+01 -0.73106968291E+02 -0.89321358864E+02  0.11583960492E+03  0.00000000000E+00 0. -1.
         -5    1    3    3    0  503 -0.50233597300E+02  0.82040600450E+02 -0.96388294647E+02  0.13626029416E+03  0.47000000000E+01 0.  1.
         11    1    4    4    0    0  0.31858772484E+02  0.76629342833E+02 -0.26897056561E+01  0.83031753466E+02  0.00000000000E+00 0. -1.
        -12    1    4    4    0    0 -0.67333819981E+01 -0.10901244346E+02  0.19389996100E+02  0.23241073774E+02  0.00000000000E+00 0.  1.
</event>
<event>
12    1  0.1046899E+000  0.1824960E+03  0.7818608E-02  0.1168179E+00
         21   -1    0    0  501  502  0.00000000000E+00  0.00000000000E+00  0.16582795129E+02  0.16582795129E+02  0.00000000000E+00 0.  1.
         21   -1    0    0  502  503 -0.00000000000E+00 -0.00000000000E+00 -0.20769878702E+04  0.20769878702E+04  0.00000000000E+00 0.  1.
         -6    2    1    2    0  503  0.16841787317E+02  0.59332407611E+02 -0.74298691856E+03  0.76507146622E+03  0.17175798927E+03 0.  0.
        -24    2    3    3    0    0 -0.46188362741E+02  0.32730490858E+02 -0.26132638156E+03  0.27855381526E+03  0.78077528213E+02 0.  0.
          6    2    1    2  501    0 -0.16841787317E+02 -0.59332407611E+02 -0.13174181565E+04  0.13284991991E+04  0.15973585240E+03 0.  0.
         24    2    5    5    0    0  0.30897158543E+01 -0.50758371553E+02 -0.41531414065E+03  0.42612204717E+03  0.80673446896E+02 0.  0.
          5    1    5    5  501    0 -0.19931503171E+02 -0.85740360579E+01 -0.90210401588E+03  0.90237715196E+03  0.47000000000E+01 0. -1.
        -13    1    6    6    0    0  0.33996235482E+02 -0.35171451683E+02 -0.33656555778E+03  0.34010167557E+03  0.00000000000E+00 0.  1.
         14    1    6    6    0    0 -0.30906519628E+02 -0.15586919870E+02 -0.78748582865E+02  0.86020371598E+02  0.00000000000E+00 0. -1.
         -5    1    3    3    0  503  0.63030150058E+02  0.26601916753E+02 -0.48166053700E+03  0.48651765096E+03  0.47000000000E+01 0.  1.
         13    1    4    4    0    0 -0.23023172796E+01 -0.78505515821E+01  0.20875092998E+01  0.84433121508E+01  0.00000000000E+00 0. -1.
        -14    1    4    4    0    0 -0.43886045461E+02  0.40581042440E+02 -0.26341389086E+03  0.27011050311E+03  0.00000000000E+00 0.  1.
</event>
<event>
12    1  0.1046899E+000  0.1910629E+03  0.7818608E-02  0.1161591E+00
         21   -1    0    0  503  502  0.00000000000E+00  0.00000000000E+00  0.82742293460E+03  0.82742293460E+03  0.00000000000E+00 0.  1.
         21   -1    0    0  501  503 -0.00000000000E+00 -0.00000000000E+00 -0.60423152200E+02  0.60423152200E+02  0.00000000000E+00 0.  1.
          6    2    1    2  501    0 -0.76748534734E+02  0.33574883299E+02  0.65223049223E+03  0.67963936015E+03  0.17171905689E+03 0.  0.
         24    2    3    3    0    0 -0.90331485619E+02  0.94306832926E+01  0.26491345267E+03  0.29130442987E+03  0.80189889458E+02 0.  0.
         -6    2    1    2    0  502  0.76748534734E+02 -0.33574883299E+02  0.11476929018E+03  0.20820672666E+03  0.15218554690E+03 0.  0.
        -24    2    5    5    0    0  0.56587155864E+02 -0.43485242570E+02  0.19202341128E+02  0.10992230180E+03  0.81370203379E+02 0.  0.
          5    1    3    3  501    0  0.13582950885E+02  0.24144200006E+02  0.38731703955E+03  0.38833493028E+03  0.47000000000E+01 0. -1.
        -13    1    4    4    0    0 -0.31194792742E+02 -0.12292728370E+02  0.19216532116E+03  0.19506854416E+03  0.00000000000E+00 0.  1.
         14    1    4    4    0    0 -0.59136692877E+02  0.21723411662E+02  0.72748131512E+02  0.96235885704E+02  0.00000000000E+00 0. -1.
         -5    1    5    5    0  502  0.20161378871E+02  0.99103592710E+01  0.95566949050E+02  0.98284424857E+02  0.47000000000E+01 0.  1.
         11    1    6    6    0    0  0.15610745909E+02 -0.42545772026E+02  0.43045924305E+02  0.62504317486E+02  0.00000000000E+00 0. -1.
        -12    1    6    6    0    0  0.40976409954E+02 -0.93947054429E+00 -0.23843583176E+02  0.47417984313E+02  0.00000000000E+00 0.  1.
</event>
<event>
12    1  0.1046899E+000  0.1969454E+03  0.7818608E-02  0.1152696E+00
         21   -1    0    0  501  502  0.00000000000E+00  0.00000000000E+00  0.55194323311E+03  0.55194323311E+03  0.00000000000E+00 0. -1.
         21   -1    0    0  502  503 -0.00000000000E+00 -0.00000000000E+00 -0.72519988465E+02  0.72519988465E+02  0.00000000000E+00 0. -1.
         -6    2    1    2    0  503  0.25862003472E+02 -0.92726221720E+02  0.30232906907E+03  0.36081903088E+03  0.17181534162E+03 0.  0.
        -24    2    3    3    0    0  0.93529905727E+01 -0.87858584459E+02  0.31613007202E+03  0.33826245574E+03  0.81710814684E+02 0.  0.
          6    2    1    2  501    0 -0.25862003472E+02  0.92726221720E+02  0.17709417557E+03  0.26364419070E+03  0.16993797942E+03 0.  0.
         24    2    5    5    0    0 -0.11382770256E+01  0.69755425027E+02  0.19694803987E+03  0.22420834308E+03  0.81324877507E+02 0.  0.
          5    1    5    5  501    0 -0.24723726447E+02  0.22970796693E+02 -0.19853864298E+02  0.39435847622E+02  0.47000000000E+01 0. -1.
        -13    1    6    6    0    0 -0.24230800916E+02  0.23947401851E+02  0.15272519410E+03  0.15647873556E+03  0.00000000000E+00 0.  1.
         14    1    6    6    0    0  0.23092523890E+02  0.45808023175E+02  0.44222845768E+02  0.67729607519E+02  0.00000000000E+00 0. -1.
         -5    1    3    3    0  503  0.16509012900E+02 -0.48676372607E+01 -0.13801002944E+02  0.22556575132E+02  0.47000000000E+01 0.  1.
         11    1    4    4    0    0 -0.11555765894E+02 -0.42434171825E+02  0.46379050797E+02  0.63915655489E+02  0.00000000000E+00 0. -1.
        -12    1    4    4    0    0  0.20908756467E+02 -0.45424412634E+02  0.26975102122E+03  0.27434680026E+03  0.00000000000E+00 0.  1.
</event>
<event>
12    1  0.1046899E+000  0.1842027E+03  0.7818608E-02  0.1164100E+00
         21   -1    0    0  501  502  0.00000000000E+00  0.00000000000E+00  0.69458925906E+03  0.69458925906E+03  0.00000000000E+00 0. -1.
         21   -1    0    0  502  503 -0.00000000000E+00 -0.00000000000E+00 -0.68279997388E+02  0.68279997388E+02  0.00000000000E+00 0. -1.
         -6    2    1    2    0  503 -0.48145362350E+02 -0.35554803118E+02  0.51762633208E+03  0.54899400906E+03  0.17284467703E+03 0.  0.
        -24    2    3    3    0    0 -0.29431712907E+02  0.99771811828E+00  0.49367827877E+03  0.50122491087E+03  0.81492006874E+02 0.  0.
          6    2    1    2  501    0  0.48145362350E+02  0.35554803118E+02  0.10868292959E+03  0.21387524739E+03  0.17420827283E+03 0.  0.
         24    2    5    5    0    0  0.36092822290E+02 -0.34327672821E+01  0.13823939618E+03  0.16326922912E+03  0.78944504615E+02 0.  0.
          5    1    5    5  501    0  0.12052540060E+02  0.38987570400E+02 -0.29556466592E+02  0.50606018268E+02  0.47000000000E+01 0. -1.
        -13    1    6    6    0    0  0.13615416812E+02 -0.32504698167E+02  0.22440456755E+02  0.41779290052E+02  0.00000000000E+00 0.  1.
         14    1    6    6    0    0  0.22477405478E+02  0.29071930885E+02  0.11579893943E+03  0.12148993907E+03  0.00000000000E+00 0. -1.
         -5    1    3    3    0  503 -0.18713649443E+02 -0.36552521236E+02  0.23948053312E+02  0.47769098187E+02  0.47000000000E+01 0.  1.
         11    1    4    4    0    0  0.89469670724E+01 -0.14794739792E+02  0.23273008287E+02  0.28992506964E+02  0.00000000000E+00 0. -1.
        -12    1    4    4    0    0 -0.38378679980E+02  0.15792457911E+02  0.47040527048E+03  0.47223240391E+03  0.00000000000E+00 0.  1.
</event>
<event>
12    1  0.1046899E+000  0.2127535E+03  0.7818608E-02  0.1139511E+00
         21   -1    0    0  501  502  0.00000000000E+00  0.00000000000E+00  0.11928156126E+03  0.11928156126E+03  0.00000000000E+00 0. -1.
         21   -1    0    0  502  503 -0.00000000000E+00 -0.00000000000E+00 -0.51887740674E+03  0.51887740674E+03  0.00000000000E+00 0. -1.
         -6    2    1    2    0  503 -0.28563420197E+02  0.12279099227E+03 -0.34016632198E+02  0.21545576130E+03  0.17137840312E+03 0.  0.
        -24    2    3    3    0    0 -0.54879643256E+02  0.11221118776E+03 -0.74204439451E+02  0.16604295212E+03  0.80379333239E+02 0.  0.
          6    2    1    2  501    0  0.28563420197E+02 -0.12279099227E+03 -0.36557921329E+03  0.42270320670E+03  0.17069371112E+03 0.  0.
         24    2    5    5    0    0  0.44767769528E+02 -0.38112103125E+02 -0.29399966148E+03  0.31054787941E+03  0.80916616728E+02 0.  0.
          5    1    5    5  501    0 -0.16204349331E+02 -0.84678889143E+02 -0.71579551808E+02  0.11215532730E+03  0.47000000000E+01 0. -1.
        -13    1    6    6    0    0  0.35514204252E+02  0.11379397121E+02 -0.20436945183E+03  0.20774412681E+03  0.00000000000E+00 0.  1.
         14    1    6    6    0    0  0.92535652760E+01 -0.49491500245E+02 -0.89630209648E+02  0.10280375260E+03  0.00000000000E+00 0. -1.
         -5    1    3    3    0  503  0.26316223059E+02  0.10579804512E+02  0.40187807253E+02  0.49412809183E+02  0.47000000000E+01 0.  1.
         11    1    4    4    0    0  0.13401350273E+02  0.28830132856E+02 -0.43692953174E+02  0.54035607766E+02  0.00000000000E+00 0. -1.
        -12    1    4    4    0    0 -0.68280993530E+02  0.83381054900E+02 -0.30511486277E+02  0.11200734435E+03  0.00000000000E+00 0.  1.
</event>
<event>
12    1  0.1046899E+000  0.2142764E+03  0.7818608E-02  0.1138288E+00
         21   -1    0    0  503  502  0.00000000000E+00  0.00000000000E+00  0.10530471567E+03  0.10530471567E+03  0.00000000000E+00 0. -1.
         21   -1    0    0  501  503 -0.00000000000E+00 -0.00000000000E+00 -0.64853889626E+03  0.64853889626E+03  0.00000000000E+00 0. -1.
          6    2    1    2  501    0 -0.14234217830E+02 -0.12679456001E+03 -0.48758809802E+03  0.53245964432E+03  0.17173131949E+03 0.  0.
         24    2    3    3    0    0 -0.45445127024E+02 -0.14949622518E+03 -0.37581753070E+03  0.41412014891E+03  0.76434942543E+02 0.  0.
         -6    2    1    2    0  502  0.14234217830E+02  0.12679456001E+03 -0.55646082572E+02  0.22138396761E+03  0.17214790503E+03 0.  0.
        -24    2    5    5    0    0  0.28179936687E+02 -0.32194087332E+01 -0.16327490805E+02  0.84759823331E+02  0.78186746133E+02 0.  0.
          5    1    3    3  501    0  0.31210909193E+02  0.22701665167E+02 -0.11177056732E+03  0.11833949541E+03  0.47000000000E+01 0. -1.
        -11    1    4    4    0    0 -0.25219692589E+02 -0.12789418087E+02 -0.27736651095E+02  0.39609644322E+02  0.00000000000E+00 0.  1.
         12    1    4    4    0    0 -0.20225434435E+02 -0.13670680709E+03 -0.34808087960E+03  0.37451050459E+03  0.00000000000E+00 0. -1.
         -5    1    5    5    0  502 -0.13945718856E+02  0.13001396874E+03 -0.39318591766E+02  0.13662414428E+03  0.47000000000E+01 0.  1.
         11    1    6    6    0    0 -0.13998802053E+01 -0.25702666433E+02 -0.34784857680E+02  0.43273237112E+02  0.00000000000E+00 0. -1.
        -12    1    6    6    0    0  0.29579816892E+02  0.22483257700E+02  0.18457366874E+02  0.41486586219E+02  0.00000000000E+00 0.  1.
</event>
<event>
12    1  0.1046899E+000  0.1901319E+03  0.7818608E-02  0.1158401E+00
         21   -1    0    0  501  502  0.00000000000E+00  0.00000000000E+00  0.81734921492E+03  0.81734921492E+03  0.00000000000E+00 0.  1.
         21   -1    0    0  502  503 -0.00000000000E+00 -0.00000000000E+00 -0.48716288056E+02  0.48716288056E+02  0.00000000000E+00 0.  1.
         -6    2    1    2    0  503 -0.55029570968E+02  0.57577559342E+02  0.51687651981E+03  0.55073721839E+03  0.17264622198E+03 0.  0.
        -24    2    3    3    0    0 -0.74452049471E+02 -0.18078333564E+02  0.32614861141E+03  0.34458127779E+03  0.80581675708E+02 0.  0.
          6    2    1    2  501    0  0.55029570968E+02 -0.57577559342E+02  0.25175640706E+03  0.31532828459E+03  0.17235779515E+03 0.  0.
         24    2    5    5    0    0  0.98210129026E+02 -0.51922510528E+02  0.22705093047E+03  0.26503921277E+03  0.79702463801E+02 0.  0.
          5    1    5    5  501    0 -0.43180558058E+02 -0.56550488140E+01  0.24705476582E+02  0.50289071820E+02  0.47000000000E+01 0. -1.
        -11    1    6    6    0    0  0.78347801403E+02 -0.58987729361E+02  0.11552659682E+03  0.15153984549E+03  0.00000000000E+00 0.  1.
         12    1    6    6    0    0  0.19862327624E+02  0.70652188331E+01  0.11152433365E+03  0.11349936728E+03  0.00000000000E+00 0. -1.
         -5    1    3    3    0  503  0.19422478503E+02  0.75655892906E+02  0.19072790840E+03  0.20615594060E+03  0.47000000000E+01 0.  1.
         13    1    4    4    0    0 -0.24801964522E+02  0.14973849971E+02  0.22724615121E+03  0.22908550122E+03  0.00000000000E+00 0. -1.
        -14    1    4    4    0    0 -0.49650084948E+02 -0.33052183535E+02  0.98902460203E+02  0.11549577657E+03  0.00000000000E+00 0.  1.
</event>
<event>
12    1  0.1046899E+000  0.3738087E+03  0.7818608E-02  0.1053338E+00
         21   -1    0    0  503  502  0.00000000000E+00  0.00000000000E+00  0.16324433020E+03  0.16324433020E+03  0.00000000000E+00 0. -1.
         21   -1    0    0  501  503 -0.00000000000E+00 -0.00000000000E+00 -0.88778973998E+03  0.88778973998E+03  0.00000000000E+00 0. -1.
          6    2    1    2  501    0  0.26305347235E+03  0.20244170777E+03 -0.46473477201E+03  0.59580389327E+03  0.16977660782E+03 0.  0.
         24    2    3    3    0    0  0.23165805937E+03  0.19095836924E+03 -0.31560815520E+03  0.44290400164E+03  0.80155422680E+02 0.  0.
         -6    2    1    2    0  502 -0.26305347235E+03 -0.20244170777E+03 -0.25981063777E+03  0.45523017691E+03  0.17191036070E+03 0.  0.
        -24    2    5    5    0    0 -0.68050376464E+02 -0.10596148993E+03 -0.15052114550E+03  0.21171236861E+03  0.79415494060E+02 0.  0.
          5    1    3    3  501    0  0.31395412976E+02  0.11483338522E+02 -0.14912661680E+03  0.15289989162E+03  0.47000000000E+01 0. -1.
        -13    1    4    4    0    0  0.14993166158E+03  0.83890842855E+02 -0.14022447961E+03  0.22176582546E+03  0.00000000000E+00 0.  1.
         14    1    4    4    0    0  0.81726397795E+02  0.10706752639E+03 -0.17538367559E+03  0.22113817619E+03  0.00000000000E+00 0. -1.
         -5    1    5    5    0  502 -0.19500309588E+03 -0.96480217840E+02 -0.10928949227E+03  0.24351780830E+03  0.47000000000E+01 0.  1.
         13    1    6    6    0    0 -0.92841085379E+01 -0.51986148312E+02 -0.11044592649E+03  0.12242163602E+03  0.00000000000E+00 0. -1.
        -14    1    6    6    0    0 -0.58766267926E+02 -0.53975341613E+02 -0.40075219012E+02  0.89290732593E+02  0.00000000000E+00 0.  1.
</event>
<event>
12    1  0.1046899E+000  0.1799651E+03  0.7818608E-02  0.1167880E+00
         21   -1    0    0  503  502  0.00000000000E+00  0.00000000000E+00  0.15048069157E+03  0.15048069157E+03  0.00000000000E+00 0.  1.
         21   -1    0    0  501  503 -0.00000000000E+00 -0.00000000000E+00 -0.23248584184E+03  0.23248584184E+03  0.00000000000E+00 0.  1.
          6    2    1    2  501    0  0.50226885261E+02  0.18844901717E+02  0.11471850198E+02  0.18033033546E+03  0.17178345734E+03 0.  0.
         24    2    3    3    0    0  0.80970513159E+02 -0.32109388764E+02  0.19482621175E+02  0.12009933990E+03  0.80355722058E+02 0.  0.
         -6    2    1    2    0  502 -0.50226885261E+02 -0.18844901717E+02 -0.93477000466E+02  0.20263619796E+03  0.17159722836E+03 0.  0.
        -24    2    5    5    0    0 -0.80419023644E+02  0.13584694338E+01 -0.11291935701E+03  0.16116528461E+03  0.82185174888E+02 0.  0.
          5    1    3    3  501    0 -0.30743627898E+02  0.50954290481E+02 -0.80107709767E+01  0.60230995562E+02  0.47000000000E+01 0. -1.
        -11    1    4    4    0    0  0.12396324843E+02  0.14885851700E+02 -0.20194902009E+02  0.27983772397E+02  0.00000000000E+00 0.  1.
         12    1    4    4    0    0  0.68574188316E+02 -0.46995240464E+02  0.39677523184E+02  0.92115567498E+02  0.00000000000E+00 0. -1.
         -5    1    5    5    0  502  0.30192138383E+02 -0.20203371151E+02  0.19442356545E+02  0.41470913349E+02  0.47000000000E+01 0.  1.
         11    1    6    6    0    0 -0.18252055621E+02  0.33966939912E+02 -0.66927142758E+02  0.77240746884E+02  0.00000000000E+00 0. -1.
        -12    1    6    6    0    0 -0.62166968022E+02 -0.32608470478E+02 -0.45992214253E+02  0.83924537723E+02  0.00000000000E+00 0.  1.
</event>
<event>
12    1  0.1046899E+000  0.2368700E+03  0.7818608E-02  0.1122440E+00
         21   -1    0    0  501  502  0.00000000000E+00  0.00000000000E+00  0.14759142706E+04  0.14759142706E+04  0.00000000000E+00 0. -1.
         21   -1    0    0  502  503 -0.00000000000E+00 -0.00000000000E+00 -0.39175868735E+02  0.39175868735E+02  0.00000000000E+00 0.  1.
         -6    2    1    2    0  503 -0.15793422861E+03  0.25272869254E+02  0.87948291299E+03  0.91082247986E+03  0.17471536021E+03 0.  0.
        -24    2    3    3    0    0 -0.15313966820E+02  0.44641369973E+02  0.37318612647E+03  0.38444409510E+03  0.79385186161E+02 0.  0.
          6    2    1    2  501    0  0.15793422861E+03 -0.25272869254E+02  0.55725548892E+03  0.60426765952E+03  0.17036368721E+03 0.  0.
         24    2    5    5    0    0  0.13391452639E+03 -0.15571530292E+02  0.24650548323E+03  0.29240435916E+03  0.80992487681E+02 0.  0.
          5    1    5    5  501    0  0.24019702225E+02 -0.97013389617E+01  0.31075000569E+03  0.31186330036E+03  0.47000000000E+01 0. -1.
        -11    1    6    6    0    0  0.14310712734E+03 -0.14966206109E+02  0.24327519797E+03  0.28264192747E+03  0.00000000000E+00 0.  1.
         12    1    6    6    0    0 -0.91926009485E+01 -0.60532418287E+00  0.32302852606E+01  0.97624316863E+01  0.00000000000E+00 0. -1.
         -5    1    3    3    0  503 -0.14262026179E+03 -0.19368500719E+02  0.50629678652E+03  0.52637838476E+03  0.47000000000E+01 0.  1.
         13    1    4    4    0    0 -0.65675478180E+01  0.23034468951E+01 -0.16258040136E+01  0.71471526240E+01  0.00000000000E+00 0. -1.
        -14    1    4    4    0    0 -0.87464190022E+01  0.42337923078E+02  0.37481193048E+03  0.37729694248E+03  0.00000000000E+00 0.  1.
</event>
<event>
12    1  0.1046899E+000  0.1902812E+03  0.7818608E-02  0.1158355E+00
         21   -1    0    0  503  502  0.00000000000E+00  0.00000000000E+00  0.18533213867E+03  0.18533213867E+03  0.00000000000E+00 0. -1.
         21   -1    0    0  501  503 -0.00000000000E+00 -0.00000000000E+00 -0.22967225146E+03  0.22967225146E+03  0.00000000000E+00 0. -1.
          6    2    1    2  501    0 -0.76796643903E+02 -0.25685094458E+02 -0.10318304496E+03  0.21645711289E+03  0.17219027952E+03 0.  0.
         24    2    3    3    0    0 -0.16538575738E+02 -0.25063420319E+02  0.11336411805E+02  0.86964961641E+02  0.80825062915E+02 0.  0.
         -6    2    1    2    0  502  0.76796643903E+02  0.25685094458E+02  0.58842932165E+02  0.19854727724E+03  0.17146743726E+03 0.  0.
        -24    2    5    5    0    0 -0.63750602150E+01 -0.32690701024E+02  0.43327847405E+02  0.95648911267E+02  0.78498971583E+02 0.  0.
          5    1    3    3  501    0 -0.60258068166E+02 -0.62167413940E+00 -0.11451945676E+03  0.12949215125E+03  0.47000000000E+01 0. -1.
        -13    1    4    4    0    0 -0.21462417182E+02 -0.32774264840E+02 -0.26982284462E+02  0.47569228099E+02  0.00000000000E+00 0.  1.
         14    1    4    4    0    0  0.49238414446E+01  0.77108445219E+01  0.38318696266E+02  0.39395733543E+02  0.00000000000E+00 0. -1.
         -5    1    5    5    0  502  0.83171704118E+02  0.58375795482E+02  0.15515084760E+02  0.10289836597E+03  0.47000000000E+01 0.  1.
         11    1    6    6    0    0 -0.39048719930E+01  0.53329871532E+01 -0.20374742200E+02  0.21420058286E+02  0.00000000000E+00 0. -1.
        -12    1    6    6    0    0 -0.24701882220E+01 -0.38023688177E+02  0.63702589605E+02  0.74228852981E+02  0.00000000000E+00 0.  1.
</event>
<event>
12    1  0.1046899E+000  0.1970577E+03  0.7818608E-02  0.1155084E+00
         21   -1    0    0  501  502  0.00000000000E+00  0.00000000000E+00  0.77510723136E+03  0.77510723136E+03  0.00000000000E+00 0.  1.
         21   -1    0    0  502  503 -0.00000000000E+00 -0.00000000000E+00 -0.51086068574E+02  0.51086068574E+02  0.00000000000E+00 0.  1.
         -6    2    1    2    0  503 -0.64158278202E+02  0.46552983911E+00  0.49112626973E+03  0.52918499155E+03  0.18632026482E+03 0.  0.
        -24    2    3    3    0    0 -0.82376764349E+01 -0.24714747209E+02  0.80776345246E+02  0.11425088765E+03  0.76483784787E+02 0.  0.
          6    2    1    2  501    0  0.64158278202E+02 -0.46552983911E+00  0.23289489306E+03  0.29700830838E+03  0.17279294736E+03 0.  0.
         24    2    5    5    0    0 -0.21141453273E+02 -0.32373753718E+02  0.90477477244E+02  0.12789595145E+03  0.81707891494E+02 0.  0.
          5    1    5    5  501    0  0.85299731475E+02  0.31908223879E+02  0.14241741581E+03  0.16911235694E+03  0.47000000000E+01 0. -1.
        -11    1    6    6    0    0 -0.34847288350E+02  0.17144506282E+02  0.34998604532E+02  0.52279727622E+02  0.00000000000E+00 0.  1.
         12    1    6    6    0    0  0.13705835077E+02 -0.49518260000E+02  0.55478872711E+02  0.75616223827E+02  0.00000000000E+00 0. -1.
         -5    1    3    3    0  503 -0.55920601767E+02  0.25180277048E+02  0.41034992448E+03  0.41493410389E+03  0.47000000000E+01 0.  1.
         13    1    4    4    0    0  0.56676414639E+01 -0.31934295800E+02  0.90277892297E+02  0.95927155934E+02  0.00000000000E+00 0. -1.
        -14    1    4    4    0    0 -0.13905317899E+02  0.72195485910E+01 -0.95015470509E+01  0.18323731718E+02  0.00000000000E+00 0.  1.
</event>
<event>
12    1  0.1853261E+000  0.4323170E+03  0.7818608E-02  0.1033317E+00
         21   -1    0    0  503  502  0.00000000000E+00  0.00000000000E+00  0.15987547453E+04  0.15987547453E+04  0.00000000000E+00 0.  1.
         21   -1    0    0  501  503 -0.00000000000E+00 -0.00000000000E+00 -0.23272290174E+03  0.23272290174E+03  0.00000000000E+00 0. -1.
          6    2    1    2  501    0 -0.39071682697E+03 -0.51612067824E+02  0.13298768718E+04  0.13976514054E+04  0.17185317124E+03 0.  0.
         24    2    3    3    0    0 -0.18967312428E+03 -0.90067154914E+02  0.66761952562E+03  0.70446726920E+03  0.80438273993E+02 0.  0.
         -6    2    1    2    0  502  0.39071682697E+03  0.51612067824E+02  0.36154971804E+02  0.43382624168E+03  0.17769237900E+03 0.  0.
        -24    2    5    5    0    0  0.21739207913E+03 -0.38214005024E+02  0.42985372704E+02  0.23843193276E+03  0.79261706056E+02 0.  0.
          5    1    3    3  501    0 -0.20104370269E+03  0.38455087090E+02  0.66225734615E+03  0.69318413617E+03  0.47000000000E+01 0. -1.
        -11    1    4    4    0    0 -0.13318502123E+03 -0.37333049496E+02  0.51696433763E+03  0.53514870162E+03  0.00000000000E+00 0.  1.
         12    1    4    4    0    0 -0.56488103052E+02 -0.52734105417E+02  0.15065518799E+03  0.16931856758E+03  0.00000000000E+00 0. -1.
         -5    1    5    5    0  502  0.17332474784E+03  0.89826072848E+02 -0.68304008999E+01  0.19539430891E+03  0.47000000000E+01 0.  1.
         13    1    6    6    0    0  0.11616197514E+02 -0.25795073698E+02  0.72894517508E+01  0.29214003125E+02  0.00000000000E+00 0. -1.
        -14    1    6    6    0    0  0.20577588162E+03 -0.12418931326E+02  0.35695920953E+02  0.20921792964E+03  0.00000000000E+00 0.  1.
</event>
<event>
12    1  0.1046899E+000  0.1828655E+03  0.7818608E-02  0.1166728E+00
         21   -1    0    0  503  502  0.00000000000E+00  0.00000000000E+00  0.56965665698E+02  0.56965665698E+02  0.00000000000E+00 0. -1.
         21   -1    0    0  501  503 -0.00000000000E+00 -0.00000000000E+00 -0.10474869721E+04  0.10474869721E+04  0.00000000000E+00 0. -1.
          6    2    1    2  501    0 -0.38945987569E+02 -0.21980392541E+02 -0.86484466337E+03  0.88256432410E+03  0.17018685854E+03 0.  0.
         24    2    3    3    0    0 -0.60583972042E+02  0.31025084251E+02 -0.37206123532E+03  0.38644399606E+03  0.79223896268E+02 0.  0.
         -6    2    1    2    0  502  0.38945987569E+02  0.21980392541E+02 -0.12567664300E+03  0.22188831366E+03  0.17731293675E+03 0.  0.
        -24    2    5    5    0    0  0.93967695019E+02 -0.14558340246E+01 -0.85477946724E+02  0.14967564033E+03  0.79147146337E+02 0.  0.
          5    1    3    3  501    0  0.21637984473E+02 -0.53005476792E+02 -0.49278342805E+03  0.49612032805E+03  0.47000000000E+01 0. -1.
        -13    1    4    4    0    0 -0.29318835728E+02  0.19382096300E+02 -0.33394388009E+03  0.33578828871E+03  0.00000000000E+00 0.  1.
         14    1    4    4    0    0 -0.31265136314E+02  0.11642987951E+02 -0.38117355230E+02  0.50655707348E+02  0.00000000000E+00 0. -1.
         -5    1    5    5    0  502 -0.55021707450E+02  0.23436226566E+02 -0.40198696274E+02  0.72212673323E+02  0.47000000000E+01 0.  1.
         13    1    6    6    0    0 -0.19504048932E+00 -0.24872167813E+02 -0.10265092011E+02  0.26907896359E+02  0.00000000000E+00 0. -1.
        -14    1    6    6    0    0  0.94162735509E+02  0.23416333788E+02 -0.75212854712E+02  0.12276774397E+03  0.00000000000E+00 0.  1.
</event>
<event>
12    1  0.1046899E+000  0.1747661E+03  0.7818608E-02  0.1173051E+00
         21   -1    0    0  503  502  0.00000000000E+00  0.00000000000E+00  0.25640227330E+03  0.25640227330E+03  0.00000000000E+00 0.  1.
         21   -1    0    0  501  503 -0.00000000000E+00 -0.00000000000E+00 -0.16768247212E+03  0.16768247212E+03  0.00000000000E+00 0.  1.
          6    2    1    2  501    0 -0.27773951092E+02 -0.22672991288E+01  0.15870635983E+03  0.23582607923E+03  0.17219087661E+03 0.  0.
         24    2    3    3    0    0 -0.19160091395E+02  0.48181648960E+02  0.14620895978E+03  0.18293401980E+03  0.96949550197E+02 0.  0.
         -6    2    1    2    0  502  0.27773951092E+02  0.22672991288E+01 -0.69986558650E+02  0.18825866620E+03  0.17253021186E+03 0.  0.
        -24    2    5    5    0    0  0.75225910777E+02  0.30146712722E+02 -0.68808843470E+02  0.13300989071E+03  0.79932547480E+02 0.  0.
          5    1    3    3  501    0 -0.86138596977E+01 -0.50448948089E+02  0.12497400053E+02  0.52892059425E+02  0.47000000000E+01 0. -1.
        -11    1    4    4    0    0  0.31164142662E+02  0.17766958613E+02  0.14495169674E+02  0.38690807049E+02  0.00000000000E+00 0.  1.
         12    1    4    4    0    0 -0.50324234056E+02  0.30414690347E+02  0.13171379010E+03  0.14424321276E+03  0.00000000000E+00 0. -1.
         -5    1    5    5    0  502 -0.47451959684E+02 -0.27879413593E+02 -0.11777151801E+01  0.55248775491E+02  0.47000000000E+01 0.  1.
         13    1    6    6    0    0  0.44029004391E+02  0.41377215554E+02 -0.44155750269E+01  0.60581552452E+02  0.00000000000E+00 0. -1.
        -14    1    6    6    0    0  0.31196906386E+02 -0.11230502832E+02 -0.64393268443E+02  0.72428338257E+02  0.00000000000E+00 0.  1.
</event>
<event>
12    1  0.1046899E+000  0.2383438E+03  0.7818608E-02  0.1121772E+00
         21   -1    0    0  503  502  0.00000000000E+00  0.00000000000E+00  0.74794663941E+03  0.74794663941E+03  0.00000000000E+00 0.  1.
         21   -1    0    0  501  503 -0.00000000000E+00 -0.00000000000E+00 -0.95527463836E+02  0.95527463836E+02  0.00000000000E+00 0. -1.
          6    2    1    2  501    0  0.21405685491E+02 -0.15584543217E+03  0.52763238672E+03  0.57896780494E+03  0.17905803961E+03 0.  0.
         24    2    3    3    0    0 -0.44786349494E+02 -0.84848355294E+02  0.40891180090E+03  0.42554473654E+03  0.68369594037E+02 0.  0.
         -6    2    1    2    0  502 -0.21405685491E+02  0.15584543217E+03  0.12478678886E+03  0.26450629830E+03  0.17217966508E+03 0.  0.
        -24    2    5    5    0    0 -0.55719894834E+02  0.69439839510E+02  0.17142593051E+02  0.12219412631E+03  0.81920315045E+02 0.  0.
          5    1    3    3  501    0  0.66192034985E+02 -0.70997076877E+02  0.11872058582E+03  0.15342306840E+03  0.47000000000E+01 0. -1.
        -13    1    4    4    0    0 -0.48624664369E+02 -0.33525131415E+02  0.29031834691E+03  0.29626514303E+03  0.00000000000E+00 0.  1.
         14    1    4    4    0    0  0.38383148749E+01 -0.51323223879E+02  0.11859345399E+03  0.12927959352E+03  0.00000000000E+00 0. -1.
         -5    1    5    5    0  502  0.34314209344E+02  0.86405592660E+02  0.10764419581E+03  0.14231217199E+03  0.47000000000E+01 0.  1.
         13    1    6    6    0    0 -0.13222010684E+01  0.46245993560E+02 -0.22048818042E+02  0.51250273298E+02  0.00000000000E+00 0. -1.
        -14    1    6    6    0    0 -0.54397693766E+02  0.23193845950E+02  0.39191411093E+02  0.70943853014E+02  0.00000000000E+00 0.  1.
</event>
<event>
12    1  0.1046899E+000  0.2170807E+03  0.7818608E-02  0.1136217E+00
         21   -1    0    0  501  502  0.00000000000E+00  0.00000000000E+00  0.69157695919E+02  0.69157695919E+02  0.00000000000E+00 0.  1.
         21   -1    0    0  502  503 -0.00000000000E+00 -0.00000000000E+00 -0.68255390113E+03  0.68255390113E+03  0.00000000000E+00 0.  1.
         -6    2    1    2    0  503 -0.12632932120E+03 -0.35073916580E+02 -0.28053892020E+03  0.35471977009E+03  0.17301662500E+03 0.  0.
        -24    2    3    3    0    0 -0.83116514930E+02 -0.49328873755E+02 -0.28227641091E+03  0.30894139852E+03  0.80144386744E+02 0.  0.
          6    2    1    2  501    0  0.12632932120E+03  0.35073916580E+02 -0.33285728501E+03  0.39699182696E+03  0.17210247375E+03 0.  0.
         24    2    5    5    0    0  0.74960747843E+01  0.28646009173E+02 -0.20462547936E+03  0.22198284311E+03  0.80796106685E+02 0.  0.
          5    1    5    5  501    0  0.11883324641E+03  0.64279074069E+01 -0.12823180565E+03  0.17500898385E+03  0.47000000000E+01 0. -1.
        -11    1    6    6    0    0 -0.45300673566E+01 -0.25065074710E+02 -0.32626085372E+02  0.41391314635E+02  0.00000000000E+00 0.  1.
         12    1    6    6    0    0  0.12026142141E+02  0.53711083883E+02 -0.17199939399E+03  0.18059152848E+03  0.00000000000E+00 0. -1.
         -5    1    3    3    0  503 -0.43212806267E+02  0.14254957175E+02  0.17374907027E+01  0.45778371569E+02  0.47000000000E+01 0.  1.
         11    1    4    4    0    0 -0.82858788278E+02 -0.61576160400E+02 -0.19342683606E+03  0.21925132436E+03  0.00000000000E+00 0. -1.
        -12    1    4    4    0    0 -0.25772665206E+00  0.12247286645E+02 -0.88849574846E+02  0.89690074163E+02  0.00000000000E+00 0.  1.
</event>
<event>
12    1  0.1046899E+000  0.2066369E+03  0.7818608E-02  0.1145668E+00
         21   -1    0    0  503  502  0.00000000000E+00  0.00000000000E+00  0.21571707795E+03  0.21571707795E+03  0.00000000000E+00 0. -1.
         21   -1    0    0  501  503 -0.00000000000E+00 -0.00000000000E+00 -0.25249225075E+03  0.25249225075E+03  0.00000000000E+00 0. -1.
          6    2    1    2  501    0 -0.71093610731E+02  0.69939900784E+02 -0.13326583298E+03  0.24015396159E+03  0.17311340739E+03 0.  0.
         24    2    3    3    0    0 -0.11267579742E+03  0.63173590773E+02 -0.12649443115E+03  0.19722607923E+03  0.78807025841E+02 0.  0.
         -6    2    1    2    0  502  0.71093610731E+02 -0.69939900784E+02  0.96490660182E+02  0.22805536711E+03  0.18097765541E+03 0.  0.
        -24    2    5    5    0    0  0.37737400666E+02 -0.36620387124E+01 -0.19671542572E+02  0.90138221333E+02  0.79375105803E+02 0.  0.
          5    1    3    3  501    0  0.41582186687E+02  0.67663100106E+01 -0.67714018332E+01  0.42927882357E+02  0.47000000000E+01 0. -1.
        -11    1    4    4    0    0 -0.77261644262E+02  0.74046598757E+02 -0.64335897154E+02  0.12486540003E+03  0.00000000000E+00 0.  1.
         12    1    4    4    0    0 -0.35414153156E+02 -0.10873007983E+02 -0.62158533991E+02  0.72360679200E+02  0.00000000000E+00 0. -1.
         -5    1    5    5    0  502  0.33356210065E+02 -0.66277862072E+02  0.11616220275E+03  0.13791714578E+03  0.47000000000E+01 0.  1.
         13    1    6    6    0    0 -0.19586502022E+02 -0.19391615152E+02 -0.12500851041E+02  0.30264452356E+02  0.00000000000E+00 0. -1.
        -14    1    6    6    0    0  0.57323902689E+02  0.15729576439E+02 -0.71706915311E+01  0.59873768976E+02  0.00000000000E+00 0.  1.
</event>
<event>
12    1  0.1046899E+000  0.3298997E+03  0.7818608E-02  0.1071221E+00
         21   -1    0    0  503  502  0.00000000000E+00  0.00000000000E+00  0.39494158726E+03  0.39494158726E+03  0.00000000000E+00 0.  1.
         21   -1    0    0  501  503 -0.00000000000E+00 -0.00000000000E+00 -0.34410592927E+03  0.34410592927E+03  0.00000000000E+00 0. -1.
          6    2    1    2  501    0 -0.52358662505E+02  0.27613024421E+03 -0.13987123470E+03  0.35799252017E+03  0.17206202630E+03 0.  0.
         24    2    3    3    0    0  0.32025377648E+02  0.90134211637E+02 -0.65294953031E+02  0.14050941243E+03  0.79559180296E+02 0.  0.
         -6    2    1    2    0  502  0.52358662505E+02 -0.27613024421E+03  0.19070689269E+03  0.38105499636E+03  0.17275546308E+03 0.  0.
        -24    2    5    5    0    0 -0.36228430503E+02 -0.15133467262E+03  0.87524090666E+02  0.19641917001E+03  0.81886150167E+02 0.  0.
          5    1    3    3  501    0 -0.84384040153E+02  0.18599603257E+03 -0.74576281671E+02  0.21748310774E+03  0.47000000000E+01 0. -1.
        -13    1    4    4    0    0  0.32310745931E+02  0.10124036317E+03 -0.41203130870E+02  0.11397935529E+03  0.00000000000E+00 0.  1.
         14    1    4    4    0    0 -0.28536828296E+00 -0.11106151536E+02 -0.24091822161E+02  0.26530057144E+02  0.00000000000E+00 0. -1.
         -5    1    5    5    0  502  0.88587093009E+02 -0.12479557159E+03  0.10318280203E+03  0.18463582635E+03  0.47000000000E+01 0.  1.
         11    1    6    6    0    0 -0.44723010424E+02 -0.12225126473E+03  0.99492682268E+02  0.16384234256E+03  0.00000000000E+00 0. -1.
        -12    1    6    6    0    0  0.84945799204E+01 -0.29083407882E+02 -0.11968591602E+02  0.32576827454E+02  0.00000000000E+00 0.  1.
</event>
<event>
12    1  0.1046899E+000  0.1937569E+03  0.7818608E-02  0.1155694E+00
         21   -1    0    0  501  502  0.00000000000E+00  0.00000000000E+00  0.59339242284E+03  0.59339242284E+03  0.00000000000E+00 0.  1.
         21   -1    0    0  502  503 -0.00000000000E+00 -0.00000000000E+00 -0.86080060670E+02  0.86080060670E+02  0.00000000000E+00 0.  1.
         -6    2    1    2    0  503  0.84093722416E+02 -0.31225637330E+02  0.43053397587E+03  0.47105785168E+03  0.16878744229E+03 0.  0.
        -24    2    3    3    0    0  0.44940923899E+02  0.30123973922E+02  0.34182712478E+03  0.35622008845E+03  0.84379071682E+02 0.  0.
          6    2    1    2  501    0 -0.84093722416E+02  0.31225637330E+02  0.76778386303E+02  0.20841463183E+03  0.17174091994E+03 0.  0.
         24    2    5    5    0    0 -0.83321964015E+02  0.24185627300E+02 -0.12884881434E+02  0.11834938363E+03  0.79454780732E+02 0.  0.
          5    1    5    5  501    0 -0.77175840035E+00  0.70400100298E+01  0.89663267737E+02  0.90065248201E+02  0.47000000000E+01 0. -1.
        -11    1    6    6    0    0 -0.88579836916E+02 -0.36994523913E+01 -0.45481034585E+01  0.88773637422E+02  0.00000000000E+00 0.  1.
         12    1    6    6    0    0  0.52578729010E+01  0.27885079691E+02 -0.83367779756E+01  0.29575746210E+02  0.00000000000E+00 0. -1.
         -5    1    3    3    0  503  0.39152798517E+02 -0.61349611252E+02  0.88706851096E+02  0.11483776323E+03  0.47000000000E+01 0.  1.
         11    1    4    4    0    0 -0.18856690382E+02  0.81233471413E+01  0.25320213415E+02  0.32598723109E+02  0.00000000000E+00 0. -1.
        -12    1    4    4    0    0  0.63797614281E+02  0.22000626781E+02  0.31650691136E+03  0.32362136534E+03  0.00000000000E+00 0.  1.
</event>
<event>
12    1  0.1046899E+000  0.2439073E+03  0.7818608E-02  0.1117254E+00
         21   -1    0    0  501  502  0.00000000000E+00  0.00000000000E+00  0.45933963063E+03  0.45933963063E+03  0.00000000000E+00 0.  1.
         21   -1    0    0  502  503 -0.00000000000E+00 -0.00000000000E+00 -0.16836665161E+03  0.16836665161E+03  0.00000000000E+00 0.  1.
         -6    2    1    2    0  503  0.11067787607E+03  0.13356469756E+03  0.29654035868E+03  0.38396219125E+03  0.17146912053E+03 0.  0.
        -24    2    3    3    0    0  0.13232254254E+03  0.14442165407E+03  0.22914845525E+03  0.31219782865E+03  0.81188670623E+02 0.  0.
          6    2    1    2  501    0 -0.11067787607E+03 -0.13356469756E+03 -0.55673796597E+01  0.24374409100E+03  0.17114632772E+03 0.  0.
         24    2    5    5    0    0 -0.19549218854E+01 -0.10984578284E+03  0.18456049867E+02  0.12980339217E+03  0.66621146150E+02 0.  0.
          5    1    5    5  501    0 -0.10872295419E+03 -0.23718914717E+02 -0.24023429527E+02  0.11394069883E+03  0.47000000000E+01 0. -1.
        -13    1    6    6    0    0  0.16926986620E+02 -0.55841215598E+00  0.69314006112E+01  0.18299699850E+02  0.00000000000E+00 0.  1.
         14    1    6    6    0    0 -0.18881908506E+02 -0.10928737069E+03  0.11524649256E+02  0.11150369232E+03  0.00000000000E+00 0. -1.
         -5    1    3    3    0  503 -0.21644666470E+02 -0.10856956513E+02  0.67391903433E+02  0.71764362602E+02  0.47000000000E+01 0.  1.
         13    1    4    4    0    0 -0.65485916596E+01  0.32458687064E+02  0.28185045119E+02  0.43483872723E+02  0.00000000000E+00 0. -1.
        -14    1    4    4    0    0  0.13887113420E+03  0.11196296701E+03  0.20096341013E+03  0.26871395592E+03  0.00000000000E+00 0.  1.
</event>
<event>
12    1  0.1046899E+000  0.3636512E+03  0.7818608E-02  0.1057741E+00
         21   -1    0    0  501  502  0.00000000000E+00  0.00000000000E+00  0.17674643763E+04  0.17674643763E+04  0.00000000000E+00 0.  1.
         21   -1    0    0  502  503 -0.00000000000E+00 -0.00000000000E+00 -0.81565270676E+02  0.81565270676E+02  0.00000000000E+00 0.  1.
         -6    2    1    2    0  503 -0.26106611616E+03  0.18031872257E+03  0.11257423870E+04  0.11811840531E+04  0.16501359556E+03 0.  0.
        -24    2    3    3    0    0 -0.15266087789E+03  0.81156507722E+02  0.43492927638E+03  0.47490529487E+03  0.80497461201E+02 0.  0.
          6    2    1    2  501    0  0.26106611616E+03 -0.18031872257E+03  0.56015671859E+03  0.66784559383E+03  0.17768463383E+03 0.  0.
         24    2    5    5    0    0  0.27135505919E+03 -0.19055464691E+03  0.49713346073E+03  0.60300226320E+03  0.80780010166E+02 0.  0.
          5    1    5    5  501    0 -0.10288943032E+02  0.10235924335E+02  0.63023257865E+02  0.64843330633E+02  0.47000000000E+01 0. -1.
        -11    1    6    6    0    0  0.43387065256E+02 -0.72653940914E+02  0.12223157801E+03  0.14866603925E+03  0.00000000000E+00 0.  1.
         12    1    6    6    0    0  0.22796799393E+03 -0.11790070599E+03  0.37490188271E+03  0.45433622395E+03  0.00000000000E+00 0. -1.
         -5    1    3    3    0  503 -0.10840523826E+03  0.99162214850E+02  0.69081311061E+03  0.70627875823E+03  0.47000000000E+01 0.  1.
         13    1    4    4    0    0 -0.15665716200E+03  0.66056243177E+02  0.42078210068E+03  0.45383088251E+03  0.00000000000E+00 0. -1.
        -14    1    4    4    0    0  0.39962841089E+01  0.15100264544E+02  0.14147175700E+02  0.21074412359E+02  0.00000000000E+00 0.  1.
</event>
<event>
12    1  0.1046899E+000  0.2409846E+03  0.7818608E-02  0.1119239E+00
         21   -1    0    0  501  502  0.00000000000E+00  0.00000000000E+00  0.18859838584E+04  0.18859838584E+04  0.00000000000E+00 0.  1.
         21   -1    0    0  502  503 -0.00000000000E+00 -0.00000000000E+00 -0.30836991591E+02  0.30836991591E+02  0.00000000000E+00 0.  1.
         -6    2    1    2    0  503 -0.16658482441E+03  0.26638836735E+02  0.86602488841E+03  0.89876590914E+03  0.17123352692E+03 0.  0.
        -24    2    3    3    0    0 -0.15615793442E+03  0.69213907633E+02  0.59401513044E+03  0.62320692248E+03  0.79730969806E+02 0.  0.
          6    2    1    2  501    0  0.16658482441E+03 -0.26638836735E+02  0.98912197844E+03  0.10180549409E+04  0.17208556911E+03 0.  0.
         24    2    5    5    0    0  0.11664375413E+02 -0.26683628030E+02  0.40839578993E+03  0.41700141287E+03  0.79088453309E+02 0.  0.
          5    1    5    5  501    0  0.15492044899E+03  0.44791294923E-01  0.58072618851E+03  0.60105352802E+03  0.47000000000E+01 0. -1.
        -11    1    6    6    0    0 -0.21647781668E+02  0.87402903059E+01  0.25538164312E+03  0.25644649105E+03  0.00000000000E+00 0.  1.
         12    1    6    6    0    0  0.33312157081E+02 -0.35423918336E+02  0.15301414681E+03  0.16055492183E+03  0.00000000000E+00 0. -1.
         -5    1    3    3    0  503 -0.10426889987E+02 -0.42575070898E+02  0.27200975797E+03  0.27555898666E+03  0.47000000000E+01 0.  1.
         13    1    4    4    0    0 -0.16184454586E+03  0.56909276243E+02  0.57356064575E+03  0.59866863715E+03  0.00000000000E+00 0. -1.
        -14    1    4    4    0    0  0.56866114423E+01  0.12304631390E+02  0.20454484686E+02  0.24538285334E+02  0.00000000000E+00 0.  1.
</event>
<event>
12    1  0.1046899E+000  0.1823636E+03  0.7818608E-02  0.1165586E+00
         21   -1    0    0  501  502  0.00000000000E+00  0.00000000000E+00  0.14658456146E+04  0.14658456146E+04  0.00000000000E+00 0. -1.
         21   -1    0    0  502  503 -0.00000000000E+00 -0.00000000000E+00 -0.26651764467E+02  0.26651764467E+02  0.00000000000E+00 0. -1.
         -6    2    1    2    0  503 -0.47691022291E+02 -0.27326565447E+02  0.43118753719E+03  0.46816574418E+03  0.17388299805E+03 0.  0.
        -24    2    3    3    0    0  0.39651569302E+02  0.23793672363E+01  0.23020773012E+03  0.24697319550E+03  0.80138954025E+02 0.  0.
          6    2    1    2  501    0  0.47691022291E+02  0.27326565447E+02  0.10080063130E+04  0.10243316349E+04  0.17365885093E+03 0.  0.
         24    2    5    5    0    0  0.62601128854E+02 -0.35545693949E+02  0.44758111552E+03  0.46017409999E+03  0.79050298119E+02 0.  0.
          5    1    5    5  501    0 -0.14910106564E+02  0.62872259396E+02  0.56042519745E+03  0.56415753493E+03  0.47000000000E+01 0. -1.
        -11    1    6    6    0    0  0.10243266872E+02 -0.26480008806E+02  0.32910652787E+03  0.33032896038E+03  0.00000000000E+00 0.  1.
         12    1    6    6    0    0  0.52357861982E+02 -0.90656851428E+01  0.11847458766E+03  0.12984513961E+03  0.00000000000E+00 0. -1.
         -5    1    3    3    0  503 -0.87342591593E+02 -0.29705932683E+02  0.20097980707E+03  0.22119254868E+03  0.47000000000E+01 0.  1.
         13    1    4    4    0    0  0.27912447328E+02  0.49385293438E+01  0.23293445162E+03  0.23465283408E+03  0.00000000000E+00 0. -1.
        -14    1    4    4    0    0  0.11739121975E+02 -0.25591621076E+01 -0.27267215032E+01  0.12320361423E+02  0.00000000000E+00 0.  1.
</event>
<event>
12    1  0.1046899E+000  0.1903579E+03  0.7818608E-02  0.1158281E+00
         21   -1    0    0  501  502  0.00000000000E+00  0.00000000000E+00  0.13623587136E+03  0.13623587136E+03  0.00000000000E+00 0.  1.
         21   -1    0    0  502  503 -0.00000000000E+00 -0.00000000000E+00 -0.28555229592E+03  0.28555229592E+03  0.00000000000E+00 0.  1.
         -6    2    1    2    0  503 -0.68101506810E+02  0.44169931991E+02 -0.13097954105E+03  0.23054912556E+03  0.17148895299E+03 0.  0.
        -24    2    3    3    0    0 -0.11128792647E+02 -0.37815089611E+02 -0.63685342627E+02  0.11005832480E+03  0.80642302566E+02 0.  0.
          6    2    1    2  501    0  0.68101506810E+02 -0.44169931991E+02 -0.18336883501E+02  0.19123904173E+03  0.17218400525E+03 0.  0.
         24    2    5    5    0    0  0.20512271425E+01  0.16559448495E+02  0.32945601070E+02  0.87785282384E+02  0.79639313823E+02 0.  0.
          5    1    5    5  501    0  0.66050279667E+02 -0.60729380486E+02 -0.51282484571E+02  0.10345375934E+03  0.47000000000E+01 0. -1.
        -11    1    6    6    0    0  0.28053558567E+02 -0.18904601465E+02  0.17598669450E+01  0.33874521937E+02  0.00000000000E+00 0.  1.
         12    1    6    6    0    0 -0.26002331425E+02  0.35464049960E+02  0.31185734125E+02  0.53910760447E+02  0.00000000000E+00 0. -1.
         -5    1    3    3    0  503 -0.56972714163E+02  0.81985021602E+02 -0.67294198426E+02  0.12049080076E+03  0.47000000000E+01 0.  1.
         13    1    4    4    0    0 -0.46167511381E+02 -0.19353902621E+02 -0.38076592652E+02  0.62895465351E+02  0.00000000000E+00 0. -1.
        -14    1    4    4    0    0  0.35038718735E+02 -0.18461186990E+02 -0.25608749975E+02  0.47162859444E+02  0.00000000000E+00 0.  1.
</event>
<event>
12    1  0.1046899E+000  0.2210242E+03  0.7818608E-02  0.1135596E+00
         21   -1    0    0  501  502  0.00000000000E+00  0.00000000000E+00  0.37726507814E+03  0.37726507814E+03  0.00000000000E+00 0. -1.
         21   -1    0    0  502  503 -0.00000000000E+00 -0.00000000000E+00 -0.15563666550E+03  0.15563666550E+03  0.00000000000E+00 0. -1.
         -6    2    1    2    0  503 -0.79400168257E+02  0.89077664198E+02  0.23721454335E+03  0.32422590772E+03  0.18604430300E+03 0.  0.
        -24    2    3    3    0    0 -0.12799565776E+03  0.51967149609E+02  0.17778972105E+03  0.23883204728E+03  0.79674894763E+02 0.  0.
          6    2    1    2  501    0  0.79400168257E+02 -0.89077664198E+02 -0.15586130715E+02  0.20867583593E+03  0.17048008696E+03 0.  0.
         24    2    5    5    0    0  0.57532241810E+02 -0.35830231653E+02 -0.72301640346E+02  0.12772996319E+03  0.80583198946E+02 0.  0.
          5    1    5    5  501    0  0.21867926447E+02 -0.53247432545E+02  0.56715509632E+02  0.80945872733E+02  0.47000000000E+01 0. -1.
        -11    1    6    6    0    0  0.55011153628E+02 -0.62567696622E+01 -0.67549033442E+01  0.55776365149E+02  0.00000000000E+00 0.  1.
         12    1    6    6    0    0  0.25210881828E+01 -0.29573461991E+02 -0.65546737002E+02  0.71953598043E+02  0.00000000000E+00 0. -1.
         -5    1    3    3    0  503  0.48595489507E+02  0.37110514590E+02  0.59424822305E+02  0.85393860432E+02  0.47000000000E+01 0.  1.
         11    1    4    4    0    0 -0.38089369130E+01  0.21417898443E+02  0.64186544376E+02  0.67772758931E+02  0.00000000000E+00 0. -1.
        -12    1    4    4    0    0 -0.12418672085E+03  0.30549251166E+02  0.11360317667E+03  0.17105928835E+03  0.00000000000E+00 0.  1.
</event>
<event>
12    1  0.1046899E+000  0.2917057E+03  0.7818608E-02  0.1090568E+00
         21   -1    0    0  501  502  0.00000000000E+00  0.00000000000E+00  0.20355552473E+03  0.20355552473E+03  0.00000000000E+00 0. -1.
         21   -1    0    0  502  503 -0.00000000000E+00 -0.00000000000E+00 -0.40615789330E+03  0.40615789330E+03  0.00000000000E+00 0. -1.
         -6    2    1    2    0  503 -0.15610772283E+03  0.17607209421E+03 -0.95471662569E+02  0.29895752866E+03  0.15776489502E+03 0.  0.
        -24    2    3    3    0    0 -0.14135599271E+03  0.10102281807E+03 -0.10963973238E+03  0.22102915390E+03  0.81522325228E+02 0.  0.
          6    2    1    2  501    0  0.15610772283E+03 -0.17607209421E+03 -0.10713070600E+03  0.31075588938E+03  0.17239846614E+03 0.  0.
         24    2    5    5    0    0  0.19063267673E+02 -0.10917205431E+02 -0.76042130164E+02  0.93855198913E+02  0.50436090790E+02 0.  0.
          5    1    5    5  501    0  0.13704445516E+03 -0.16515488878E+03 -0.31088575839E+02  0.21690069046E+03  0.47000000000E+01 0. -1.
        -13    1    6    6    0    0  0.23111261121E+02 -0.24311615563E+02 -0.71774690891E+02  0.79226203332E+02  0.00000000000E+00 0.  1.
         14    1    6    6    0    0 -0.40479934479E+01  0.13394410132E+02 -0.42674392728E+01  0.14628995580E+02  0.00000000000E+00 0. -1.
         -5    1    3    3    0  503 -0.14751730121E+02  0.75049276140E+02  0.14168069813E+02  0.77928374762E+02  0.47000000000E+01 0.  1.
         13    1    4    4    0    0 -0.37625203328E+02  0.58589261743E+01 -0.61349909405E+02  0.72206608599E+02  0.00000000000E+00 0. -1.
        -14    1    4    4    0    0 -0.10373078938E+03  0.95163891894E+02 -0.48289822977E+02  0.14882254530E+03  0.00000000000E+00 0.  1.
</event>
<event>
12    1  0.1633762E+000  0.3034317E+03  0.7818608E-02  0.1083694E+00
         21   -1    0    0  501  502  0.00000000000E+00  0.00000000000E+00  0.13597588874E+04  0.13597588874E+04  0.00000000000E+00 0. -1.
         21   -1    0    0  502  503 -0.00000000000E+00 -0.00000000000E+00 -0.50586058011E+03  0.50586058011E+03  0.00000000000E+00 0. -1.
         -6    2    1    2    0  503 -0.10466143943E+03  0.22637163557E+03  0.12952480407E+04  0.13300259582E+04  0.17059726928E+03 0.  0.
        -24    2    3    3    0    0 -0.77232017100E+02  0.94350427054E+02  0.42318848102E+03  0.44759072640E+03  0.79888549516E+02 0.  0.
          6    2    1    2  501    0  0.10466143943E+03 -0.22637163557E+03 -0.44134973343E+03  0.53559350927E+03  0.17283716522E+03 0.  0.
         24    2    5    5    0    0  0.84183942494E+02 -0.20393149411E+03 -0.44717083938E+03  0.50430672126E+03  0.75422271613E+02 0.  0.
          5    1    5    5  501    0  0.20477496935E+02 -0.22440141456E+02  0.58211059490E+01  0.31286788007E+02  0.47000000000E+01 0. -1.
        -13    1    6    6    0    0  0.75294382921E+01 -0.46589689626E+02 -0.17061287163E+03  0.17701989602E+03  0.00000000000E+00 0.  1.
         14    1    6    6    0    0  0.76654504202E+02 -0.15734180449E+03 -0.27655796775E+03  0.32728682525E+03  0.00000000000E+00 0. -1.
         -5    1    3    3    0  503 -0.27429422329E+02  0.13202120852E+03  0.87205955966E+03  0.88243523179E+03  0.47000000000E+01 0.  1.
         13    1    4    4    0    0  0.10111501982E+02 -0.48538459965E+01  0.61348990238E+02  0.62365863231E+02  0.00000000000E+00 0. -1.
        -14    1    4    4    0    0 -0.87343519083E+02  0.99204273050E+02  0.36183949078E+03  0.38522486317E+03  0.00000000000E+00 0.  1.
</event>
<event>
12    1  0.1046899E+000  0.2014439E+03  0.7818608E-02  0.1148956E+00
         21   -1    0    0  501  502  0.00000000000E+00  0.00000000000E+00  0.61488938108E+03  0.61488938108E+03  0.00000000000E+00 0. -1.
         21   -1    0    0  502  503 -0.00000000000E+00 -0.00000000000E+00 -0.73044388385E+02  0.73044388385E+02  0.00000000000E+00 0. -1.
         -6    2    1    2    0  503  0.39372444683E+02  0.91621070111E+02  0.38148885900E+03  0.43045805718E+03  0.17267246324E+03 0.  0.
        -24    2    3    3    0    0  0.14106570828E+01  0.81776381557E+01  0.29772740548E+03  0.30619231471E+03  0.71015927079E+02 0.  0.
          6    2    1    2  501    0 -0.39372444683E+02 -0.91621070111E+02  0.16035613369E+03  0.25747571228E+03  0.17502869169E+03 0.  0.
         24    2    5    5    0    0  0.44729129304E+02 -0.69865508476E+02  0.97968426447E+02  0.15042107565E+03  0.78401550599E+02 0.  0.
          5    1    5    5  501    0 -0.84101573986E+02 -0.21755561636E+02  0.62387707244E+02  0.10705463663E+03  0.47000000000E+01 0. -1.
        -13    1    6    6    0    0  0.29667203231E+02 -0.83233501038E+02  0.58092338187E+02  0.10574818390E+03  0.00000000000E+00 0.  1.
         14    1    6    6    0    0  0.15061926072E+02  0.13367992562E+02  0.39876088261E+02  0.44672891748E+02  0.00000000000E+00 0. -1.
         -5    1    3    3    0  503  0.37961787600E+02  0.83443431956E+02  0.83761453525E+02  0.12426574247E+03  0.47000000000E+01 0.  1.
         13    1    4    4    0    0  0.10616023129E+02 -0.10783956355E+02  0.11041381456E+02  0.18732478912E+02  0.00000000000E+00 0. -1.
        -14    1    4    4    0    0 -0.92053660466E+01  0.18961594510E+02  0.28668602402E+03  0.28745983580E+03  0.00000000000E+00 0.  1.
</event>
<event>
12    1  0.1046899E+000  0.1754829E+03  0.7818608E-02  0.1172742E+00
         21   -1    0    0  501  502  0.00000000000E+00  0.00000000000E+00  0.66174805133E+02  0.66174805133E+02  0.00000000000E+00 0.  1.
         21   -1    0    0  502  503 -0.00000000000E+00 -0.00000000000E+00 -0.66171048484E+03  0.66171048484E+03  0.00000000000E+00 0.  1.
         -6    2    1    2    0  503 -0.21667035372E+02 -0.63187639179E+00 -0.98073895539E+02  0.20102920690E+03  0.17413900583E+03 0.  0.
        -24    2    3    3    0    0 -0.48534456945E+02 -0.58276328817E+02 -0.54371876517E+02  0.12372010197E+03  0.81232005178E+02 0.  0.
          6    2    1    2  501    0  0.21667035372E+02  0.63187639179E+00 -0.49746178417E+03  0.52685608308E+03  0.17216052357E+03 0.  0.
         24    2    5    5    0    0  0.16835532734E+01  0.30099266227E+02 -0.47907431671E+03  0.48650939077E+03  0.79185770166E+02 0.  0.
          5    1    5    5  501    0  0.19983482099E+02 -0.29467389835E+02 -0.18387467457E+02  0.40346692305E+02  0.47000000000E+01 0. -1.
        -11    1    6    6    0    0  0.79380066212E+01 -0.23101236867E+02 -0.74453433286E+02  0.78358106294E+02  0.00000000000E+00 0.  1.
         12    1    6    6    0    0 -0.62544533478E+01  0.53200503094E+02 -0.40462088343E+03  0.40815128448E+03  0.00000000000E+00 0. -1.
         -5    1    3    3    0  503  0.26867421573E+02  0.57644452426E+02 -0.43702019022E+02  0.77309104923E+02  0.47000000000E+01 0.  1.
         13    1    4    4    0    0 -0.55318990592E+02 -0.21605072337E+02 -0.19937659330E+01  0.59421755052E+02  0.00000000000E+00 0. -1.
        -14    1    4    4    0    0  0.67845336473E+01 -0.36671256481E+02 -0.52378110584E+02  0.64298346923E+02  0.00000000000E+00 0.  1.
</event>
<event>
12    1  0.1046899E+000  0.2605180E+03  0.7818608E-02  0.1106918E+00
         21   -1    0    0  503  502  0.00000000000E+00  0.00000000000E+00  0.17307419535E+03  0.17307419535E+03  0.00000000000E+00 0. -1.
         21   -1    0    0  501  503 -0.00000000000E+00 -0.00000000000E+00 -0.54230757661E+03  0.54230757661E+03  0.00000000000E+00 0. -1.
          6    2    1    2  501    0 -0.16824487258E+03 -0.10025499889E+03  0.39985324173E+01  0.26054870636E+03  0.17179126338E+03 0.  0.
         24    2    3    3    0    0 -0.89848955870E+02 -0.20013499451E+02  0.57495777278E+02  0.13617562569E+03  0.82247562855E+02 0.  0.
         -6    2    1    2    0  502  0.16824487258E+03  0.10025499889E+03 -0.37323191368E+03  0.45483306560E+03  0.17092002288E+03 0.  0.
        -24    2    5    5    0    0  0.23104786175E+02  0.74469698637E+02 -0.15653508947E+03  0.19270689366E+03  0.80951500731E+02 0.  0.
          5    1    3    3  501    0 -0.78395916710E+02 -0.80241499436E+02 -0.53497244861E+02  0.12437308067E+03  0.47000000000E+01 0. -1.
        -11    1    4    4    0    0 -0.99250107617E+02 -0.21262767859E+02  0.28146923319E+02  0.10533251374E+03  0.00000000000E+00 0.  1.
         12    1    4    4    0    0  0.94011517477E+01  0.12492684076E+01  0.29348853959E+02  0.30843111945E+02  0.00000000000E+00 0. -1.
         -5    1    5    5    0  502  0.14514008640E+03  0.25785300250E+02 -0.21669682421E+03  0.26212617194E+03  0.47000000000E+01 0.  1.
         13    1    6    6    0    0  0.29863684730E+02 -0.68128436101E+01 -0.48002759132E+02  0.56943124150E+02  0.00000000000E+00 0. -1.
        -14    1    6    6    0    0 -0.67588985541E+01  0.81282542247E+02 -0.10853233034E+03  0.13576376951E+03  0.00000000000E+00 0.  1.
</event>
<event>
12    1  0.1046899E+000  0.1851347E+03  0.7818608E-02  0.1163438E+00
         21   -1    0    0  501  502  0.00000000000E+00  0.00000000000E+00  0.18574769040E+03  0.18574769040E+03  0.00000000000E+00 0.  1.
         21   -1    0    0  502  503 -0.00000000000E+00 -0.00000000000E+00 -0.20459128054E+03  0.20459128054E+03  0.00000000000E+00 0.  1.
         -6    2    1    2    0  503 -0.66552902775E+02  0.89867509072E+01  0.54881630264E+02  0.19309799639E+03  0.17252475854E+03 0.  0.
        -24    2    3    3    0    0 -0.51297251140E+02 -0.62305451723E+02  0.44865159403E+02  0.11935701219E+03  0.75629600959E+02 0.  0.
          6    2    1    2  501    0  0.66552902775E+02 -0.89867509072E+01 -0.73725220396E+02  0.19724097455E+03  0.17017209924E+03 0.  0.
         24    2    5    5    0    0  0.18957477836E+02  0.41031267640E+02 -0.86250002538E+02  0.12691255339E+03  0.81392766145E+02 0.  0.
          5    1    5    5  501    0  0.47595424939E+02 -0.50018018547E+02  0.12524782143E+02  0.70328421155E+02  0.47000000000E+01 0. -1.
        -11    1    6    6    0    0  0.35795564078E+02  0.47602163200E+02 -0.90504614221E+02  0.10834377483E+03  0.00000000000E+00 0.  1.
         12    1    6    6    0    0 -0.16838086242E+02 -0.65708955601E+01  0.42546116830E+01  0.18568778563E+02  0.00000000000E+00 0. -1.
         -5    1    3    3    0  503 -0.15255651635E+02  0.71292202630E+02  0.10016470861E+02  0.73740984202E+02  0.47000000000E+01 0.  1.
         11    1    4    4    0    0 -0.48221676215E+02 -0.66727540112E+02  0.60923994109E+02  0.10241888363E+03  0.00000000000E+00 0. -1.
        -12    1    4    4    0    0 -0.30755749254E+01  0.44220883889E+01 -0.16058834706E+02  0.16938128556E+02  0.00000000000E+00 0.  1.
</event>
<event>
12    1  0.1046899E+000  0.1861866E+03  0.7818608E-02  0.1162086E+00
         21   -1    0    0  503  502  0.00000000000E+00  0.00000000000E+00  0.18518999364E+03  0.18518999364E+03  0.00000000000E+00 0.  1.
         21   -1    0    0  501  503 -0.00000000000E+00 -0.00000000000E+00 -0.18678972521E+03  0.18678972521E+03  0.00000000000E+00 0.  1.
          6    2    1    2  501    0  0.13747864323E+02 -0.73610322958E+02  0.54003911068E+01  0.18566160440E+03  0.16980454559E+03 0.  0.
         24    2    3    3    0    0 -0.38714039548E+02 -0.17208758542E+02 -0.37127908972E+02  0.97547280173E+02  0.79637127119E+02 0.  0.
         -6    2    1    2    0  502 -0.13747864323E+02  0.73610322958E+02 -0.70001226709E+01  0.18631811445E+03  0.17046393940E+03 0.  0.
        -24    2    5    5    0    0  0.37018027786E+02  0.11962484069E+02 -0.43381594004E+02  0.98435617345E+02  0.79335822032E+02 0.  0.
          5    1    3    3  501    0  0.52461903871E+02 -0.56401564416E+02  0.42528300078E+02  0.88114324226E+02  0.47000000000E+01 0. -1.
        -11    1    4    4    0    0 -0.26980813237E+02  0.21924838533E+02  0.90164951748E+01  0.35916013321E+02  0.00000000000E+00 0.  1.
         12    1    4    4    0    0 -0.11733226311E+02 -0.39133597075E+02 -0.46144404147E+02  0.61631266852E+02  0.00000000000E+00 0. -1.
         -5    1    5    5    0  502 -0.50765892109E+02  0.61647838889E+02  0.36381471333E+02  0.87882497107E+02  0.47000000000E+01 0.  1.
         13    1    6    6    0    0 -0.11241209265E+01  0.33292246090E+02 -0.43430771674E+02  0.54734534124E+02  0.00000000000E+00 0. -1.
        -14    1    6    6    0    0  0.38142148713E+02 -0.21329762021E+02  0.49177670171E-01  0.43701083222E+02  0.00000000000E+00 0.  1.
</event>
<event>
12    1  0.1046899E+000  0.1803163E+03  0.7818608E-02  0.1167518E+00
         21   -1    0    0  501  502  0.00000000000E+00  0.00000000000E+00  0.72335169381E+03  0.72335169381E+03  0.00000000000E+00 0. -1.
         21   -1    0    0  502  503 -0.00000000000E+00 -0.00000000000E+00 -0.46809513677E+02  0.46809513677E+02  0.00000000000E+00 0. -1.
         -6    2    1    2    0  503 -0.53804087111E+02  0.98691341856E+00  0.26114239509E+03  0.31734730991E+03  0.17209913074E+03 0.  0.
        -24    2    3    3    0    0 -0.35348922883E+02 -0.45280467554E+02  0.24606722295E+03  0.26509202842E+03  0.80155088594E+02 0.  0.
          6    2    1    2  501    0  0.53804087111E+02 -0.98691341856E+00  0.41539978504E+03  0.45281389758E+03  0.17201043760E+03 0.  0.
         24    2    5    5    0    0  0.33757384428E+02 -0.64384294023E+02  0.30606012692E+03  0.32475785909E+03  0.80684369180E+02 0.  0.
          5    1    5    5  501    0  0.20046702683E+02  0.63397380604E+02  0.10933965812E+03  0.12805603849E+03  0.47000000000E+01 0. -1.
        -11    1    6    6    0    0 -0.52062487119E+01 -0.51945347248E+02  0.24982668162E+03  0.25522302987E+03  0.00000000000E+00 0.  1.
         12    1    6    6    0    0  0.38963633140E+02 -0.12438946774E+02  0.56233445299E+02  0.69534829219E+02  0.00000000000E+00 0. -1.
         -5    1    3    3    0  503 -0.18455164228E+02  0.46267380973E+02  0.15075172142E+02  0.52255281492E+02  0.47000000000E+01 0.  1.
         13    1    4    4    0    0 -0.99289585468E+01  0.83386918151E+00  0.18151017321E+03  0.18178344956E+03  0.00000000000E+00 0. -1.
        -14    1    4    4    0    0 -0.25419964337E+02 -0.46114336735E+02  0.64557049743E+02  0.83308578855E+02  0.00000000000E+00 0.  1.
</event>
<event>
12    1  0.1046899E+000  0.2048846E+03  0.7818608E-02  0.1145991E+00
         21   -1    0    0  501  502  0.00000000000E+00  0.00000000000E+00  0.18524212636E+03  0.18524212636E+03  0.00000000000E+00 0.  1.
         21   -1    0    0  502  503 -0.00000000000E+00 -0.00000000000E+00 -0.24968155407E+03  0.24968155407E+03  0.00000000000E+00 0.  1.
         -6    2    1    2    0  503  0.79527471617E+02  0.77894092544E+02  0.36116436742E+02  0.20804351526E+03  0.17200464774E+03 0.  0.
        -24    2    3    3    0    0  0.30060940654E+02  0.89138808464E+02 -0.27052582286E+02  0.12689059611E+03  0.80746478844E+02 0.  0.
          6    2    1    2  501    0 -0.79527471617E+02 -0.77894092544E+02 -0.10055586446E+03  0.22688016517E+03  0.17020875146E+03 0.  0.
         24    2    5    5    0    0 -0.31144930110E+02 -0.26125995794E+02 -0.12288183851E+03  0.15243995237E+03  0.80532096181E+02 0.  0.
          5    1    5    5  501    0 -0.48382541507E+02 -0.51768096750E+02  0.22325974052E+02  0.74440212797E+02  0.47000000000E+01 0. -1.
        -13    1    6    6    0    0 -0.17702281851E+02  0.99213780913E+01  0.32676358539E+01  0.20554366204E+02  0.00000000000E+00 0.  1.
         14    1    6    6    0    0 -0.13442648259E+02 -0.36047373885E+02 -0.12614947436E+03  0.13188558617E+03  0.00000000000E+00 0. -1.
         -5    1    3    3    0  503  0.49466530963E+02 -0.11244715919E+02  0.63169019029E+02  0.81152919150E+02  0.47000000000E+01 0.  1.
         13    1    4    4    0    0  0.29497184655E+02  0.81073566764E+02  0.11916228023E+02  0.87091926266E+02  0.00000000000E+00 0. -1.
        -14    1    4    4    0    0  0.56375599956E+00  0.80652416996E+01 -0.38968810309E+02  0.39798669845E+02  0.00000000000E+00 0.  1.
</event>
<event>
12    1  0.1046899E+000  0.2250992E+03  0.7818608E-02  0.1130690E+00
         21   -1    0    0  501  502  0.00000000000E+00  0.00000000000E+00  0.12945176684E+03  0.12945176684E+03  0.00000000000E+00 0.  1.
         21   -1    0    0  502  503 -0.00000000000E+00 -0.00000000000E+00 -0.42855077936E+03  0.42855077936E+03  0.00000000000E+00 0.  1.
         -6    2    1    2    0  503 -0.11016807485E+03  0.99029590477E+02 -0.60895472830E+02  0.23026704617E+03  0.16544119631E+03 0.  0.
        -24    2    3    3    0    0 -0.45621319752E+02 -0.95062482874E+01 -0.44355746043E+02  0.10282308024E+03  0.80208977371E+02 0.  0.
          6    2    1    2  501    0  0.11016807485E+03 -0.99029590477E+02 -0.23820353969E+03  0.32773550003E+03  0.16948677574E+03 0.  0.
         24    2    5    5    0    0  0.69635651776E+02 -0.33290247868E+02 -0.45434521462E+02  0.12001808892E+03  0.79891684969E+02 0.  0.
          5    1    5    5  501    0  0.40532423074E+02 -0.65739342609E+02 -0.19276901823E+03  0.20771741111E+03  0.47000000000E+01 0. -1.
        -13    1    6    6    0    0  0.14005949177E+01 -0.42145796218E+02 -0.19859992238E+02  0.46611684122E+02  0.00000000000E+00 0.  1.
         14    1    6    6    0    0  0.68235056858E+02  0.88555483498E+01 -0.25574529224E+02  0.73406404803E+02  0.00000000000E+00 0. -1.
         -5    1    3    3    0  503 -0.64546755099E+02  0.10853583876E+03 -0.16539726787E+02  0.12744396593E+03  0.47000000000E+01 0.  1.
         13    1    4    4    0    0  0.65315413227E+01 -0.33323722177E+02 -0.78493942115E+01  0.34853184664E+02  0.00000000000E+00 0. -1.
        -14    1    4    4    0    0 -0.52152861074E+02  0.23817473889E+02 -0.36506351831E+02  0.67969895577E+02  0.00000000000E+00 0.  1.
</event>
<event>
12    1  0.1046899E+000  0.3984845E+03  0.7818608E-02  0.1044346E+00
         21   -1    0    0  503  502  0.00000000000E+00  0.00000000000E+00  0.71258941590E+03  0.71258941590E+03  0.00000000000E+00 0. -1.
         21   -1    0    0  501  503 -0.00000000000E+00 -0.00000000000E+00 -0.31551373278E+03  0.31551373278E+03  0.00000000000E+00 0. -1.
          6    2    1    2  501    0  0.12984589057E+03 -0.33498012165E+03  0.47744955496E+03  0.62159378018E+03  0.17131582771E+03 0.  0.
         24    2    3    3    0    0  0.22262584842E+02 -0.20960978583E+03  0.32880551652E+03  0.39931236184E+03  0.83098794349E+02 0.  0.
         -6    2    1    2    0  502 -0.12984589057E+03  0.33498012165E+03 -0.80373871846E+02  0.40650936850E+03  0.17238987848E+03 0.  0.
        -24    2    5    5    0    0 -0.48362350899E+02  0.28712138012E+03 -0.43146966902E+02  0.30483361509E+03  0.79273376566E+02 0.  0.
          5    1    3    3  501    0  0.10758330573E+03 -0.12537033581E+03  0.14864403845E+03  0.22228141834E+03  0.47000000000E+01 0. -1.
        -11    1    4    4    0    0  0.52275207944E+02 -0.16241135684E+03  0.25030629047E+03  0.30292471878E+03  0.00000000000E+00 0.  1.
         12    1    4    4    0    0 -0.30012623102E+02 -0.47198428992E+02  0.78499226048E+02  0.96387643062E+02  0.00000000000E+00 0. -1.
         -5    1    5    5    0  502 -0.81483539675E+02  0.47858741528E+02 -0.37226904944E+02  0.10167575340E+03  0.47000000000E+01 0.  1.
         11    1    6    6    0    0 -0.29186488242E+02  0.25045420546E+02 -0.11597007765E+02  0.40169824188E+02  0.00000000000E+00 0. -1.
        -12    1    6    6    0    0 -0.19175862657E+02  0.26207595957E+03 -0.31549959137E+02  0.26466379090E+03  0.00000000000E+00 0.  1.
</event>
<event>
12    1  0.1046899E+000  0.1880067E+03  0.7818608E-02  0.1162280E+00
         21   -1    0    0  503  502  0.00000000000E+00  0.00000000000E+00  0.91696690671E+02  0.91696690671E+02  0.00000000000E+00 0.  1.
         21   -1    0    0  501  503 -0.00000000000E+00 -0.00000000000E+00 -0.48369952958E+03  0.48369952958E+03  0.00000000000E+00 0.  1.
          6    2    1    2  501    0 -0.43881674415E+02 -0.29019434538E+02 -0.33313611333E+03  0.37838912203E+03  0.17155444832E+03 0.  0.
         24    2    3    3    0    0  0.36524221761E+02 -0.51234664150E+02 -0.12222809842E+03  0.15153475174E+03  0.63750006722E+02 0.  0.
         -6    2    1    2    0  502  0.43881674415E+02  0.29019434538E+02 -0.58866725583E+02  0.19700709822E+03  0.18049591806E+03 0.  0.
        -24    2    5    5    0    0  0.42762852834E+02  0.90242052112E+02 -0.46820078052E+02  0.13442377471E+03  0.76846222726E+02 0.  0.
          5    1    3    3  501    0 -0.80405896176E+02  0.22215229612E+02 -0.21090801491E+03  0.22685437029E+03  0.47000000000E+01 0. -1.
        -13    1    4    4    0    0 -0.10276239536E+02 -0.30568168454E+02 -0.76092841108E+02  0.82644627711E+02  0.00000000000E+00 0.  1.
         14    1    4    4    0    0  0.46800461297E+02 -0.20666495697E+02 -0.46135257308E+02  0.68890124030E+02  0.00000000000E+00 0. -1.
         -5    1    5    5    0  502  0.11188215815E+01 -0.61222617574E+02 -0.12046647531E+02  0.62583323506E+02  0.47000000000E+01 0.  1.
         11    1    6    6    0    0  0.54077092707E+02  0.30497762510E+02 -0.87874815876E+01  0.62702992803E+02  0.00000000000E+00 0. -1.
        -12    1    6    6    0    0 -0.11314239873E+02  0.59744289602E+02 -0.38032596464E+02  0.71720781910E+02  0.00000000000E+00 0.  1.
</event>
<event>
12    1  0.1046899E+000  0.2355149E+03  0.7818608E-02  0.1122880E+00
         21   -1    0    0  501  502  0.00000000000E+00  0.00000000000E+00  0.16892410322E+03  0.16892410322E+03  0.00000000000E+00 0. -1.
         21   -1    0    0  502  503 -0.00000000000E+00 -0.00000000000E+00 -0.40259174491E+03  0.40259174491E+03  0.00000000000E+00 0. -1.
         -6    2    1    2    0  503  0.17416458695E+01 -0.15830367553E+03  0.63673879948E+01  0.23523605826E+03  0.17387458831E+03 0.  0.
        -24    2    3    3    0    0 -0.40816782624E+02 -0.37524905854E+02  0.35596553058E+02  0.10380103579E+03  0.80208554027E+02 0.  0.
          6    2    1    2  501    0 -0.17416458695E+01  0.15830367553E+03 -0.24003502969E+03  0.33627978987E+03  0.17436798612E+03 0.  0.
         24    2    5    5    0    0  0.13117004919E+02  0.15267182749E+02 -0.44779908467E+02  0.93737277858E+02  0.79851702367E+02 0.  0.
          5    1    5    5  501    0 -0.14858650788E+02  0.14303649278E+03 -0.19525512122E+03  0.24254251201E+03  0.47000000000E+01 0. -1.
        -11    1    6    6    0    0  0.20225900203E+02  0.17595742090E+01  0.19211165245E+02  0.27950885683E+02  0.00000000000E+00 0.  1.
         12    1    6    6    0    0 -0.71088952843E+01  0.13507608540E+02 -0.63991073711E+02  0.65786392175E+02  0.00000000000E+00 0. -1.
         -5    1    3    3    0  503  0.42558428494E+02 -0.12077876968E+03 -0.29229165063E+02  0.13143502247E+03  0.47000000000E+01 0.  1.
         11    1    4    4    0    0  0.12485878870E+02 -0.41701766145E+02  0.21266496637E+02  0.48447893143E+02  0.00000000000E+00 0. -1.
        -12    1    4    4    0    0 -0.53302661494E+02  0.41768602914E+01  0.14330056420E+02  0.55353142651E+02  0.00000000000E+00 0.  1.
</event>
<event>
12    1  0.1046899E+000  0.1768892E+03  0.7818608E-02  0.1171109E+00
         21   -1    0    0  501  502  0.00000000000E+00  0.00000000000E+00  0.35300759804E+02  0.35300759804E+02  0.00000000000E+00 0. -1.
         21   -1    0    0  502  503 -0.00000000000E+00 -0.00000000000E+00 -0.88247141878E+03  0.88247141878E+03  0.00000000000E+00 0. -1.
         -6    2    1    2    0  503  0.36437580516E+02  0.24368830318E+02 -0.40694620147E+03  0.44372853871E+03  0.17137172463E+03 0.  0.
        -24    2    3    3    0    0 -0.86690642139E+01  0.13468234489E+02 -0.38247955809E+03  0.39105844257E+03  0.79872067311E+02 0.  0.
          6    2    1    2  501    0 -0.36437580516E+02 -0.24368830318E+02 -0.44022445751E+03  0.47404363988E+03  0.17028876170E+03 0.  0.
         24    2    5    5    0    0  0.15976733468E+02  0.41556727944E+02 -0.23974865043E+03  0.25654403353E+03  0.79707014150E+02 0.  0.
          5    1    5    5  501    0 -0.52414313984E+02 -0.65925558262E+02 -0.20047580708E+03  0.21749960636E+03  0.47000000000E+01 0. -1.
        -11    1    6    6    0    0 -0.72910283825E+01  0.60137042119E+02 -0.17722654151E+03  0.18729353952E+03  0.00000000000E+00 0.  1.
         12    1    6    6    0    0  0.23267761851E+02 -0.18580314175E+02 -0.62522108916E+02  0.69250494003E+02  0.00000000000E+00 0. -1.
         -5    1    3    3    0  503  0.45106644730E+02  0.10900595828E+02 -0.24466643386E+02  0.52670096134E+02  0.47000000000E+01 0.  1.
         13    1    4    4    0    0 -0.35801233516E+02  0.19218236145E+02 -0.11167957783E+03  0.11884189929E+03  0.00000000000E+00 0. -1.
        -14    1    4    4    0    0  0.27132169302E+02 -0.57500016559E+01 -0.27079998026E+03  0.27221654329E+03  0.00000000000E+00 0.  1.
</event>
<event>
12    1  0.1046899E+000  0.1955597E+03  0.7818608E-02  0.1153849E+00
         21   -1    0    0  501  502  0.00000000000E+00  0.00000000000E+00  0.12169816235E+03  0.12169816235E+03  0.00000000000E+00 0.  1.
         21   -1    0    0  502  503 -0.00000000000E+00 -0.00000000000E+00 -0.42541757218E+03  0.42541757218E+03  0.00000000000E+00 0.  1.
         -6    2    1    2    0  503 -0.30855990913E+02 -0.86120115110E+02 -0.10196710545E+02  0.19441306239E+03  0.17124164073E+03 0.  0.
        -24    2    3    3    0    0  0.15542463752E+02 -0.92308704606E+02 -0.49824476338E+02  0.13290237179E+03  0.80113025537E+02 0.  0.
          6    2    1    2  501    0  0.30855990913E+02  0.86120115110E+02 -0.29352269928E+03  0.35270267214E+03  0.17284337865E+03 0.  0.
         24    2    5    5    0    0 -0.15265109552E+02  0.66555153282E+01 -0.23207364458E+03  0.24206879464E+03  0.66796746775E+02 0.  0.
          5    1    5    5  501    0  0.46121100464E+02  0.79464599782E+02 -0.61449054705E+02  0.11063387750E+03  0.47000000000E+01 0. -1.
        -13    1    6    6    0    0  0.14897170793E+02  0.26877787822E+02 -0.79485645610E+02  0.85219182312E+02  0.00000000000E+00 0.  1.
         14    1    6    6    0    0 -0.30162280344E+02 -0.20222272494E+02 -0.15258799897E+03  0.15684961233E+03  0.00000000000E+00 0. -1.
         -5    1    3    3    0  503 -0.46398454665E+02  0.61885894958E+01  0.39627765793E+02  0.61510690591E+02  0.47000000000E+01 0.  1.
         11    1    4    4    0    0 -0.84946435603E+01 -0.94144053658E+02 -0.23899481533E+02  0.97501010384E+02  0.00000000000E+00 0. -1.
        -12    1    4    4    0    0  0.24037107312E+02  0.18353490516E+01 -0.25924994806E+02  0.35401361411E+02  0.00000000000E+00 0.  1.
</event>
<event>
12    1  0.1046899E+000  0.1957749E+03  0.7818608E-02  0.1155483E+00
         21   -1    0    0  501  502  0.00000000000E+00  0.00000000000E+00  0.86562462080E+03  0.86562462080E+03  0.00000000000E+00 0.  1.
         21   -1    0    0  502  503 -0.00000000000E+00 -0.00000000000E+00 -0.49035324713E+02  0.49035324713E+02  0.00000000000E+00 0.  1.
         -6    2    1    2    0  503 -0.55280792764E+01  0.76568024709E+02  0.24565278626E+03  0.31412272025E+03  0.18009600194E+03 0.  0.
        -24    2    3    3    0    0  0.97082659919E+01  0.48152024230E+02  0.33173612911E+02  0.99159689929E+02  0.79493947236E+02 0.  0.
          6    2    1    2  501    0  0.55280792764E+01 -0.76568024709E+02  0.57093650983E+03  0.60053722526E+03  0.16965623655E+03 0.  0.
         24    2    5    5    0    0 -0.49844577531E+01  0.11574363218E+02  0.15550165024E+03  0.17569865999E+03  0.80811169958E+02 0.  0.
          5    1    5    5  501    0  0.10512537030E+02 -0.88142387927E+02  0.41543485958E+03  0.42483856527E+03  0.47000000000E+01 0. -1.
        -13    1    6    6    0    0 -0.42890703934E+02  0.78956292367E+01  0.87158524804E+02  0.97460565826E+02  0.00000000000E+00 0.  1.
         14    1    6    6    0    0  0.37906246181E+02  0.36787339811E+01  0.68343125438E+02  0.78238094161E+02  0.00000000000E+00 0. -1.
         -5    1    3    3    0  503 -0.15236345268E+02  0.28416000479E+02  0.21247917335E+03  0.21496303032E+03  0.47000000000E+01 0.  1.
         13    1    4    4    0    0  0.22312650748E+02  0.77034614722E+00 -0.17710779262E+02  0.28497710761E+02  0.00000000000E+00 0. -1.
        -14    1    4    4    0    0 -0.12604384756E+02  0.47381678083E+02  0.50884392173E+02  0.70661979167E+02  0.00000000000E+00 0.  1.
</event>
<event>
12    1  0.1046899E+000  0.2748413E+03  0.7818608E-02  0.1098551E+00
         21   -1    0    0  503  502  0.00000000000E+00  0.00000000000E+00  0.39453164379E+03  0.39453164379E+03  0.00000000000E+00 0.  1.
         21   -1    0    0  501  503 -0.00000000000E+00 -0.00000000000E+00 -0.20717953284E+03  0.20717953284E+03  0.00000000000E+00 0. -1.
          6    2    1    2  501    0  0.14810495654E+03 -0.15509629295E+03  0.17667202655E+03  0.32666247079E+03  0.17177143716E+03 0.  0.
         24    2    3    3    0    0  0.84646602717E+02 -0.12715385818E+03  0.18926240797E+03  0.25603421841E+03  0.80000693280E+02 0.  0.
         -6    2    1    2    0  502 -0.14810495654E+03  0.15509629295E+03  0.10680084406E+02  0.27504870584E+03  0.17189470074E+03 0.  0.
        -24    2    5    5    0    0 -0.12938161450E+03  0.44361682140E+02 -0.18401307936E+02  0.15894299991E+03  0.78846103736E+02 0.  0.
          5    1    3    3  501    0  0.63458353821E+02 -0.27942434772E+02 -0.12590381420E+02  0.70628252385E+02  0.47000000000E+01 0. -1.
        -11    1    4    4    0    0  0.30651958683E+02 -0.62539223670E+02  0.14510400860E+03  0.16095300674E+03  0.00000000000E+00 0.  1.
         12    1    4    4    0    0  0.53994644034E+02 -0.64614634506E+02  0.44158399370E+02  0.95081211664E+02  0.00000000000E+00 0. -1.
         -5    1    5    5    0  502 -0.18723342039E+02  0.11073461081E+03  0.29081392342E+02  0.11610570593E+03  0.47000000000E+01 0.  1.
         11    1    6    6    0    0 -0.12586945466E+03  0.32666495995E+02  0.75541562457E+01  0.13025853083E+03  0.00000000000E+00 0. -1.
        -12    1    6    6    0    0 -0.35121598394E+01  0.11695186145E+02 -0.25955464182E+02  0.28684469083E+02  0.00000000000E+00 0.  1.
</event>
<event>
12    1  0.1046899E+000  0.2022367E+03  0.7818608E-02  0.1147965E+00
         21   -1    0    0  501  502  0.00000000000E+00  0.00000000000E+00  0.71558966792E+03  0.71558966792E+03  0.00000000000E+00 0.  1.
         21   -1    0    0  502  503 -0.00000000000E+00 -0.00000000000E+00 -0.12787677428E+03  0.12787677428E+03  0.00000000000E+00 0.  1.
         -6    2    1    2    0  503 -0.76185742109E+02  0.72167933710E+02  0.60763088022E+03  0.64025128734E+03  0.17231931518E+03 0.  0.
        -24    2    3    3    0    0 -0.99245215190E+02  0.52317367047E+02  0.58783357232E+03  0.60364790367E+03  0.79093382998E+02 0.  0.
          6    2    1    2  501    0  0.76185742109E+02 -0.72167933710E+02 -0.19917986581E+02  0.20321515486E+03  0.17287913413E+03 0.  0.
         24    2    5    5    0    0  0.34672926177E+02 -0.56014689303E+02 -0.77822632567E+02  0.13000805672E+03  0.80659007212E+02 0.  0.
          5    1    5    5  501    0  0.41512815932E+02 -0.16153244407E+02  0.57904645985E+02  0.73207098141E+02  0.47000000000E+01 0. -1.
        -11    1    6    6    0    0 -0.33381226238E+01 -0.94220828599E+01  0.15824923318E+02  0.18717556093E+02  0.00000000000E+00 0.  1.
         12    1    6    6    0    0  0.38011048801E+02 -0.46592606443E+02 -0.93647555884E+02  0.11129050062E+03  0.00000000000E+00 0. -1.
         -5    1    3    3    0  503  0.23059473080E+02  0.19850566663E+02  0.19797307906E+02  0.36603383667E+02  0.47000000000E+01 0.  1.
         11    1    4    4    0    0 -0.24325080675E+01  0.33348075271E+02  0.23179625765E+03  0.23419546597E+03  0.00000000000E+00 0. -1.
        -12    1    4    4    0    0 -0.96812707122E+02  0.18969291776E+02  0.35603731466E+03  0.36945243770E+03  0.00000000000E+00 0.  1.
</event>
<event>
12    1  0.1046899E+000  0.2576073E+03  0.7818608E-02  0.1108772E+00
         21   -1    0    0  503  502  0.00000000000E+00  0.00000000000E+00  0.14759203606E+03  0.14759203606E+03  0.00000000000E+00 0.  1.
         21   -1    0    0  501  503 -0.00000000000E+00 -0.00000000000E+00 -0.86856106787E+03  0.86856106787E+03  0.00000000000E+00 0.  1.
          6    2    1    2  501    0  0.17268320742E+02 -0.19058071228E+03 -0.71465822079E+03  0.75966958072E+03  0.17245955043E+03 0.  0.
         24    2    3    3    0    0 -0.15083088354E+02 -0.57459192253E+02 -0.16270163589E+03  0.19094634893E+03  0.80371807991E+02 0.  0.
         -6    2    1    2    0  502 -0.17268320742E+02  0.19058071228E+03 -0.63108110270E+01  0.25648352321E+03  0.17065980356E+03 0.  0.
        -24    2    5    5    0    0 -0.56167641077E+02  0.14493686881E+03 -0.51286789311E+02  0.18137396196E+03  0.78132448278E+02 0.  0.
          5    1    3    3  501    0  0.32351409095E+02 -0.13312152002E+03 -0.55195658490E+03  0.56872323179E+03  0.47000000000E+01 0. -1.
        -11    1    4    4    0    0  0.11326805374E+02 -0.18133553527E+02 -0.13370882611E+03  0.13540743134E+03  0.00000000000E+00 0.  1.
         12    1    4    4    0    0 -0.26409893728E+02 -0.39325638726E+02 -0.28992809786E+02  0.55538917591E+02  0.00000000000E+00 0. -1.
         -5    1    5    5    0  502  0.38899320335E+02  0.45643843462E+02  0.44975978284E+02  0.75109561250E+02  0.47000000000E+01 0.  1.
         11    1    6    6    0    0 -0.34410150403E+02  0.63258871108E+02  0.15482386915E+02  0.73657637277E+02  0.00000000000E+00 0. -1.
        -12    1    6    6    0    0 -0.21757490674E+02  0.81677997706E+02 -0.66769176226E+02  0.10771632468E+03  0.00000000000E+00 0.  1.
</event>
<event>
12    1  0.1046899E+000  0.1884049E+03  0.7818608E-02  0.1160072E+00
         21   -1    0    0  503  502  0.00000000000E+00  0.00000000000E+00  0.15834580295E+03  0.15834580295E+03  0.00000000000E+00 0. -1.
         21   -1    0    0  501  503 -0.00000000000E+00 -0.00000000000E+00 -0.28694792693E+03  0.28694792693E+03  0.00000000000E+00 0. -1.
          6    2    1    2  501    0 -0.45583539344E+02  0.59541994549E+02  0.40448052436E+02  0.19269786027E+03  0.17283897776E+03 0.  0.
         24    2    3    3    0    0 -0.11253587642E+02  0.98023206576E+02 -0.12167914153E+01  0.12623434791E+03  0.78730157803E+02 0.  0.
         -6    2    1    2    0  502  0.45583539344E+02 -0.59541994549E+02 -0.16905017641E+03  0.25259586961E+03  0.17205697610E+03 0.  0.
        -24    2    5    5    0    0  0.91893569715E+02 -0.64053835551E+02 -0.14369137927E+03  0.19939686384E+03  0.81022063844E+02 0.  0.
          5    1    3    3  501    0 -0.34329951702E+02 -0.38481212027E+02  0.41664843851E+02  0.66463512366E+02  0.47000000000E+01 0. -1.
        -11    1    4    4    0    0 -0.24379833626E+02  0.65034653216E+02  0.33027187751E+02  0.76906940762E+02  0.00000000000E+00 0.  1.
         12    1    4    4    0    0  0.13126245985E+02  0.32988553360E+02 -0.34243979166E+02  0.49327407144E+02  0.00000000000E+00 0. -1.
         -5    1    5    5    0  502 -0.46310030371E+02  0.45118410019E+01 -0.25358797139E+02  0.53199005766E+02  0.47000000000E+01 0.  1.
         13    1    6    6    0    0  0.64316574475E+02 -0.40419067627E+02 -0.32858267646E+02  0.82764657510E+02  0.00000000000E+00 0. -1.
        -14    1    6    6    0    0  0.27576995240E+02 -0.23634767924E+02 -0.11083311163E+03  0.11663220633E+03  0.00000000000E+00 0.  1.
</event>
<event>
12    1  0.1046899E+000  0.2263548E+03  0.7818608E-02  0.1129433E+00
         21   -1    0    0  503  502  0.00000000000E+00  0.00000000000E+00  0.10595788029E+03  0.10595788029E+03  0.00000000000E+00 0.  1.
         21   -1    0    0  501  503 -0.00000000000E+00 -0.00000000000E+00 -0.10150496742E+04  0.10150496742E+04  0.00000000000E+00 0.  1.
          6    2    1    2  501    0 -0.78467715710E+02 -0.12353771523E+03 -0.47520213459E+02  0.23019776177E+03  0.17121357815E+03 0.  0.
         24    2    3    3    0    0 -0.78770910039E+02 -0.20101475319E+02  0.65344834788E+01  0.11339387521E+03  0.78781634165E+02 0.  0.
         -6    2    1    2    0  502  0.78467715710E+02  0.12353771523E+03 -0.86157158041E+03  0.89080979268E+03  0.17267816614E+03 0.  0.
        -24    2    5    5    0    0  0.98850066120E+02  0.11999104995E+03 -0.84730441891E+03  0.86524299897E+03  0.80941221483E+02 0.  0.
          5    1    3    3  501    0  0.30319432960E+00 -0.10343623991E+03 -0.54054696938E+02  0.11680388656E+03  0.47000000000E+01 0. -1.
        -13    1    4    4    0    0 -0.68673519510E+02 -0.36174747369E+02  0.29997854645E+02  0.83213796407E+02  0.00000000000E+00 0.  1.
         14    1    4    4    0    0 -0.10097390529E+02  0.16073272051E+02 -0.23463371166E+02  0.30180078800E+02  0.00000000000E+00 0. -1.
         -5    1    5    5    0  502 -0.20382350410E+02  0.35466652836E+01 -0.14267161507E+02  0.25566793704E+02  0.47000000000E+01 0.  1.
         13    1    6    6    0    0 -0.35148391699E+01  0.44021871789E+02 -0.14932699150E+03  0.15572035731E+03  0.00000000000E+00 0. -1.
        -14    1    6    6    0    0  0.10236490529E+03  0.75969178161E+02 -0.69797742741E+03  0.70952264167E+03  0.00000000000E+00 0.  1.
</event>
<event>
12    1  0.1046899E+000  0.1923591E+03  0.7818608E-02  0.1156656E+00
         21   -1    0    0  501  502  0.00000000000E+00  0.00000000000E+00  0.31827172309E+03  0.31827172309E+03  0.00000000000E+00 0. -1.
         21   -1    0    0  502  503 -0.00000000000E+00 -0.00000000000E+00 -0.12090744021E+03  0.12090744021E+03  0.00000000000E+00 0. -1.
         -6    2    1    2    0  503  0.26089405851E+02  0.87109553038E+02  0.14574281367E+03  0.24133583731E+03  0.16950895936E+03 0.  0.
        -24    2    3    3    0    0 -0.29666158875E+02  0.60969955798E+02  0.14591933696E+03  0.17957757711E+03  0.79738552847E+02 0.  0.
          6    2    1    2  501    0 -0.26089405851E+02 -0.87109553038E+02  0.51621469219E+02  0.19784332599E+03  0.16795378598E+03 0.  0.
         24    2    5    5    0    0 -0.63362094552E+01  0.23653219463E+02  0.12331542467E+02  0.78577367377E+02  0.73639075110E+02 0.  0.
          5    1    5    5  501    0 -0.19753196396E+02 -0.11076277250E+03  0.39289926753E+02  0.11926595861E+03  0.47000000000E+01 0. -1.
        -13    1    6    6    0    0 -0.21167698160E+02 -0.91366601821E+01  0.30523689722E+02  0.38252393898E+02  0.00000000000E+00 0.  1.
         14    1    6    6    0    0  0.14831488705E+02  0.32789879645E+02 -0.18192147255E+02  0.40324973479E+02  0.00000000000E+00 0. -1.
         -5    1    3    3    0  503  0.55755564726E+02  0.26139597240E+02 -0.17652329197E+00  0.61758260195E+02  0.47000000000E+01 0.  1.
         13    1    4    4    0    0 -0.36614016114E+02  0.47380924427E+02  0.38743234826E+02  0.71320238504E+02  0.00000000000E+00 0. -1.
        -14    1    4    4    0    0  0.69478572384E+01  0.13589031371E+02  0.10717610213E+03  0.10825733861E+03  0.00000000000E+00 0.  1.
</event>
<event>
12    1  0.1046899E+000  0.3063002E+03  0.7818608E-02  0.1082273E+00
         21   -1    0    0  503  502  0.00000000000E+00  0.00000000000E+00  0.93240214349E+02  0.93240214349E+02  0.00000000000E+00 0. -1.
         21   -1    0    0  501  503 -0.00000000000E+00 -0.00000000000E+00 -0.12238413603E+04  0.12238413603E+04  0.00000000000E+00 0. -1.
          6    2    1    2  501    0 -0.24742675971E+03  0.55500801701E+02 -0.28607863034E+03  0.41911910648E+03  0.17181240430E+03 0.  0.
         24    2    3    3    0    0 -0.14697644487E+03  0.59831139653E+01 -0.83657978829E+02  0.18773527535E+03  0.81289625361E+02 0.  0.
         -6    2    1    2    0  502  0.24742675971E+03 -0.55500801701E+02 -0.84452251564E+03  0.89796246819E+03  0.16975857696E+03 0.  0.
        -24    2    5    5    0    0  0.12995847238E+03 -0.90195497380E+02 -0.41480526650E+03  0.45110508083E+03  0.80049687944E+02 0.  0.
          5    1    3    3  501    0 -0.10045031484E+03  0.49517687735E+02 -0.20242065151E+03  0.23138383113E+03  0.47000000000E+01 0. -1.
        -11    1    4    4    0    0 -0.94458334101E+02  0.41303305576E+02 -0.64502345869E+02  0.12160959072E+03  0.00000000000E+00 0.  1.
         12    1    4    4    0    0 -0.52518110766E+02 -0.35320191611E+02 -0.19155632959E+02  0.66125684631E+02  0.00000000000E+00 0. -1.
         -5    1    5    5    0  502  0.11746828733E+03  0.34694695679E+02 -0.42971724914E+03  0.44685738736E+03  0.47000000000E+01 0.  1.
         11    1    6    6    0    0 -0.47482272493E+01  0.10123051801E+01  0.68432542944E+00  0.49029302546E+01  0.00000000000E+00 0. -1.
        -12    1    6    6    0    0  0.13470669963E+03 -0.91207802560E+02 -0.41548959193E+03  0.44620215057E+03  0.00000000000E+00 0.  1.
</event>
<event>
12    1  0.1046899E+000  0.2824198E+03  0.7818608E-02  0.1094418E+00
         21   -1    0    0  503  502  0.00000000000E+00  0.00000000000E+00  0.12027906436E+03  0.12027906436E+03  0.00000000000E+00 0.  1.
         21   -1    0    0  501  503 -0.00000000000E+00 -0.00000000000E+00 -0.12674304592E+04  0.12674304592E+04  0.00000000000E+00 0.  1.
          6    2    1    2  501    0  0.22173583976E+03  0.30521580428E+02 -0.94341758362E+02  0.29776053776E+03  0.17222839769E+03 0.  0.
         24    2    3    3    0    0  0.42707389479E+02  0.25877940556E+02 -0.72520191117E+02  0.11728610689E+03  0.77480731966E+02 0.  0.
         -6    2    1    2    0  502 -0.22173583976E+03 -0.30521580428E+02 -0.10528096364E+04  0.10899489858E+04  0.17170413940E+03 0.  0.
        -24    2    5    5    0    0 -0.72812102798E+02 -0.68590322995E+02 -0.43346345854E+03  0.45179595813E+03  0.78884619403E+02 0.  0.
          5    1    3    3  501    0  0.17902845028E+03  0.46436398721E+01 -0.21821567245E+02  0.18047443087E+03  0.47000000000E+01 0. -1.
        -13    1    4    4    0    0 -0.10413072697E+02  0.13249828715E+02  0.90500107753E+01  0.19128322953E+02  0.00000000000E+00 0.  1.
         14    1    4    4    0    0  0.53120462176E+02  0.12628111840E+02 -0.81570201893E+02  0.98157783936E+02  0.00000000000E+00 0. -1.
         -5    1    5    5    0  502 -0.14892373697E+03  0.38068742567E+02 -0.61934617791E+03  0.63815302764E+03  0.47000000000E+01 0.  1.
         11    1    6    6    0    0  0.69033831705E+01 -0.91944669089E+01 -0.60858465052E+01  0.13008937260E+02  0.00000000000E+00 0. -1.
        -12    1    6    6    0    0 -0.79715485969E+02 -0.59395856086E+02 -0.42737761203E+03  0.43878702087E+03  0.00000000000E+00 0.  1.
</event>
<event>
12    1  0.1046899E+000  0.2615513E+03  0.7818608E-02  0.1106236E+00
         21   -1    0    0  501  502  0.00000000000E+00  0.00000000000E+00  0.55884298760E+03  0.55884298760E+03  0.00000000000E+00 0.  1.
         21   -1    0    0  502  503 -0.00000000000E+00 -0.00000000000E+00 -0.14072945683E+03  0.14072945683E+03  0.00000000000E+00 0. -1.
         -6    2    1    2    0  503  0.19887560439E+02  0.19512864210E+03  0.82579800825E+02  0.27414093908E+03  0.17280951637E+03 0.  0.
        -24    2    3    3    0    0  0.43680312532E+02  0.62617087695E+02 -0.91257122962E+01  0.11117653119E+03  0.80299894692E+02 0.  0.
          6    2    1    2  501    0 -0.19887560439E+02 -0.19512864210E+03  0.33553372994E+03  0.42543150535E+03  0.17302710709E+03 0.  0.
         24    2    5    5    0    0 -0.74889845810E+02 -0.15682038673E+03  0.27733351042E+03  0.33653758330E+03  0.78374398059E+02 0.  0.
          5    1    5    5  501    0  0.55002285371E+02 -0.38308255370E+02  0.58200219522E+02  0.88893922053E+02  0.47000000000E+01 0. -1.
        -13    1    6    6    0    0 -0.36972303932E+02 -0.22100511009E+02  0.11155418302E+03  0.11958143499E+03  0.00000000000E+00 0.  1.
         14    1    6    6    0    0 -0.37917541879E+02 -0.13471987572E+03  0.16577932740E+03  0.21695614831E+03  0.00000000000E+00 0. -1.
         -5    1    3    3    0  503 -0.23792752092E+02  0.13251155440E+03  0.91705513121E+02  0.16296440789E+03  0.47000000000E+01 0.  1.
         11    1    4    4    0    0 -0.22218245427E+02  0.27884246886E+02  0.26845922610E+01  0.35754561805E+02  0.00000000000E+00 0. -1.
        -12    1    4    4    0    0  0.65898557959E+02  0.34732840809E+02 -0.11810304557E+02  0.75421969382E+02  0.00000000000E+00 0.  1.
</event>
<event>
12    1  0.1046899E+000  0.4701980E+03  0.7818608E-02  0.1021978E+00
         21   -1    0    0  501  502  0.00000000000E+00  0.00000000000E+00  0.31282018502E+03  0.31282018502E+03  0.00000000000E+00 0. -1.
         21   -1    0    0  502  503 -0.00000000000E+00 -0.00000000000E+00 -0.78030772738E+03  0.78030772738E+03  0.00000000000E+00 0. -1.
         -6    2    1    2    0  503  0.90657760470E+02 -0.42658205221E+03 -0.63567090396E+02  0.47447540365E+03  0.17576989754E+03 0.  0.
        -24    2    3    3    0    0  0.31373760967E+02 -0.30000646164E+03 -0.10579816349E+03  0.32838801110E+03  0.75214656390E+02 0.  0.
          6    2    1    2  501    0 -0.90657760470E+02  0.42658205221E+03 -0.40392045196E+03  0.61865250876E+03  0.17142963067E+03 0.  0.
         24    2    5    5    0    0  0.49236027338E+01  0.29957776783E+03 -0.25962881709E+03  0.40392465510E+03  0.77310565183E+02 0.  0.
          5    1    5    5  501    0 -0.95581363204E+02  0.12700428439E+03 -0.14429163487E+03  0.21472785366E+03  0.47000000000E+01 0. -1.
        -11    1    6    6    0    0 -0.17918009969E+02  0.14262686285E+03 -0.16662900348E+03  0.22006522190E+03  0.00000000000E+00 0.  1.
         12    1    6    6    0    0  0.22841612703E+02  0.15695090498E+03 -0.92999813611E+02  0.18385943320E+03  0.00000000000E+00 0. -1.
         -5    1    3    3    0  503  0.59283999503E+02 -0.12657559058E+03  0.42231073095E+02  0.14608739255E+03  0.47000000000E+01 0.  1.
         13    1    4    4    0    0 -0.21224960425E+02 -0.12187463078E+03 -0.57830429056E+02  0.13655871667E+03  0.00000000000E+00 0. -1.
        -14    1    4    4    0    0  0.52598721392E+02 -0.17813183085E+03 -0.47967734435E+02  0.19182929443E+03  0.00000000000E+00 0.  1.
</event>
<event>
12    1  0.1046899E+000  0.3485106E+03  0.7818608E-02  0.1063251E+00
         21   -1    0    0  501  502  0.00000000000E+00  0.00000000000E+00  0.11705040737E+03  0.11705040737E+03  0.00000000000E+00 0. -1.
         21   -1    0    0  502  503 -0.00000000000E+00 -0.00000000000E+00 -0.12486629954E+04  0.12486629954E+04  0.00000000000E+00 0. -1.
         -6    2    1    2    0  503  0.30275894339E+03 -0.98612688616E+01 -0.28451016956E+03  0.44972098108E+03  0.17187990520E+03 0.  0.
        -24    2    3    3    0    0  0.17372537244E+03  0.53228807116E+02 -0.20708273461E+03  0.28648153179E+03  0.78578611277E+02 0.  0.
          6    2    1    2  501    0 -0.30275894339E+03  0.98612688616E+01 -0.84710241847E+03  0.91599242170E+03  0.17233510031E+03 0.  0.
         24    2    5    5    0    0 -0.19631601697E+03 -0.21152007288E+02 -0.37461023386E+03  0.43064422256E+03  0.78321345639E+02 0.  0.
          5    1    5    5  501    0 -0.10644292641E+03  0.31013276149E+02 -0.47249218461E+03  0.48534819913E+03  0.47000000000E+01 0. -1.
        -13    1    6    6    0    0 -0.79593937623E+02  0.29682510779E+02 -0.14182623532E+03  0.16532068043E+03  0.00000000000E+00 0.  1.
         14    1    6    6    0    0 -0.11672207935E+03 -0.50834518066E+02 -0.23278399854E+03  0.26532354214E+03  0.00000000000E+00 0. -1.
         -5    1    3    3    0  503  0.12903357095E+03 -0.63090075977E+02 -0.77427434952E+02  0.16323944928E+03  0.47000000000E+01 0.  1.
         11    1    4    4    0    0  0.58398040687E+02  0.41195099226E+02 -0.36572279711E+02  0.80280128298E+02  0.00000000000E+00 0. -1.
        -12    1    4    4    0    0  0.11532733175E+03  0.12033707890E+02 -0.17051045490E+03  0.20620140350E+03  0.00000000000E+00 0.  1.
</event>
<event>
12    1  0.1046899E+000  0.4302555E+03  0.7818608E-02  0.1033828E+00
         21   -1    0    0  503  502  0.00000000000E+00  0.00000000000E+00  0.14668540636E+03  0.14668540636E+03  0.00000000000E+00 0.  1.
         21   -1    0    0  501  503 -0.00000000000E+00 -0.00000000000E+00 -0.14495330966E+04  0.14495330966E+04  0.00000000000E+00 0.  1.
          6    2    1    2  501    0  0.24305647357E+03  0.31064585024E+03 -0.36338593649E+03  0.56317773495E+03  0.17187940156E+03 0.  0.
         24    2    3    3    0    0  0.19103432050E+03  0.16834670495E+03 -0.19189869401E+03  0.33429934913E+03  0.10047995516E+03 0.  0.
         -6    2    1    2    0  502 -0.24305647357E+03 -0.31064585024E+03 -0.93946175377E+03  0.10330407680E+04  0.17031602399E+03 0.  0.
        -24    2    5    5    0    0 -0.93927219250E+02 -0.22546660555E+03 -0.60174695042E+03  0.65413653657E+03  0.78343496296E+02 0.  0.
          5    1    3    3  501    0  0.52022153075E+02  0.14229914529E+03 -0.17148724248E+03  0.22887838582E+03  0.47000000000E+01 0. -1.
        -11    1    4    4    0    0  0.11343424051E+03  0.50124731775E+02 -0.13081299319E+03  0.18025497176E+03  0.00000000000E+00 0.  1.
         12    1    4    4    0    0  0.77600079986E+02  0.11822197317E+03 -0.61085700825E+02  0.15404437737E+03  0.00000000000E+00 0. -1.
         -5    1    5    5    0  502 -0.14912925432E+03 -0.85179244691E+02 -0.33771480335E+03  0.37890423147E+03  0.47000000000E+01 0.  1.
         11    1    6    6    0    0 -0.72824185275E+02 -0.15391662866E+03 -0.49836429982E+03  0.52665042094E+03  0.00000000000E+00 0. -1.
        -12    1    6    6    0    0 -0.21103033975E+02 -0.71549976888E+02 -0.10338265060E+03  0.12748611564E+03  0.00000000000E+00 0.  1.
</event>
<event>
12    1  0.1046899E+000  0.2212257E+03  0.7818608E-02  0.1133193E+00
         21   -1    0    0  501  502  0.00000000000E+00  0.00000000000E+00  0.47319716911E+02  0.47319716911E+02  0.00000000000E+00 0.  1.
         21   -1    0    0  502  503 -0.00000000000E+00 -0.00000000000E+00 -0.10338034042E+04  0.10338034042E+04  0.00000000000E+00 0.  1.
         -6    2    1    2    0  503  0.13571030708E+03  0.11949847386E+02 -0.52983111432E+03  0.57370576806E+03  0.17279239655E+03 0.  0.
        -24    2    3    3    0    0  0.13496681349E+03 -0.43827911861E+02 -0.38380578632E+03  0.41731779657E+03  0.81916635198E+02 0.  0.
          6    2    1    2  501    0 -0.13571030708E+03 -0.11949847386E+02 -0.45665257297E+03  0.50741735305E+03  0.17430063533E+03 0.  0.
         24    2    5    5    0    0 -0.27500427255E+02 -0.30842531058E+02 -0.10548385144E+03  0.13943926597E+03  0.81295330488E+02 0.  0.
          5    1    5    5  501    0 -0.10820987983E+03  0.18892683673E+02 -0.35116872153E+03  0.36797808708E+03  0.47000000000E+01 0. -1.
        -11    1    6    6    0    0 -0.35648931100E+02 -0.43434715530E+02 -0.11021468423E+03  0.12371215551E+03  0.00000000000E+00 0.  1.
         12    1    6    6    0    0  0.81485038443E+01  0.12592184472E+02  0.47308327857E+01  0.15727110463E+02  0.00000000000E+00 0. -1.
         -5    1    3    3    0  503  0.74349359480E+00  0.55777759247E+02 -0.14602532801E+03  0.15638797150E+03  0.47000000000E+01 0.  1.
         13    1    4    4    0    0  0.85608424959E+02  0.14112621304E+02 -0.22696401388E+03  0.24298278149E+03  0.00000000000E+00 0. -1.
        -14    1    4    4    0    0  0.49358388528E+02 -0.57940533166E+02 -0.15684177244E+03  0.17433501508E+03  0.00000000000E+00 0.  1.
</event>
<event>
12    1  0.1046899E+000  0.2617720E+03  0.7818608E-02  0.1106777E+00
         21   -1    0    0  503  502  0.00000000000E+00  0.00000000000E+00  0.39313262675E+03  0.39313262675E+03  0.00000000000E+00 0.  1.
         21   -1    0    0  501  503 -0.00000000000E+00 -0.00000000000E+00 -0.35016544916E+03  0.35016544916E+03  0.00000000000E+00 0.  1.
          6    2    1    2  501    0  0.16977861331E+03  0.91025039893E+02  0.28704613849E+03  0.38538869353E+03  0.17034853699E+03 0.  0.
         24    2    3    3    0    0  0.33758825754E+02  0.37071001087E+02  0.18088091679E+03  0.20454189315E+03  0.81274612002E+02 0.  0.
         -6    2    1    2    0  502 -0.16977861331E+03 -0.91025039893E+02 -0.24407896090E+03  0.35790938237E+03  0.17724065957E+03 0.  0.
        -24    2    5    5    0    0 -0.66999804268E+02 -0.71072456968E+02 -0.48607826252E+02  0.13611523538E+03  0.81390224347E+02 0.  0.
          5    1    3    3  501    0  0.13601978756E+03  0.53954038806E+02  0.10616522171E+03  0.18084680039E+03  0.47000000000E+01 0. -1.
        -13    1    4    4    0    0  0.78525495113E+01  0.28884024692E+02  0.17394475220E+03  0.17650134910E+03  0.00000000000E+00 0.  1.
         14    1    4    4    0    0  0.25906276243E+02  0.81869763948E+01  0.69361645884E+01  0.28040544047E+02  0.00000000000E+00 0. -1.
         -5    1    5    5    0  502 -0.10277880905E+03 -0.19952582925E+02 -0.19547113465E+03  0.22179414698E+03  0.47000000000E+01 0.  1.
         11    1    6    6    0    0 -0.78122273564E+02 -0.37675147012E+02 -0.16127871634E+02  0.88219128156E+02  0.00000000000E+00 0. -1.
        -12    1    6    6    0    0  0.11122469297E+02 -0.33397309956E+02 -0.32479954617E+02  0.47896107227E+02  0.00000000000E+00 0.  1.
</event>
<event>
12    1  0.1046899E+000  0.2042185E+03  0.7818608E-02  0.1146505E+00
         21   -1    0    0  503  502  0.00000000000E+00  0.00000000000E+00  0.21774011670E+03  0.21774011670E+03  0.00000000000E+00 0. -1.
         21   -1    0    0  501  503 -0.00000000000E+00 -0.00000000000E+00 -0.22640956892E+03  0.22640956892E+03  0.00000000000E+00 0. -1.
          6    2    1    2  501    0 -0.10568276139E+03 -0.25863498020E+02  0.84369609304E+02  0.22096027998E+03  0.17282201182E+03 0.  0.
         24    2    3    3    0    0 -0.10425637506E+03 -0.70099793858E+02  0.92181480137E+02  0.17577178838E+03  0.81332179792E+02 0.  0.
         -6    2    1    2    0  502  0.10568276139E+03  0.25863498020E+02 -0.93039061524E+02  0.22318940564E+03  0.17122931185E+03 0.  0.
        -24    2    5    5    0    0  0.66166575835E+01  0.14639486337E+02  0.76445314232E+01  0.81417238945E+02  0.79449563995E+02 0.  0.
          5    1    3    3  501    0 -0.14263863266E+01  0.44236295839E+02 -0.78118708331E+01  0.45188491603E+02  0.47000000000E+01 0. -1.
        -11    1    4    4    0    0 -0.38504326873E+01  0.14243643714E+02  0.23488503692E+02  0.27738367361E+02  0.00000000000E+00 0.  1.
         12    1    4    4    0    0 -0.10040594237E+03 -0.84343437572E+02  0.68692976445E+02  0.14803342102E+03  0.00000000000E+00 0. -1.
         -5    1    5    5    0  502  0.99066103802E+02  0.11224011683E+02 -0.10068359295E+03  0.14177216670E+03  0.47000000000E+01 0.  1.
         13    1    6    6    0    0  0.41207026031E+02  0.11399421520E+02 -0.76916206780E+01  0.43441073122E+02  0.00000000000E+00 0. -1.
        -14    1    6    6    0    0 -0.34590368447E+02  0.32400648166E+01  0.15336152101E+02  0.37976165823E+02  0.00000000000E+00 0.  1.
</event>
<event>
12    1  0.1046899E+000  0.1748001E+03  0.7818608E-02  0.1173060E+00
         21   -1    0    0  503  502  0.00000000000E+00  0.00000000000E+00  0.25659006739E+03  0.25659006739E+03  0.00000000000E+00 0.  1.
         21   -1    0    0  501  503 -0.00000000000E+00 -0.00000000000E+00 -0.14592435644E+03  0.14592435644E+03  0.00000000000E+00 0.  1.
          6    2    1    2  501    0  0.19118064540E+02 -0.16827201778E+02 -0.31472538654E+02  0.17761082342E+03  0.17293475300E+03 0.  0.
         24    2    3    3    0    0 -0.12793346157E+02 -0.89870482689E+01 -0.83560940378E+02  0.11584434600E+03  0.78695902052E+02 0.  0.
         -6    2    1    2    0  502 -0.19118064540E+02  0.16827201778E+02  0.14213824960E+03  0.22490360041E+03  0.17242300416E+03 0.  0.
        -24    2    5    5    0    0  0.11322596389E+02  0.68242772122E+02  0.58856336727E+02  0.12229676962E+03  0.81897218211E+02 0.  0.
          5    1    3    3  501    0  0.31911410697E+02 -0.78401535090E+01  0.52088401724E+02  0.61766477428E+02  0.47000000000E+01 0. -1.
        -11    1    4    4    0    0  0.28718384693E+02  0.14025493443E+02 -0.41843517650E+02  0.52653015631E+02  0.00000000000E+00 0.  1.
         12    1    4    4    0    0 -0.41511730850E+02 -0.23012541712E+02 -0.41717422727E+02  0.63191330364E+02  0.00000000000E+00 0. -1.
         -5    1    5    5    0  502 -0.30440660929E+02 -0.51415570344E+02  0.83281912875E+02  0.10260683078E+03  0.47000000000E+01 0.  1.
         11    1    6    6    0    0 -0.32202304171E+02  0.44187687340E+02  0.16890640782E+02  0.57226164055E+02  0.00000000000E+00 0. -1.
        -12    1    6    6    0    0  0.43524900560E+02  0.24055084782E+02  0.41965695944E+02  0.65070605566E+02  0.00000000000E+00 0.  1.
</event>
<event>
12    1  0.1046899E+000  0.1883003E+03  0.7818608E-02  0.1160401E+00
         21   -1    0    0  503  502  0.00000000000E+00  0.00000000000E+00  0.12830391464E+03  0.12830391464E+03  0.00000000000E+00 0.  1.
         21   -1    0    0  501  503 -0.00000000000E+00 -0.00000000000E+00 -0.28151782123E+03  0.28151782123E+03  0.00000000000E+00 0.  1.
          6    2    1    2  501    0  0.61090343530E+02  0.40021593970E+02 -0.11084874113E+03  0.21850500806E+03  0.17356047097E+03 0.  0.
         24    2    3    3    0    0  0.40781357105E+02  0.89258397304E+02 -0.10048974672E+03  0.16404294331E+03  0.84745014464E+02 0.  0.
         -6    2    1    2    0  502 -0.61090343530E+02 -0.40021593970E+02 -0.42365165456E+02  0.19131672780E+03  0.17167855148E+03 0.  0.
        -24    2    5    5    0    0 -0.44735204883E+02 -0.88706105013E+02 -0.55385662823E+02  0.13812560517E+03  0.78365167860E+02 0.  0.
          5    1    3    3  501    0  0.20308986425E+02 -0.49236803334E+02 -0.10358994412E+02  0.54462064755E+02  0.47000000000E+01 0. -1.
        -11    1    4    4    0    0  0.16857244710E+02  0.84019295895E+02 -0.32283800585E+02  0.91573208758E+02  0.00000000000E+00 0.  1.
         12    1    4    4    0    0  0.23924112395E+02  0.52391014091E+01 -0.68205946137E+02  0.72469734552E+02  0.00000000000E+00 0. -1.
         -5    1    5    5    0  502 -0.16355138647E+02  0.48684511043E+02  0.13020497367E+02  0.53191122637E+02  0.47000000000E+01 0.  1.
         13    1    6    6    0    0 -0.19167762852E+02 -0.16942971777E+01  0.14116985841E+02  0.23865520420E+02  0.00000000000E+00 0. -1.
        -14    1    6    6    0    0 -0.25567442030E+02 -0.87011807835E+02 -0.69502648664E+02  0.11426008475E+03  0.00000000000E+00 0.  1.
</event>
<event>
12    1  0.1046899E+000  0.1752115E+03  0.7818608E-02  0.1172789E+00
         21   -1    0    0  501  502  0.00000000000E+00  0.00000000000E+00  0.31234836554E+03  0.31234836554E+03  0.00000000000E+00 0. -1.
         21   -1    0    0  502  503 -0.00000000000E+00 -0.00000000000E+00 -0.10786401157E+03  0.10786401157E+03  0.00000000000E+00 0. -1.
         -6    2    1    2    0  503  0.16824101022E+02  0.22746960834E+02  0.16650410713E+03  0.24093171170E+03  0.17182548532E+03 0.  0.
        -24    2    3    3    0    0  0.65179528992E+01  0.12775579055E+02  0.77759844573E+01  0.81487827924E+02  0.79837967379E+02 0.  0.
          6    2    1    2  501    0 -0.16824101022E+02 -0.22746960834E+02  0.37980246827E+02  0.17928066542E+03  0.17291206794E+03 0.  0.
         24    2    5    5    0    0 -0.76733320429E+02  0.12735223993E+02  0.22497754327E+02  0.10779711777E+03  0.71160953167E+02 0.  0.
          5    1    5    5  501    0  0.59909219407E+02 -0.35482184826E+02  0.15482492500E+02  0.71483547645E+02  0.47000000000E+01 0. -1.
        -13    1    6    6    0    0 -0.79820795855E+02  0.16636148010E+02 -0.32229731867E+01  0.81599683993E+02  0.00000000000E+00 0.  1.
         14    1    6    6    0    0  0.30874754265E+01 -0.39009240169E+01  0.25720727514E+02  0.26197433777E+02  0.00000000000E+00 0. -1.
         -5    1    3    3    0  503  0.10306148123E+02  0.99713817787E+01  0.15872812268E+03  0.15944388377E+03  0.47000000000E+01 0.  1.
         13    1    4    4    0    0 -0.20675840470E+02 -0.20273195017E+02 -0.15420976736E+02  0.32807001369E+02  0.00000000000E+00 0. -1.
        -14    1    4    4    0    0  0.27193793370E+02  0.33048774072E+02  0.23196961193E+02  0.48680826555E+02  0.00000000000E+00 0.  1.
</event>
<event>
12    1  0.1046899E+000  0.2017447E+03  0.7818608E-02  0.1148404E+00
         21   -1    0    0  503  502  0.00000000000E+00  0.00000000000E+00  0.23672790275E+03  0.23672790275E+03  0.00000000000E+00 0. -1.
         21   -1    0    0  501  503 -0.00000000000E+00 -0.00000000000E+00 -0.17153570962E+03  0.17153570962E+03  0.00000000000E+00 0. -1.
          6    2    1    2  501    0 -0.93069017650E+02  0.43039469072E+02  0.38229253985E+02  0.20533487617E+03  0.17374319431E+03 0.  0.
         24    2    3    3    0    0 -0.47351673583E+02 -0.43940434614E+02  0.63120487697E+01  0.10191158488E+03  0.78569627636E+02 0.  0.
         -6    2    1    2    0  502  0.93069017650E+02 -0.43039469072E+02  0.26962939143E+02  0.20292873620E+03  0.17302841947E+03 0.  0.
        -24    2    5    5    0    0  0.11449896676E+03 -0.36728285901E+02 -0.24254914249E+02  0.14685349872E+03  0.80738273743E+02 0.  0.
          5    1    3    3  501    0 -0.45717344067E+02  0.86979903686E+02  0.31917205215E+02  0.10342329130E+03  0.47000000000E+01 0. -1.
        -13    1    4    4    0    0 -0.12555444133E+02  0.82126124855E+01  0.31071719590E+02  0.34504172783E+02  0.00000000000E+00 0.  1.
         14    1    4    4    0    0 -0.34796229450E+02 -0.52153047100E+02 -0.24759670820E+02  0.67407412092E+02  0.00000000000E+00 0. -1.
         -5    1    5    5    0  502 -0.21429949113E+02 -0.63111831704E+01  0.51217853392E+02  0.56075237477E+02  0.47000000000E+01 0.  1.
         13    1    6    6    0    0 -0.63046437390E+01 -0.20353195826E+02 -0.11679039828E+02  0.24298170391E+02  0.00000000000E+00 0. -1.
        -14    1    6    6    0    0  0.12080361050E+03 -0.16375090075E+02 -0.12575874421E+02  0.12255532833E+03  0.00000000000E+00 0.  1.
</event>
<event>
12    1  0.1046899E+000  0.1960275E+03  0.7818608E-02  0.1153521E+00
         21   -1    0    0  501  502  0.00000000000E+00  0.00000000000E+00  0.65645621814E+02  0.65645621814E+02  0.00000000000E+00 0. -1.
         21   -1    0    0  502  503 -0.00000000000E+00 -0.00000000000E+00 -0.10623758580E+04  0.10623758580E+04  0.00000000000E+00 0.  1.
         -6    2    1    2    0  503  0.86332759205E+02  0.31854562868E+02 -0.87714514076E+03  0.89839702646E+03  0.17107179986E+03 0.  0.
        -24    2    3    3    0    0  0.20912670582E+02  0.27278796368E+02 -0.19614678432E+03  0.21423215079E+03  0.78996081604E+02 0.  0.
          6    2    1    2  501    0 -0.86332759205E+02 -0.31854562868E+02 -0.11958509543E+03  0.22962445336E+03  0.17308592098E+03 0.  0.
         24    2    5    5    0    0 -0.11781611511E+03 -0.14754709570E+02 -0.51050917106E+02  0.15214780991E+03  0.80277154217E+02 0.  0.
          5    1    5    5  501    0  0.31483355901E+02 -0.17099853298E+02 -0.68534178322E+02  0.77476643448E+02  0.47000000000E+01 0. -1.
        -11    1    6    6    0    0 -0.70194216332E+01 -0.65484474144E+01 -0.39268197786E+02  0.40424569274E+02  0.00000000000E+00 0.  1.
         12    1    6    6    0    0 -0.11079669347E+03 -0.82062621559E+01 -0.11782719320E+02  0.11172324063E+03  0.00000000000E+00 0. -1.
         -5    1    3    3    0  503  0.65420088623E+02  0.45757665006E+01 -0.68099835644E+03  0.68416487568E+03  0.47000000000E+01 0.  1.
         13    1    4    4    0    0  0.47941785435E+02  0.30576025917E+02 -0.15285695869E+03  0.16309064342E+03  0.00000000000E+00 0. -1.
        -14    1    4    4    0    0 -0.27029114853E+02 -0.32972295496E+01 -0.43289825635E+02  0.51141507368E+02  0.00000000000E+00 0.  1.
</event>
<event>
12    1  0.1046899E+000  0.2337995E+03  0.7818608E-02  0.1124673E+00
         21   -1    0    0  501  502  0.00000000000E+00  0.00000000000E+00  0.35115045362E+03  0.35115045362E+03  0.00000000000E+00 0.  1.
         21   -1    0    0  502  503 -0.00000000000E+00 -0.00000000000E+00 -0.16628533550E+03  0.16628533550E+03  0.00000000000E+00 0.  1.
         -6    2    1    2    0  503  0.13579900816E+03 -0.68938860083E+02  0.16606984961E+03  0.28677761768E+03  0.17739298184E+03 0.  0.
        -24    2    3    3    0    0  0.45001052681E+02  0.32279402416E+02  0.83922740306E+02  0.12784479241E+03  0.78957013894E+02 0.  0.
          6    2    1    2  501    0 -0.13579900816E+03  0.68938860083E+02  0.18795268500E+02  0.23065817144E+03  0.17220915448E+03 0.  0.
         24    2    5    5    0    0 -0.14180773050E+03  0.10390984148E+03  0.70600278515E+01  0.19299014578E+03  0.79301102049E+02 0.  0.
          5    1    5    5  501    0  0.60087223483E+01 -0.34970981399E+02  0.11735240648E+02  0.37668025662E+02  0.47000000000E+01 0. -1.
        -13    1    6    6    0    0 -0.11581721279E+03  0.57593299397E+02 -0.23868058213E+02  0.13153060145E+03  0.00000000000E+00 0.  1.
         14    1    6    6    0    0 -0.25990517714E+02  0.46316542084E+02  0.30928086065E+02  0.61459544331E+02  0.00000000000E+00 0. -1.
         -5    1    3    3    0  503  0.90797955476E+02 -0.10121826250E+03  0.82147109308E+02  0.15893282527E+03  0.47000000000E+01 0.  1.
         13    1    4    4    0    0  0.35564652438E+02 -0.24035638801E+01 -0.96710345226E+00  0.35658896666E+02  0.00000000000E+00 0. -1.
        -14    1    4    4    0    0  0.94364002428E+01  0.34682966296E+02  0.84889843758E+02  0.92185895743E+02  0.00000000000E+00 0.  1.
</event>
<event>
12    1  0.1046899E+000  0.1926376E+03  0.7818608E-02  0.1156531E+00
         21   -1    0    0  503  502  0.00000000000E+00  0.00000000000E+00  0.82381583868E+02  0.82381583868E+02  0.00000000000E+00 0. -1.
         21   -1    0    0  501  503 -0.00000000000E+00 -0.00000000000E+00 -0.44689392976E+03  0.44689392976E+03  0.00000000000E+00 0. -1.
          6    2    1    2  501    0 -0.63779253402E+02  0.52453460860E+02 -0.17119174502E+03  0.25771277195E+03  0.17404051408E+03 0.  0.
         24    2    3    3    0    0 -0.44299521743E+01  0.79833282737E+02 -0.56458941708E+02  0.12558518074E+03  0.78683213041E+02 0.  0.
         -6    2    1    2    0  502  0.63779253402E+02 -0.52453460860E+02 -0.19332060087E+03  0.27156274168E+03  0.17191366794E+03 0.  0.
        -24    2    5    5    0    0  0.30528064948E+01 -0.62492585643E+02 -0.44581407702E+02  0.11052261325E+03  0.79455039099E+02 0.  0.
          5    1    3    3  501    0 -0.59349301228E+02 -0.27379821877E+02 -0.11473280331E+03  0.13212759121E+03  0.47000000000E+01 0. -1.
        -11    1    4    4    0    0  0.20047212910E+01  0.29440953821E+02  0.18650385324E+02  0.34908817541E+02  0.00000000000E+00 0.  1.
         12    1    4    4    0    0 -0.64346734654E+01  0.50392328916E+02 -0.75109327032E+02  0.90676363202E+02  0.00000000000E+00 0. -1.
         -5    1    5    5    0  502  0.60726446907E+02  0.10039124783E+02 -0.14873919317E+03  0.16104012843E+03  0.47000000000E+01 0.  1.
         11    1    6    6    0    0  0.12063229066E+02 -0.79683460441E+02 -0.29060531055E+02  0.85670822504E+02  0.00000000000E+00 0. -1.
        -12    1    6    6    0    0 -0.90104225714E+01  0.17190874797E+02 -0.15520876647E+02  0.24851790742E+02  0.00000000000E+00 0.  1.
</event>
<event>
12    1  0.1046899E+000  0.1794099E+03  0.7818608E-02  0.1168433E+00
         21   -1    0    0  503  502  0.00000000000E+00  0.00000000000E+00  0.72351537298E+02  0.72351537298E+02  0.00000000000E+00 0.  1.
         21   -1    0    0  501  503 -0.00000000000E+00 -0.00000000000E+00 -0.48721036324E+03  0.48721036324E+03  0.00000000000E+00 0.  1.
          6    2    1    2  501    0 -0.15480001143E+02 -0.48872343753E+02 -0.12451608935E+03  0.21838532943E+03  0.17192951807E+03 0.  0.
         24    2    3    3    0    0 -0.47592350148E+02 -0.84992768650E+02 -0.65015880731E+02  0.14158524558E+03  0.79564530443E+02 0.  0.
         -6    2    1    2    0  502  0.15480001143E+02  0.48872343753E+02 -0.29034273660E+03  0.34117657111E+03  0.17168113338E+03 0.  0.
        -24    2    5    5    0    0  0.13569269678E+01  0.27061191115E+02 -0.47645085355E+02  0.97046631278E+02  0.80086485555E+02 0.  0.
          5    1    3    3  501    0  0.32112349006E+02  0.36120424897E+02 -0.59500208617E+02  0.76800083847E+02  0.47000000000E+01 0. -1.
        -13    1    4    4    0    0 -0.99249708116E+01  0.26598597012E+01  0.14237010045E+02  0.17557686472E+02  0.00000000000E+00 0.  1.
         14    1    4    4    0    0 -0.37667379337E+02 -0.87652628351E+02 -0.79252890776E+02  0.12402755911E+03  0.00000000000E+00 0. -1.
         -5    1    5    5    0  502  0.14123074175E+02  0.21811152638E+02 -0.24269765124E+03  0.24412993983E+03  0.47000000000E+01 0.  1.
         11    1    6    6    0    0  0.38243342148E+02  0.10928639930E+02 -0.39331836911E+02  0.55937302260E+02  0.00000000000E+00 0. -1.
        -12    1    6    6    0    0 -0.36886415180E+02  0.16132551185E+02 -0.83132484440E+01  0.41109329018E+02  0.00000000000E+00 0.  1.
</event>
<event>
12    1  0.1046899E+000  0.1839162E+03  0.7818608E-02  0.1164352E+00
         21   -1    0    0  501  502  0.00000000000E+00  0.00000000000E+00  0.21798905922E+03  0.21798905922E+03  0.00000000000E+00 0.  1.
         21   -1    0    0  502  503 -0.00000000000E+00 -0.00000000000E+00 -0.25786965313E+03  0.25786965313E+03  0.00000000000E+00 0.  1.
         -6    2    1    2    0  503 -0.25707852963E+02  0.59877615543E+02  0.13091844589E+03  0.22575385592E+03  0.17198529426E+03 0.  0.
        -24    2    3    3    0    0 -0.13730029386E+02  0.86187362106E+02  0.15091638925E+03  0.19029008905E+03  0.76274414787E+02 0.  0.
          6    2    1    2  501    0  0.25707852963E+02 -0.59877615543E+02 -0.17079903980E+03  0.25010485642E+03  0.17068656849E+03 0.  0.
         24    2    5    5    0    0 -0.20394486113E+02  0.22385288890E+02 -0.61879173747E+02  0.10595827014E+03  0.80505196391E+02 0.  0.
          5    1    5    5  501    0  0.46102339076E+02 -0.82262904433E+02 -0.10891986606E+03  0.14414658628E+03  0.47000000000E+01 0. -1.
        -13    1    6    6    0    0  0.24466380623E+02  0.21348992380E+02 -0.49864082001E+02  0.59504705110E+02  0.00000000000E+00 0.  1.
         14    1    6    6    0    0 -0.44860866736E+02  0.10362965101E+01 -0.12015091746E+02  0.46453565034E+02  0.00000000000E+00 0. -1.
         -5    1    3    3    0  503 -0.11977823577E+02 -0.26309746564E+02 -0.19997943363E+02  0.35463766870E+02  0.47000000000E+01 0.  1.
         13    1    4    4    0    0  0.19302992943E+02 -0.17763896703E+01  0.12752778465E+02  0.23203328541E+02  0.00000000000E+00 0. -1.
        -14    1    4    4    0    0 -0.33033022329E+02  0.87963751777E+02  0.13816361079E+03  0.16708676051E+03  0.00000000000E+00 0.  1.
</event>
<event>
12    1  0.1046899E+000  0.1979160E+03  0.7818608E-02  0.1156456E+00
         21   -1    0    0  503  502  0.00000000000E+00  0.00000000000E+00  0.82454905202E+02  0.82454905202E+02  0.00000000000E+00 0.  1.
         21   -1    0    0  501  503 -0.00000000000E+00 -0.00000000000E+00 -0.48032671262E+03  0.48032671262E+03  0.00000000000E+00 0.  1.
          6    2    1    2  501    0 -0.10968539651E+02  0.45901772290E+02 -0.11318800284E+03  0.22799622038E+03  0.19220684420E+03 0.  0.
         24    2    3    3    0    0  0.50223934550E+02  0.52642361662E+02 -0.11880866257E+03  0.16599915384E+03  0.90258290082E+02 0.  0.
         -6    2    1    2    0  502  0.10968539651E+02 -0.45901772290E+02 -0.28468380457E+03  0.33478539744E+03  0.16973247242E+03 0.  0.
        -24    2    5    5    0    0 -0.44208932506E+02 -0.61995181888E+02 -0.13509335853E+03  0.17446402390E+03  0.79935272730E+02 0.  0.
          5    1    3    3  501    0 -0.61192474201E+02 -0.67405893720E+01  0.56206597320E+01  0.61997066541E+02  0.47000000000E+01 0. -1.
        -11    1    4    4    0    0  0.14246369658E+01 -0.13688917639E+02 -0.67689643677E+02  0.69074625715E+02  0.00000000000E+00 0.  1.
         12    1    4    4    0    0  0.48799297584E+02  0.66331279301E+02 -0.51119018896E+02  0.96924528120E+02  0.00000000000E+00 0. -1.
         -5    1    5    5    0  502  0.55177472157E+02  0.16093409598E+02 -0.14959044605E+03  0.16032137354E+03  0.47000000000E+01 0.  1.
         13    1    6    6    0    0 -0.22399295828E+02 -0.40433020017E+02 -0.13614432325E+03  0.14377702986E+03  0.00000000000E+00 0. -1.
        -14    1    6    6    0    0 -0.21809636678E+02 -0.21562161871E+02  0.10509647224E+01  0.30686994043E+02  0.00000000000E+00 0.  1.
</event>
<event>
12    1  0.1046899E+000  0.2076426E+03  0.7818608E-02  0.1144523E+00
         21   -1    0    0  503  502  0.00000000000E+00  0.00000000000E+00  0.68713458966E+02  0.68713458966E+02  0.00000000000E+00 0. -1.
         21   -1    0    0  501  503 -0.00000000000E+00 -0.00000000000E+00 -0.61314538852E+03  0.61314538852E+03  0.00000000000E+00 0.  1.
          6    2    1    2  501    0  0.94910461963E+02  0.67411448562E+02 -0.29286745802E+03  0.35900808804E+03  0.17193940828E+03 0.  0.
         24    2    3    3    0    0  0.41683213983E+02  0.34495218444E+02 -0.27418868627E+03  0.29352828469E+03  0.89732980602E+02 0.  0.
         -6    2    1    2    0  502 -0.94910461963E+02 -0.67411448562E+02 -0.25156447153E+03  0.32285075945E+03  0.16551625405E+03 0.  0.
        -24    2    5    5    0    0 -0.45952628167E+02 -0.10164040809E+03 -0.13436164091E+03  0.19121837489E+03  0.77903785243E+02 0.  0.
          5    1    3    3  501    0  0.53227247980E+02  0.32916230118E+02 -0.18678771751E+02  0.65479803350E+02  0.47000000000E+01 0. -1.
        -13    1    4    4    0    0  0.53667443364E+02  0.35604119810E+02 -0.27402510342E+03  0.28149174966E+03  0.00000000000E+00 0.  1.
         14    1    4    4    0    0 -0.11984229381E+02 -0.11089013662E+01 -0.16358285731E+00  0.12036535027E+02  0.00000000000E+00 0. -1.
         -5    1    5    5    0  502 -0.48957833796E+02  0.34228959525E+02 -0.11720283062E+03  0.13163238456E+03  0.47000000000E+01 0.  1.
         11    1    6    6    0    0 -0.33341333461E+02 -0.27637043224E+02 -0.77061943735E+01  0.43986771953E+02  0.00000000000E+00 0. -1.
        -12    1    6    6    0    0 -0.12611294706E+02 -0.74003364863E+02 -0.12665544654E+03  0.14723160294E+03  0.00000000000E+00 0.  1.
</event>
<event>
12    1  0.1046899E+000  0.2970244E+03  0.7818608E-02  0.1086751E+00
         21   -1    0    0  501  502  0.00000000000E+00  0.00000000000E+00  0.89103705540E+03  0.89103705540E+03  0.00000000000E+00 0.  1.
         21   -1    0    0  502  503 -0.00000000000E+00 -0.00000000000E+00 -0.28955919513E+03  0.28955919513E+03  0.00000000000E+00 0. -1.
         -6    2    1    2    0  503 -0.11726814478E+03  0.21173191480E+03  0.77961890025E+03  0.83424715087E+03  0.17198970198E+03 0.  0.
        -24    2    3    3    0    0 -0.14153576516E+03  0.12041681547E+03  0.51425312784E+03  0.55252308742E+03  0.79327803239E+02 0.  0.
          6    2    1    2  501    0  0.11726814478E+03 -0.21173191480E+03 -0.17814103997E+03  0.34634909965E+03  0.17216633579E+03 0.  0.
         24    2    5    5    0    0  0.11467055710E+03 -0.72522864470E+02 -0.10298799293E+03  0.18805829879E+03  0.79689990097E+02 0.  0.
          5    1    5    5  501    0  0.25975876843E+01 -0.13920905033E+03 -0.75153047045E+02  0.15829080086E+03  0.47000000000E+01 0. -1.
        -13    1    6    6    0    0  0.57201690675E+02 -0.50223912849E+02 -0.10402617933E+02  0.76828961323E+02  0.00000000000E+00 0.  1.
         14    1    6    6    0    0  0.57468866424E+02 -0.22298951620E+02 -0.92585374995E+02  0.11122933747E+03  0.00000000000E+00 0. -1.
         -5    1    3    3    0  503  0.24267620379E+02  0.91315099329E+02  0.26536577241E+03  0.28172406345E+03  0.47000000000E+01 0.  1.
         13    1    4    4    0    0 -0.14180587576E+03  0.12318886859E+03  0.51607334115E+03  0.54919586414E+03  0.00000000000E+00 0. -1.
        -14    1    4    4    0    0  0.27011059196E+00 -0.27720531177E+01 -0.18202133119E+01  0.33272232747E+01  0.00000000000E+00 0.  1.
</event>
<event>
12    1  0.1046899E+000  0.2093290E+03  0.7818608E-02  0.1143060E+00
         21   -1    0    0  501  502  0.00000000000E+00  0.00000000000E+00  0.13845521132E+03  0.13845521132E+03  0.00000000000E+00 0. -1.
         21   -1    0    0  502  503 -0.00000000000E+00 -0.00000000000E+00 -0.36154930091E+03  0.36154930091E+03  0.00000000000E+00 0. -1.
         -6    2    1    2    0  503 -0.75378773152E+02  0.79956295701E+02 -0.15415772242E+02  0.20513348695E+03  0.17253154137E+03 0.  0.
        -24    2    3    3    0    0  0.35638204651E+02 -0.28467696129E+01 -0.22352116644E+02  0.66384361329E+02  0.51274560774E+02 0.  0.
          6    2    1    2  501    0  0.75378773152E+02 -0.79956295701E+02 -0.20767831736E+03  0.29487102528E+03  0.17816753180E+03 0.  0.
         24    2    5    5    0    0 -0.20425977456E+02 -0.79445500035E+02 -0.14286137253E+03  0.17910342408E+03  0.70284114323E+02 0.  0.
          5    1    5    5  501    0  0.95804750608E+02 -0.51079566590E+00 -0.64816944824E+02  0.11576760120E+03  0.47000000000E+01 0. -1.
        -11    1    6    6    0    0 -0.29742983935E+02 -0.66543196524E+01 -0.66733447594E+02  0.73364010871E+02  0.00000000000E+00 0.  1.
         12    1    6    6    0    0  0.93170064785E+01 -0.72791180383E+02 -0.76127924938E+02  0.10573941321E+03  0.00000000000E+00 0. -1.
         -5    1    3    3    0  503 -0.11101697780E+03  0.82803065314E+02  0.69363444021E+01  0.13874912562E+03  0.47000000000E+01 0.  1.
         13    1    4    4    0    0  0.78038689242E+00 -0.20989567324E+02 -0.16381061274E+02  0.26636630954E+02  0.00000000000E+00 0. -1.
        -14    1    4    4    0    0  0.34857817759E+02  0.18142797711E+02 -0.59710553699E+01  0.39747730374E+02  0.00000000000E+00 0.  1.
</event>
<event>
12    1  0.1046899E+000  0.1831119E+03  0.7818608E-02  0.1165643E+00
         21   -1    0    0  501  502  0.00000000000E+00  0.00000000000E+00  0.11172373709E+04  0.11172373709E+04  0.00000000000E+00 0.  1.
         21   -1    0    0  502  503 -0.00000000000E+00 -0.00000000000E+00 -0.15968259961E+03  0.15968259961E+03  0.00000000000E+00 0.  1.
         -6    2    1    2    0  503  0.12856263500E+02  0.48494269698E+02 -0.98630601734E+02  0.20497896740E+03  0.17254391839E+03 0.  0.
        -24    2    3    3    0    0  0.68342763057E+01 -0.18374092914E+02  0.25574257258E+01  0.83452224872E+02  0.81076622936E+02 0.  0.
          6    2    1    2  501    0 -0.12856263500E+02 -0.48494269698E+02  0.10561853730E+04  0.10719410031E+04  0.17610506594E+03 0.  0.
         24    2    5    5    0    0  0.26741036250E+02  0.21066087266E+02  0.30684511317E+03  0.31832339156E+03  0.77569292129E+02 0.  0.
          5    1    5    5  501    0 -0.39597299750E+02 -0.69560356964E+02  0.74934025984E+03  0.75361761154E+03  0.47000000000E+01 0. -1.
        -11    1    6    6    0    0  0.56203199908E+01  0.97932218061E+01  0.77452707382E+00  0.11317909804E+02  0.00000000000E+00 0.  1.
         12    1    6    6    0    0  0.21120716259E+02  0.11272865460E+02  0.30607058610E+03  0.30700548175E+03  0.00000000000E+00 0. -1.
         -5    1    3    3    0  503  0.60219871947E+01  0.66868362612E+02 -0.10118802746E+03  0.12152674253E+03  0.47000000000E+01 0.  1.
         11    1    4    4    0    0  0.26715839378E+02  0.21565731816E+02  0.14494806236E+02  0.37268166983E+02  0.00000000000E+00 0. -1.
        -12    1    4    4    0    0 -0.19881563072E+02 -0.39939824730E+02 -0.11937380510E+02  0.46184057889E+02  0.00000000000E+00 0.  1.
</event>
<event>
12    1  0.1046899E+000  0.3176043E+03  0.7818608E-02  0.1076963E+00
         21   -1    0    0  501  502  0.00000000000E+00  0.00000000000E+00  0.40890898048E+03  0.40890898048E+03  0.00000000000E+00 0.  1.
         21   -1    0    0  502  503 -0.00000000000E+00 -0.00000000000E+00 -0.30547472442E+03  0.30547472442E+03  0.00000000000E+00 0.  1.
         -6    2    1    2    0  503  0.12354208901E+02  0.26451898315E+03  0.21011142222E+03  0.37934267828E+03  0.17213697712E+03 0.  0.
        -24    2    3    3    0    0 -0.11580660374E+02  0.15707685102E+03  0.20044894329E+03  0.26874365828E+03  0.85065422950E+02 0.  0.
          6    2    1    2  501    0 -0.12354208901E+02 -0.26451898315E+03 -0.10667716616E+03  0.33504102662E+03  0.17535550409E+03 0.  0.
         24    2    5    5    0    0  0.19857290309E+02 -0.13795873431E+03  0.60465971597E+01  0.16246114922E+03  0.83247458321E+02 0.  0.
          5    1    5    5  501    0 -0.32211499210E+02 -0.12656024884E+03 -0.11272376332E+03  0.17257987740E+03  0.47000000000E+01 0. -1.
        -11    1    6    6    0    0 -0.18575304107E+01 -0.13504957773E+02  0.30838845304E+02  0.33717483349E+02  0.00000000000E+00 0.  1.
         12    1    6    6    0    0  0.21714820720E+02 -0.12445377654E+03 -0.24792248144E+02  0.12874366587E+03  0.00000000000E+00 0. -1.
         -5    1    3    3    0  503  0.23934869275E+02  0.10744213213E+03  0.96624789277E+01  0.11059901999E+03  0.47000000000E+01 0.  1.
         11    1    4    4    0    0 -0.32365914307E+02  0.14562692364E+03  0.19287284918E+03  0.24383332268E+03  0.00000000000E+00 0. -1.
        -12    1    4    4    0    0  0.20785253932E+02  0.11449927376E+02  0.75760941090E+01  0.24910335604E+02  0.00000000000E+00 0.  1.
</event>
<event>
12    1  0.1046899E+000  0.2551584E+03  0.7818608E-02  0.1110139E+00
         21   -1    0    0  503  502  0.00000000000E+00  0.00000000000E+00  0.14567599997E+03  0.14567599997E+03  0.00000000000E+00 0. -1.
         21   -1    0    0  501  503 -0.00000000000E+00 -0.00000000000E+00 -0.44633758897E+03  0.44633758897E+03  0.00000000000E+00 0. -1.
          6    2    1    2  501    0  0.15664620096E+03  0.10521219008E+03 -0.14967333399E+03  0.29581733605E+03  0.17175026110E+03 0.  0.
         24    2    3    3    0    0  0.54649220043E+02  0.10861873562E+03 -0.12403940734E+03  0.19048843754E+03  0.78201683377E+02 0.  0.
         -6    2    1    2    0  502 -0.15664620096E+03 -0.10521219008E+03 -0.15098825501E+03  0.29619625290E+03  0.17125165652E+03 0.  0.
        -24    2    5    5    0    0 -0.66980787576E+02 -0.98292819980E+02 -0.14839338586E+03  0.20610414789E+03  0.79438142254E+02 0.  0.
          5    1    3    3  501    0  0.10199698091E+03 -0.34065455345E+01 -0.25633926647E+02  0.10532889852E+03  0.47000000000E+01 0. -1.
        -13    1    4    4    0    0  0.73935449220E+02  0.79345509293E+02 -0.83359633851E+02  0.13678811736E+03  0.00000000000E+00 0.  1.
         14    1    4    4    0    0 -0.19286229177E+02  0.29273226323E+02 -0.40679773492E+02  0.53700320172E+02  0.00000000000E+00 0. -1.
         -5    1    5    5    0  502 -0.89665413379E+02 -0.69193701018E+01 -0.25948691496E+01  0.90092105009E+02  0.47000000000E+01 0.  1.
         11    1    6    6    0    0 -0.21705377763E+01 -0.58136990519E+02 -0.30451892710E+02  0.65665353654E+02  0.00000000000E+00 0. -1.
        -12    1    6    6    0    0 -0.64810249800E+02 -0.40155829460E+02 -0.11794149315E+03  0.14043879423E+03  0.00000000000E+00 0.  1.
</event>
<event>
12    1  0.1046899E+000  0.2097037E+03  0.7818608E-02  0.1142224E+00
         21   -1    0    0  503  502  0.00000000000E+00  0.00000000000E+00  0.31009673737E+03  0.31009673737E+03  0.00000000000E+00 0. -1.
         21   -1    0    0  501  503 -0.00000000000E+00 -0.00000000000E+00 -0.26136458551E+03  0.26136458551E+03  0.00000000000E+00 0. -1.
          6    2    1    2  501    0  0.10605119607E+02  0.11381769899E+03  0.21869852724E+03  0.30152760934E+03  0.17327122153E+03 0.  0.
         24    2    3    3    0    0 -0.77410031763E+01  0.14471978564E+03  0.14700902237E+03  0.22119707786E+03  0.79452848345E+02 0.  0.
         -6    2    1    2    0  502 -0.10605119607E+02 -0.11381769899E+03 -0.16996637538E+03  0.26993371354E+03  0.17580871361E+03 0.  0.
        -24    2    5    5    0    0 -0.63495519124E+00 -0.14814692218E+03 -0.11395963613E+03  0.20332482086E+03  0.80039180342E+02 0.  0.
          5    1    3    3  501    0  0.18346122784E+02 -0.30902086642E+02  0.71689504863E+02  0.80330531478E+02  0.47000000000E+01 0. -1.
        -13    1    4    4    0    0  0.18412057990E+02  0.53891655049E+02  0.10128933298E+03  0.11620173552E+03  0.00000000000E+00 0.  1.
         14    1    4    4    0    0 -0.26153061166E+02  0.90828130588E+02  0.45719689397E+02  0.10499534234E+03  0.00000000000E+00 0. -1.
         -5    1    5    5    0  502 -0.99701644161E+01  0.34329223188E+02 -0.56006739247E+02  0.66608892682E+02  0.47000000000E+01 0.  1.
         11    1    6    6    0    0  0.22055274104E+02 -0.39938555795E+02 -0.15429290896E+01  0.45649797207E+02  0.00000000000E+00 0. -1.
        -12    1    6    6    0    0 -0.22690229295E+02 -0.10820836639E+03 -0.11241670704E+03  0.15767502365E+03  0.00000000000E+00 0.  1.
</event>
<event>
12    1  0.1046899E+000  0.1831766E+03  0.7818608E-02  0.1164878E+00
         21   -1    0    0  501  502  0.00000000000E+00  0.00000000000E+00  0.10217264350E+03  0.10217264350E+03  0.00000000000E+00 0. -1.
         21   -1    0    0  502  503 -0.00000000000E+00 -0.00000000000E+00 -0.36229403909E+03  0.36229403909E+03  0.00000000000E+00 0. -1.
         -6    2    1    2    0  503 -0.44241734099E+02 -0.48107416286E+02 -0.20183853004E+03  0.27224142694E+03  0.17060172272E+03 0.  0.
        -24    2    3    3    0    0 -0.32363439129E+02 -0.96761984538E+02 -0.16961240116E+03  0.21250053403E+03  0.77316469728E+02 0.  0.
          6    2    1    2  501    0  0.44241734099E+02  0.48107416286E+02 -0.58282865554E+02  0.19222525565E+03  0.17111984676E+03 0.  0.
         24    2    5    5    0    0  0.75344988484E+02  0.66669135334E+02 -0.63515656618E+01  0.12873588839E+03  0.80068381257E+02 0.  0.
          5    1    5    5  501    0 -0.31103254385E+02 -0.18561719048E+02 -0.51931299892E+02  0.63489367266E+02  0.47000000000E+01 0. -1.
        -13    1    6    6    0    0  0.34243220653E+01  0.21684817560E+02  0.29389477415E+02  0.36683765850E+02  0.00000000000E+00 0.  1.
         14    1    6    6    0    0  0.71920666418E+02  0.44984317774E+02 -0.35741043077E+02  0.92052122539E+02  0.00000000000E+00 0. -1.
         -5    1    3    3    0  503 -0.11878294970E+02  0.48654568252E+02 -0.32226128881E+02  0.59740892912E+02  0.47000000000E+01 0.  1.
         11    1    4    4    0    0  0.19315944376E+02 -0.54538952714E+01 -0.47123428724E+02  0.51219802962E+02  0.00000000000E+00 0. -1.
        -12    1    4    4    0    0 -0.51679383504E+02 -0.91308089266E+02 -0.12248897244E+03  0.16128073107E+03  0.00000000000E+00 0.  1.
</event>
<event>
12    1  0.1046899E+000  0.2107604E+03  0.7818608E-02  0.1141180E+00
         21   -1    0    0  501  502  0.00000000000E+00  0.00000000000E+00  0.66863696912E+03  0.66863696912E+03  0.00000000000E+00 0. -1.
         21   -1    0    0  502  503 -0.00000000000E+00 -0.00000000000E+00 -0.96766760041E+02  0.96766760041E+02  0.00000000000E+00 0. -1.
         -6    2    1    2    0  503  0.29459754618E+02 -0.11626216200E+03  0.69954306901E+02  0.22103296244E+03  0.17198022554E+03 0.  0.
        -24    2    3    3    0    0  0.41624859074E+02 -0.53098834894E+02  0.10501417663E+03  0.14762397033E+03  0.78820962709E+02 0.  0.
          6    2    1    2  501    0 -0.29459754618E+02  0.11626216200E+03  0.50191590218E+03  0.54437076672E+03  0.17330663964E+03 0.  0.
         24    2    5    5    0    0  0.12466144891E+02  0.18865112296E+02  0.10525269233E+03  0.13375201606E+03  0.79373643788E+02 0.  0.
          5    1    5    5  501    0 -0.41925899510E+02  0.97397049702E+02  0.39666320986E+03  0.41061875066E+03  0.47000000000E+01 0. -1.
        -11    1    6    6    0    0  0.13200605310E+02  0.49387059292E+02  0.75047802224E+02  0.90804791860E+02  0.00000000000E+00 0.  1.
         12    1    6    6    0    0 -0.73446041862E+00 -0.30521946996E+02  0.30204890102E+02  0.42947224202E+02  0.00000000000E+00 0. -1.
         -5    1    3    3    0  503 -0.12165104456E+02 -0.63163327104E+02 -0.35059869732E+02  0.73408992112E+02  0.47000000000E+01 0.  1.
         11    1    4    4    0    0  0.28837947028E+02  0.13102859898E+02  0.55745375686E+02  0.64115981133E+02  0.00000000000E+00 0. -1.
        -12    1    4    4    0    0  0.12786912047E+02 -0.66201694793E+02  0.49268800948E+02  0.83507989198E+02  0.00000000000E+00 0.  1.
</event>
<event>
12    1  0.1046899E+000  0.3053576E+03  0.7818608E-02  0.1082614E+00
         21   -1    0    0  503  502  0.00000000000E+00  0.00000000000E+00  0.20212953109E+03  0.20212953109E+03  0.00000000000E+00 0. -1.
         21   -1    0    0  501  503 -0.00000000000E+00 -0.00000000000E+00 -0.71255809022E+03  0.71255809022E+03  0.00000000000E+00 0. -1.
          6    2    1    2  501    0  0.32460235819E+02  0.25020772503E+03  0.16456621680E+02  0.30580070659E+03  0.17200488126E+03 0.  0.
         24    2    3    3    0    0  0.38937584375E+02  0.26788160359E+03  0.26837881789E+02  0.28379655723E+03  0.80892057559E+02 0.  0.
         -6    2    1    2    0  502 -0.32460235819E+02 -0.25020772503E+03 -0.52688518081E+03  0.60888691472E+03  0.17169073530E+03 0.  0.
        -24    2    5    5    0    0 -0.26555225648E+02 -0.19820091269E+03 -0.51037986171E+03  0.55380431099E+03  0.78884915108E+02 0.  0.
          5    1    3    3  501    0 -0.64773485558E+01 -0.17673878558E+02 -0.10381260109E+02  0.22004149360E+02  0.47000000000E+01 0. -1.
        -11    1    4    4    0    0  0.50131749609E+02  0.80666863384E+02  0.88793893992E+01  0.95389615384E+02  0.00000000000E+00 0.  1.
         12    1    4    4    0    0 -0.11194165233E+02  0.18721474021E+03  0.17958492389E+02  0.18840694185E+03  0.00000000000E+00 0. -1.
         -5    1    5    5    0  502 -0.59050101714E+01 -0.52006812341E+02 -0.16505319097E+02  0.55082603728E+02  0.47000000000E+01 0.  1.
         11    1    6    6    0    0 -0.29540521961E+02 -0.18678723179E+02 -0.70354108354E+02  0.78557225636E+02  0.00000000000E+00 0. -1.
        -12    1    6    6    0    0  0.29852963132E+01 -0.17952218951E+03 -0.44002575336E+03  0.47524708536E+03  0.00000000000E+00 0.  1.
</event>
<event>
12    1  0.1046899E+000  0.2008605E+03  0.7818608E-02  0.1149219E+00
         21   -1    0    0  503  502  0.00000000000E+00  0.00000000000E+00  0.72892799968E+03  0.72892799968E+03  0.00000000000E+00 0.  1.
         21   -1    0    0  501  503 -0.00000000000E+00 -0.00000000000E+00 -0.62833048373E+02  0.62833048373E+02  0.00000000000E+00 0.  1.
          6    2    1    2  501    0 -0.10712590336E+01 -0.10197760238E+03  0.47280062048E+03  0.51369775354E+03  0.17304443440E+03 0.  0.
         24    2    3    3    0    0  0.54614171790E+02 -0.73130875088E+02  0.39761282459E+03  0.41567584000E+03  0.79747181983E+02 0.  0.
         -6    2    1    2    0  502  0.10712590336E+01  0.10197760238E+03  0.19329433083E+03  0.27806329452E+03  0.17191834819E+03 0.  0.
        -24    2    5    5    0    0 -0.16351490336E+02 -0.12474554854E+02  0.98371508665E+02  0.12827918101E+03  0.79722072282E+02 0.  0.
          5    1    3    3  501    0 -0.55685430824E+02 -0.28846727293E+02  0.75187795896E+02  0.98021913536E+02  0.47000000000E+01 0. -1.
        -13    1    4    4    0    0  0.30846894823E+02  0.10995124432E+02  0.85682384301E+02  0.91727284169E+02  0.00000000000E+00 0.  1.
         14    1    4    4    0    0  0.23767276968E+02 -0.84125999520E+02  0.31193044029E+03  0.32394855583E+03  0.00000000000E+00 0. -1.
         -5    1    5    5    0  502  0.17422749370E+02  0.11445215723E+03  0.94922822161E+02  0.14978411350E+03  0.47000000000E+01 0.  1.
         11    1    6    6    0    0  0.30559188675E+02  0.57148736959E+01  0.47175755967E+02  0.56498457899E+02  0.00000000000E+00 0. -1.
        -12    1    6    6    0    0 -0.46910679012E+02 -0.18189428550E+02  0.51195752698E+02  0.71780723113E+02  0.00000000000E+00 0.  1.
</event>
<event>
12    1  0.1046899E+000  0.3292090E+03  0.7818608E-02  0.1071859E+00
         21   -1    0    0  503  502  0.00000000000E+00  0.00000000000E+00  0.15562918226E+03  0.15562918226E+03  0.00000000000E+00 0.  1.
         21   -1    0    0  501  503 -0.00000000000E+00 -0.00000000000E+00 -0.69435375956E+03  0.69435375956E+03  0.00000000000E+00 0.  1.
          6    2    1    2  501    0 -0.11600921993E+03  0.25225933309E+03 -0.23466194381E+03  0.40428304183E+03  0.17687747114E+03 0.  0.
         24    2    3    3    0    0 -0.13382086112E+03  0.16326688893E+03 -0.21320185554E+03  0.31090459106E+03  0.81501740123E+02 0.  0.
         -6    2    1    2    0  502  0.11600921993E+03 -0.25225933309E+03 -0.30406263349E+03  0.44569989998E+03  0.17059134068E+03 0.  0.
        -24    2    5    5    0    0  0.89156967433E+02 -0.25689211216E+03 -0.30721945238E+03  0.41786895297E+03  0.79297842397E+02 0.  0.
          5    1    3    3  501    0  0.17811641186E+02  0.88992444164E+02 -0.21460088269E+02  0.93378450772E+02  0.47000000000E+01 0. -1.
        -13    1    4    4    0    0 -0.32471546404E+02  0.10123595077E+03 -0.85129077989E+02  0.13619867464E+03  0.00000000000E+00 0.  1.
         14    1    4    4    0    0 -0.10134931471E+03  0.62030938162E+02 -0.12807277755E+03  0.17470591642E+03  0.00000000000E+00 0. -1.
         -5    1    5    5    0  502  0.26852252500E+02  0.46327790644E+01  0.31568188818E+01  0.27830947013E+02  0.47000000000E+01 0.  1.
         11    1    6    6    0    0  0.93925742869E+02 -0.20666236472E+03 -0.21453354330E+03  0.31233958981E+03  0.00000000000E+00 0. -1.
        -12    1    6    6    0    0 -0.47687754360E+01 -0.50229747439E+02 -0.92685909080E+02  0.10552936316E+03  0.00000000000E+00 0.  1.
</event>
<event>
12    1  0.1046899E+000  0.2540408E+03  0.7818608E-02  0.1110778E+00
         21   -1    0    0  501  502  0.00000000000E+00  0.00000000000E+00  0.19581728485E+03  0.19581728485E+03  0.00000000000E+00 0.  1.
         21   -1    0    0  502  503 -0.00000000000E+00 -0.00000000000E+00 -0.33409874015E+03  0.33409874015E+03  0.00000000000E+00 0.  1.
         -6    2    1    2    0  503 -0.16031336337E+03  0.95867858953E+02 -0.99994170760E+02  0.27301203198E+03  0.17217930933E+03 0.  0.
        -24    2    3    3    0    0 -0.16809915103E+03  0.62376368057E+02 -0.12221416889E+03  0.23180381958E+03  0.81538774996E+02 0.  0.
          6    2    1    2  501    0  0.16031336337E+03 -0.95867858953E+02 -0.38287284541E+02  0.25690399302E+03  0.17217062646E+03 0.  0.
         24    2    5    5    0    0  0.10061158514E+03 -0.10417644037E+03 -0.75293234473E+02  0.18601770959E+03  0.89208157298E+02 0.  0.
          5    1    5    5  501    0  0.59701778229E+02  0.83085814202E+01  0.37005949932E+02  0.70886283435E+02  0.47000000000E+01 0. -1.
        -13    1    6    6    0    0  0.40948370437E+02 -0.38735221592E+02 -0.79391657340E+02  0.97366429987E+02  0.00000000000E+00 0.  1.
         14    1    6    6    0    0  0.59663214707E+02 -0.65441218781E+02  0.40984228667E+01  0.88651279600E+02  0.00000000000E+00 0. -1.
         -5    1    3    3    0  503  0.77857876516E+01  0.33491490897E+02  0.22219998131E+02  0.41208212395E+02  0.47000000000E+01 0.  1.
         11    1    4    4    0    0 -0.26210163840E+01 -0.72291619932E+01  0.71719246142E+01  0.10515085006E+02  0.00000000000E+00 0. -1.
        -12    1    4    4    0    0 -0.16547813464E+03  0.69605530050E+02 -0.12938609351E+03  0.22128873458E+03  0.00000000000E+00 0.  1.
</event>
<event>
12    1  0.1046899E+000  0.2173408E+03  0.7818608E-02  0.1136617E+00
         21   -1    0    0  501  502  0.00000000000E+00  0.00000000000E+00  0.11491715240E+03  0.11491715240E+03  0.00000000000E+00 0.  1.
         21   -1    0    0  502  503 -0.00000000000E+00 -0.00000000000E+00 -0.64061176720E+03  0.64061176720E+03  0.00000000000E+00 0.  1.
         -6    2    1    2    0  503  0.11475885250E+03 -0.53000636414E+02 -0.49104083291E+03  0.53544276122E+03  0.17204414917E+03 0.  0.
        -24    2    3    3    0    0  0.11271131775E+03 -0.46277336424E+02 -0.22126538598E+03  0.26553485668E+03  0.81883796122E+02 0.  0.
          6    2    1    2  501    0 -0.11475885250E+03  0.53000636414E+02 -0.34653781884E+02  0.22008615838E+03  0.17680036998E+03 0.  0.
         24    2    5    5    0    0 -0.66953306317E+02 -0.35006664945E+01  0.42492607107E+02  0.11307483743E+03  0.80531343646E+02 0.  0.
          5    1    5    5  501    0 -0.47805546185E+02  0.56501302909E+02 -0.77146388991E+02  0.10701132095E+03  0.47000000000E+01 0. -1.
        -13    1    6    6    0    0 -0.42979585448E+02 -0.36521991111E+02  0.33032832754E+01  0.56497896248E+02  0.00000000000E+00 0.  1.
         14    1    6    6    0    0 -0.23973720868E+02  0.33021324616E+02  0.39189323831E+02  0.56576941187E+02  0.00000000000E+00 0. -1.
         -5    1    3    3    0  503  0.20475347551E+01 -0.67232999905E+01 -0.26977544693E+03  0.26990790453E+03  0.47000000000E+01 0.  1.
         13    1    4    4    0    0  0.91962147531E+02 -0.48179937184E+02 -0.22158049360E+03  0.24469625675E+03  0.00000000000E+00 0. -1.
        -14    1    4    4    0    0  0.20749170216E+02  0.19026007601E+01  0.31510761968E+00  0.20838599931E+02  0.00000000000E+00 0.  1.
</event>
<event>
12    1  0.1046899E+000  0.2160967E+03  0.7818608E-02  0.1139853E+00
         21   -1    0    0  503  502  0.00000000000E+00  0.00000000000E+00  0.17798453166E+03  0.17798453166E+03  0.00000000000E+00 0.  1.
         21   -1    0    0  501  503 -0.00000000000E+00 -0.00000000000E+00 -0.27393810670E+03  0.27393810670E+03  0.00000000000E+00 0.  1.
          6    2    1    2  501    0  0.35599978025E+02 -0.10156215477E+03  0.24894086024E+02  0.21752581559E+03  0.18739139578E+03 0.  0.
         24    2    3    3    0    0  0.82039157283E+02 -0.11055875726E+03 -0.77083611886E+01  0.15988428724E+03  0.80931479284E+02 0.  0.
         -6    2    1    2    0  502 -0.35599978025E+02  0.10156215477E+03 -0.12084766107E+03  0.23439682277E+03  0.16957441913E+03 0.  0.
        -24    2    5    5    0    0  0.16668170826E+02  0.74621296255E+02 -0.13557261426E+03  0.17359646514E+03  0.76874138688E+02 0.  0.
          5    1    3    3  501    0 -0.46439179258E+02  0.89966024912E+01  0.32602447213E+02  0.57641528353E+02  0.47000000000E+01 0. -1.
        -11    1    4    4    0    0  0.80377231589E+02 -0.43011744350E+02  0.42760520509E+01  0.91262227296E+02  0.00000000000E+00 0.  1.
         12    1    4    4    0    0  0.16619256943E+01 -0.67547012910E+02 -0.11984413240E+02  0.68622059942E+02  0.00000000000E+00 0. -1.
         -5    1    5    5    0  502 -0.52268148851E+02  0.26940858513E+02  0.14724953193E+02  0.60800357633E+02  0.47000000000E+01 0.  1.
         13    1    6    6    0    0  0.27837412710E+02  0.25803928812E+02 -0.11285552750E+02  0.39599595824E+02  0.00000000000E+00 0. -1.
        -14    1    6    6    0    0 -0.11169241884E+02  0.48817367443E+02 -0.12428706151E+03  0.13399686932E+03  0.00000000000E+00 0.  1.
</event>
<event>
12    1  0.1046899E+000  0.2063853E+03  0.7818608E-02  0.1144500E+00
         21   -1    0    0  501  502  0.00000000000E+00  0.00000000000E+00  0.60886875804E+02  0.60886875804E+02  0.00000000000E+00 0. -1.
         21   -1    0    0  502  503 -0.00000000000E+00 -0.00000000000E+00 -0.70325402381E+03  0.70325402381E+03  0.00000000000E+00 0. -1.
         -6    2    1    2    0  503 -0.42605809817E+02  0.10751773053E+03 -0.29106285441E+03  0.35669813610E+03  0.17070634925E+03 0.  0.
        -24    2    3    3    0    0  0.42142355396E+02  0.61024903583E+02 -0.15304862538E+03  0.18813404776E+03  0.80439550096E+02 0.  0.
          6    2    1    2  501    0  0.42605809817E+02 -0.10751773053E+03 -0.35130429360E+03  0.40744276351E+03  0.17093736113E+03 0.  0.
         24    2    5    5    0    0  0.11716113537E+01 -0.97883177160E+01 -0.24154859275E+03  0.25468074336E+03  0.80120999398E+02 0.  0.
          5    1    5    5  501    0  0.41434198463E+02 -0.97729412814E+02 -0.10975570085E+03  0.15276202015E+03  0.47000000000E+01 0. -1.
        -11    1    6    6    0    0 -0.28661093483E+02  0.20786527975E+02 -0.78247937375E+02  0.85885259086E+02  0.00000000000E+00 0.  1.
         12    1    6    6    0    0  0.29832704837E+02 -0.30574845691E+02 -0.16330065537E+03  0.16879548427E+03  0.00000000000E+00 0. -1.
         -5    1    3    3    0  503 -0.84748165212E+02  0.46492826947E+02 -0.13801422903E+03  0.16856408834E+03  0.47000000000E+01 0.  1.
         13    1    4    4    0    0  0.20986154683E+02  0.26462015026E+02 -0.14223848215E+03  0.14619316924E+03  0.00000000000E+00 0. -1.
        -14    1    4    4    0    0  0.21156200712E+02  0.34562888557E+02 -0.10810143222E+02  0.41940878513E+02  0.00000000000E+00 0.  1.
</event>
<event>
12    1  0.1046899E+000  0.2556800E+03  0.7818608E-02  0.1109817E+00
         21   -1    0    0  503  502  0.00000000000E+00  0.00000000000E+00  0.77194290642E+02  0.77194290642E+02  0.00000000000E+00 0. -1.
         21   -1    0    0  501  503 -0.00000000000E+00 -0.00000000000E+00 -0.87621204920E+03  0.87621204920E+03  0.00000000000E+00 0. -1.
          6    2    1    2  501    0  0.90148195323E+02  0.16647035100E+03 -0.31089531057E+03  0.40252719131E+03  0.17185217695E+03 0.  0.
         24    2    3    3    0    0  0.36934682115E+02  0.16932094015E+03 -0.28567860112E+03  0.34338519031E+03  0.79166749761E+02 0.  0.
         -6    2    1    2    0  502 -0.90148195323E+02 -0.16647035100E+03 -0.48812244798E+03  0.55087914853E+03  0.17136288158E+03 0.  0.
        -24    2    5    5    0    0 -0.11026904039E+03 -0.14276765774E+03 -0.47918501237E+03  0.51818918326E+03  0.79748907277E+02 0.  0.
          5    1    3    3  501    0  0.53213513208E+02 -0.28505891528E+01 -0.25216709451E+02  0.59142000998E+02  0.47000000000E+01 0. -1.
        -11    1    4    4    0    0  0.55011324262E+02  0.88436936328E+02 -0.19104038938E+03  0.21758623090E+03  0.00000000000E+00 0.  1.
         12    1    4    4    0    0 -0.18076642147E+02  0.80884003824E+02 -0.94638211744E+02  0.12579895941E+03  0.00000000000E+00 0. -1.
         -5    1    5    5    0  502  0.20120845065E+02 -0.23702693261E+02 -0.89374356161E+01  0.32689965270E+02  0.47000000000E+01 0.  1.
         13    1    6    6    0    0 -0.36772097432E+02 -0.50236089238E+02 -0.27783421766E+03  0.28472390893E+03  0.00000000000E+00 0. -1.
        -14    1    6    6    0    0 -0.73496942956E+02 -0.92531568500E+02 -0.20135079470E+03  0.23346527434E+03  0.00000000000E+00 0.  1.
</event>
<event>
12    1  0.1046899E+000  0.3535530E+03  0.7818608E-02  0.1061181E+00
         21   -1    0    0  503  502  0.00000000000E+00  0.00000000000E+00  0.16785427482E+03  0.16785427482E+03  0.00000000000E+00 0.  1.
         21   -1    0    0  501  503 -0.00000000000E+00 -0.00000000000E+00 -0.18796006188E+04  0.18796006188E+04  0.00000000000E+00 0.  1.
          6    2    1    2  501    0  0.55982666896E+02  0.30016224442E+03 -0.60350378380E+02  0.35866678089E+03  0.17823652706E+03 0.  0.
         24    2    3    3    0    0 -0.38263151190E+02  0.11970372610E+03 -0.63598687792E+02  0.15499991424E+03  0.64708033058E+02 0.  0.
         -6    2    1    2    0  502 -0.55982666896E+02 -0.30016224442E+03 -0.16513959656E+04  0.16887881127E+04  0.17794724654E+03 0.  0.
        -24    2    5    5    0    0 -0.22686510040E+02 -0.25652801620E+03 -0.15514776546E+04  0.15746901776E+04  0.79024944305E+02 0.  0.
          5    1    3    3  501    0  0.94245818086E+02  0.18045851831E+03  0.32483094120E+01  0.20366686665E+03  0.47000000000E+01 0. -1.
        -13    1    4    4    0    0 -0.40826654739E+02  0.12368635765E+03 -0.69339807930E+02  0.14755724235E+03  0.00000000000E+00 0.  1.
         14    1    4    4    0    0  0.25635035493E+01 -0.39826315417E+01  0.57411201374E+01  0.74426718910E+01  0.00000000000E+00 0. -1.
         -5    1    5    5    0  502 -0.33296156856E+02 -0.43634228212E+02 -0.99918311014E+02  0.11409793517E+03  0.47000000000E+01 0.  1.
         13    1    6    6    0    0 -0.12364667779E+02 -0.39839709333E+02 -0.12413731880E+03  0.13095862464E+03  0.00000000000E+00 0. -1.
        -14    1    6    6    0    0 -0.10321842260E+02 -0.21668830687E+03 -0.14273403358E+04  0.14437315529E+04  0.00000000000E+00 0.  1.
</event>
<event>
12    1  0.1046899E+000  0.2686777E+03  0.7818608E-02  0.1102160E+00
         21   -1    0    0  503  502  0.00000000000E+00  0.00000000000E+00  0.23008714433E+03  0.23008714433E+03  0.00000000000E+00 0. -1.
         21   -1    0    0  501  503 -0.00000000000E+00 -0.00000000000E+00 -0.41458730178E+03  0.41458730178E+03  0.00000000000E+00 0. -1.
          6    2    1    2  501    0  0.12900724492E+03  0.16036069109E+03  0.67603681166E+02  0.27623984085E+03  0.17140528427E+03 0.  0.
         24    2    3    3    0    0  0.71837956003E+02  0.17519058254E+03  0.67479876710E+02  0.21699156152E+03  0.81727424272E+02 0.  0.
         -6    2    1    2    0  502 -0.12900724492E+03 -0.16036069109E+03 -0.25210383861E+03  0.36843460527E+03  0.17271158741E+03 0.  0.
        -24    2    5    5    0    0 -0.13035237685E+03 -0.16379997622E+03 -0.26919375052E+03  0.35032954655E+03  0.80270427372E+02 0.  0.
          5    1    3    3  501    0  0.57169288916E+02 -0.14829891448E+02  0.12380445681E+00  0.59248279326E+02  0.47000000000E+01 0. -1.
        -13    1    4    4    0    0  0.38148591330E+02  0.61637165073E+02 -0.13198595128E+02  0.73679427604E+02  0.00000000000E+00 0.  1.
         14    1    4    4    0    0  0.33689364673E+02  0.11355341747E+03  0.80678471837E+02  0.14331213392E+03  0.00000000000E+00 0. -1.
         -5    1    5    5    0  502  0.13451319351E+01  0.34392851269E+01  0.17089911903E+02  0.18105058712E+02  0.47000000000E+01 0.  1.
         13    1    6    6    0    0 -0.62778258730E+02 -0.39449615843E+02 -0.14133092146E+03  0.15959890764E+03  0.00000000000E+00 0. -1.
        -14    1    6    6    0    0 -0.67574118125E+02 -0.12435036038E+03 -0.12786282906E+03  0.19073063891E+03  0.00000000000E+00 0.  1.
</event>
<event>
12    1  0.1046899E+000  0.1876089E+03  0.7818608E-02  0.1160740E+00
         21   -1    0    0  503  502  0.00000000000E+00  0.00000000000E+00  0.42611279004E+02  0.42611279004E+02  0.00000000000E+00 0. -1.
         21   -1    0    0  501  503 -0.00000000000E+00 -0.00000000000E+00 -0.93357128266E+03  0.93357128266E+03  0.00000000000E+00 0. -1.
          6    2    1    2  501    0 -0.40730758307E+02 -0.54618152222E+02 -0.61220992656E+03  0.64017854291E+03  0.17431418588E+03 0.  0.
         24    2    3    3    0    0 -0.91586540573E+02 -0.25025941830E+02 -0.47505886963E+03  0.49086507425E+03  0.79077173239E+02 0.  0.
         -6    2    1    2    0  502  0.40730758307E+02  0.54618152222E+02 -0.27875007710E+03  0.33600401876E+03  0.17479976520E+03 0.  0.
        -24    2    5    5    0    0  0.78423034452E+02 -0.32637378283E+01 -0.12395112269E+03  0.16642858668E+03  0.78573337285E+02 0.  0.
          5    1    3    3  501    0  0.50855782266E+02 -0.29592210392E+02 -0.13715105693E+03  0.14931346866E+03  0.47000000000E+01 0. -1.
        -11    1    4    4    0    0  0.31942312724E+01 -0.21938214490E+02 -0.41437641041E+02  0.46995387683E+02  0.00000000000E+00 0.  1.
         12    1    4    4    0    0 -0.94780771845E+02 -0.30877273398E+01 -0.43362122859E+03  0.44386968657E+03  0.00000000000E+00 0. -1.
         -5    1    5    5    0  502 -0.37692276144E+02  0.57881890050E+02 -0.15479895441E+03  0.16957543207E+03  0.47000000000E+01 0.  1.
         13    1    6    6    0    0  0.15220746086E+02  0.13039906479E+02  0.60717456268E+01  0.20942214958E+02  0.00000000000E+00 0. -1.
        -14    1    6    6    0    0  0.63202288366E+02 -0.16303644308E+02 -0.13002286832E+03  0.14548637173E+03  0.00000000000E+00 0.  1.
</event>
<event>
12    1  0.1046899E+000  0.1795564E+03  0.7818608E-02  0.1168609E+00
         21   -1    0    0  501  502  0.00000000000E+00  0.00000000000E+00  0.10543413062E+03  0.10543413062E+03  0.00000000000E+00 0.  1.
         21   -1    0    0  502  503 -0.00000000000E+00 -0.00000000000E+00 -0.31835767914E+03  0.31835767914E+03  0.00000000000E+00 0.  1.
         -6    2    1    2    0  503  0.57654226904E+02 -0.45156520167E+01 -0.60617110947E+02  0.18951240740E+03  0.16998858028E+03 0.  0.
        -24    2    3    3    0    0  0.67300415920E+02  0.52072685153E+02 -0.22052728629E+02  0.12019725430E+03  0.81976500163E+02 0.  0.
          6    2    1    2  501    0 -0.57654226904E+02  0.45156520167E+01 -0.15230643758E+03  0.23427940235E+03  0.16836028762E+03 0.  0.
         24    2    5    5    0    0 -0.40700190315E+02  0.10468910272E+02 -0.17921942860E+03  0.20157955944E+03  0.82149933809E+02 0.  0.
          5    1    5    5  501    0 -0.16954036590E+02 -0.59532582555E+01  0.26912991021E+02  0.32699842909E+02  0.47000000000E+01 0. -1.
        -11    1    6    6    0    0  0.87414717455E+01 -0.10711301944E+02  0.64933784301E+00  0.13840771556E+02  0.00000000000E+00 0.  1.
         12    1    6    6    0    0 -0.49441662060E+02  0.21180212217E+02 -0.17986876644E+03  0.18773878789E+03  0.00000000000E+00 0. -1.
         -5    1    3    3    0  503 -0.96461890156E+01 -0.56588337170E+02 -0.38564382318E+02  0.69315153103E+02  0.47000000000E+01 0.  1.
         11    1    4    4    0    0  0.46644205258E+02 -0.14113880330E+02 -0.68067867112E+01  0.49205851761E+02  0.00000000000E+00 0. -1.
        -12    1    4    4    0    0  0.20656210662E+02  0.66186565483E+02 -0.15245941918E+02  0.70991402538E+02  0.00000000000E+00 0.  1.
</event>
<event>
12    1  0.1046899E+000  0.2217172E+03  0.7818608E-02  0.1132699E+00
         21   -1    0    0  501  502  0.00000000000E+00  0.00000000000E+00  0.71462781866E+02  0.71462781866E+02  0.00000000000E+00 0. -1.
         21   -1    0    0  502  503 -0.00000000000E+00 -0.00000000000E+00 -0.71315610294E+03  0.71315610294E+03  0.00000000000E+00 0. -1.
         -6    2    1    2    0  503 -0.91968127105E+02 -0.10579828402E+03 -0.24516530688E+03  0.33055190942E+03  0.17177637736E+03 0.  0.
        -24    2    3    3    0    0 -0.11571459332E+02  0.10599166031E+01 -0.13603199249E+03  0.15788323959E+03  0.79293078319E+02 0.  0.
          6    2    1    2  501    0  0.91968127105E+02  0.10579828402E+03 -0.39652801419E+03  0.45406697538E+03  0.17114595757E+03 0.  0.
         24    2    5    5    0    0  0.10391892530E+03  0.11449241810E+03 -0.24118234933E+03  0.29794915086E+03  0.81835896942E+02 0.  0.
          5    1    5    5  501    0 -0.11950798196E+02 -0.86941340774E+01 -0.15534566486E+03  0.15611782453E+03  0.47000000000E+01 0. -1.
        -11    1    6    6    0    0  0.80636138978E+02  0.12324585106E+03 -0.18470166738E+03  0.23623385161E+03  0.00000000000E+00 0.  1.
         12    1    6    6    0    0  0.23282786323E+02 -0.87534329593E+01 -0.56480681949E+02  0.61715299246E+02  0.00000000000E+00 0. -1.
         -5    1    3    3    0  503 -0.80396667773E+02 -0.10685820063E+03 -0.10913331439E+03  0.17266866983E+03  0.47000000000E+01 0.  1.
         13    1    4    4    0    0 -0.43842763699E+02 -0.50245531172E+01 -0.98983801900E+02  0.10837539897E+03  0.00000000000E+00 0. -1.
        -14    1    4    4    0    0  0.32271304367E+02  0.60844697202E+01 -0.37048190586E+02  0.49507840622E+02  0.00000000000E+00 0.  1.
</event>
<event>
12    1  0.1046899E+000  0.2199381E+03  0.7818608E-02  0.1135126E+00
         21   -1    0    0  503  502  0.00000000000E+00  0.00000000000E+00  0.52515167093E+03  0.52515167093E+03  0.00000000000E+00 0. -1.
         21   -1    0    0  501  503 -0.00000000000E+00 -0.00000000000E+00 -0.89550858995E+02  0.89550858995E+02  0.00000000000E+00 0. -1.
          6    2    1    2  501    0  0.13447593223E+03  0.29729343873E+02  0.22297260943E+03  0.30878831951E+03  0.16329675892E+03 0.  0.
         24    2    3    3    0    0  0.11393616090E+03  0.22187917723E+02  0.24139865087E+03  0.27979928162E+03  0.80873833219E+02 0.  0.
         -6    2    1    2    0  502 -0.13447593223E+03 -0.29729343873E+02  0.21262820251E+03  0.30591421042E+03  0.17147927396E+03 0.  0.
        -24    2    5    5    0    0 -0.73852131290E+02 -0.83702225459E+02  0.15311371840E+03  0.20515518598E+03  0.78642480438E+02 0.  0.
          5    1    3    3  501    0  0.20539771324E+02  0.75414261504E+01 -0.18426041442E+02  0.28989037887E+02  0.47000000000E+01 0. -1.
        -13    1    4    4    0    0  0.55530718174E+02  0.13195918892E+01  0.38374623210E+02  0.67513063108E+02  0.00000000000E+00 0.  1.
         14    1    4    4    0    0  0.58405442730E+02  0.20868325833E+02  0.20302402766E+03  0.21228621852E+03  0.00000000000E+00 0. -1.
         -5    1    5    5    0  502 -0.60623800939E+02  0.53972881587E+02  0.59514484110E+02  0.10075902444E+03  0.47000000000E+01 0.  1.
         11    1    6    6    0    0  0.10363014976E+02 -0.31914625186E+02  0.19066933453E+02  0.38593825043E+02  0.00000000000E+00 0. -1.
        -12    1    6    6    0    0 -0.84215146266E+02 -0.51787600274E+02  0.13404678494E+03  0.16656136093E+03  0.00000000000E+00 0.  1.
</event>
<event>
12    1  0.1046899E+000  0.3425353E+03  0.7818608E-02  0.1065735E+00
         21   -1    0    0  503  502  0.00000000000E+00  0.00000000000E+00  0.42292395640E+03  0.42292395640E+03  0.00000000000E+00 0.  1.
         21   -1    0    0  501  503 -0.00000000000E+00 -0.00000000000E+00 -0.28162102370E+03  0.28162102370E+03  0.00000000000E+00 0.  1.
          6    2    1    2  501    0 -0.28980504664E+03  0.61780345227E+02  0.11417488954E+03  0.36106276746E+03  0.17183317645E+03 0.  0.
         24    2    3    3    0    0 -0.28112306052E+03  0.62067539864E+02  0.58118929021E+02  0.30414335009E+03  0.79011472761E+02 0.  0.
         -6    2    1    2    0  502  0.28980504664E+03 -0.61780345227E+02  0.27128043152E+02  0.34348221264E+03  0.17158182760E+03 0.  0.
        -24    2    5    5    0    0  0.24993863734E+03  0.80827002768E+01  0.24565147981E+02  0.26286686578E+03  0.77206801207E+02 0.  0.
          5    1    3    3  501    0 -0.86819861137E+01 -0.28719463735E+00  0.56055960523E+02  0.56919417370E+02  0.47000000000E+01 0. -1.
        -11    1    4    4    0    0 -0.61288005175E+01  0.29219015017E+01 -0.12416331115E+02  0.14151501069E+02  0.00000000000E+00 0.  1.
         12    1    4    4    0    0 -0.27499426001E+03  0.59145638362E+02  0.70535260136E+02  0.28999184902E+03  0.00000000000E+00 0. -1.
         -5    1    5    5    0  502  0.39866409298E+02 -0.69863045504E+02  0.25628951706E+01  0.80615346858E+02  0.47000000000E+01 0.  1.
         11    1    6    6    0    0  0.23385019606E+03 -0.13392648804E+02  0.27637343078E+02  0.23585822006E+03  0.00000000000E+00 0. -1.
        -12    1    6    6    0    0  0.16088441283E+02  0.21475349081E+02 -0.30721950972E+01  0.27008645723E+02  0.00000000000E+00 0.  1.
</event>
<event>
12    1  0.1046899E+000  0.2695102E+03  0.7818608E-02  0.1101645E+00
         21   -1    0    0  501  502  0.00000000000E+00  0.00000000000E+00  0.10755379638E+03  0.10755379638E+03  0.00000000000E+00 0. -1.
         21   -1    0    0  502  503 -0.00000000000E+00 -0.00000000000E+00 -0.80474752395E+03  0.80474752395E+03  0.00000000000E+00 0. -1.
         -6    2    1    2    0  503 -0.19929586699E+03 -0.54604836289E+02 -0.16496122081E+03  0.31598722660E+03  0.17301789578E+03 0.  0.
        -24    2    3    3    0    0 -0.56830646820E+02 -0.27891019081E+02 -0.13327278947E+03  0.16754123081E+03  0.79377555029E+02 0.  0.
          6    2    1    2  501    0  0.19929586699E+03  0.54604836289E+02 -0.53223250676E+03  0.59631409373E+03  0.17210033813E+03 0.  0.
         24    2    5    5    0    0  0.12116550012E+03 -0.13631009577E+02 -0.20183445584E+03  0.24998268173E+03  0.82989823223E+02 0.  0.
          5    1    5    5  501    0  0.78130366870E+02  0.68235845866E+02 -0.33039805092E+03  0.34633141201E+03  0.47000000000E+01 0. -1.
        -13    1    6    6    0    0  0.13316988094E+03 -0.11658118582E+02 -0.19369185202E+03  0.23534371132E+03  0.00000000000E+00 0.  1.
         14    1    6    6    0    0 -0.12004380818E+02 -0.19728909951E+01 -0.81426038152E+01  0.14638970407E+02  0.00000000000E+00 0. -1.
         -5    1    3    3    0  503 -0.14246522017E+03 -0.26713817208E+02 -0.31688431332E+02  0.14844599580E+03  0.47000000000E+01 0.  1.
         13    1    4    4    0    0 -0.32368257921E+02 -0.24302442611E+02 -0.98378387651E+01  0.41654482463E+02  0.00000000000E+00 0. -1.
        -14    1    4    4    0    0 -0.24462388899E+02 -0.35885764700E+01 -0.12343495071E+03  0.12588674834E+03  0.00000000000E+00 0.  1.
</event>
<event>
12    1  0.1046899E+000  0.1919006E+03  0.7818608E-02  0.1157344E+00
         21   -1    0    0  503  502  0.00000000000E+00  0.00000000000E+00  0.64196946356E+02  0.64196946356E+02  0.00000000000E+00 0.  1.
         21   -1    0    0  501  503 -0.00000000000E+00 -0.00000000000E+00 -0.18619751493E+04  0.18619751493E+04  0.00000000000E+00 0.  1.
          6    2    1    2  501    0  0.57528331333E+02 -0.53921932420E+02 -0.97239204495E+02  0.21513086658E+03  0.17495354573E+03 0.  0.
         24    2    3    3    0    0  0.79619748125E+02  0.16857215964E+02 -0.78235214840E+02  0.13844344803E+03  0.80139687041E+02 0.  0.
         -6    2    1    2    0  502 -0.57528331333E+02  0.53921932420E+02 -0.17005389985E+04  0.17110412291E+04  0.17208172084E+03 0.  0.
        -24    2    5    5    0    0 -0.41516085255E+02  0.10232599663E+03 -0.12544190339E+04  0.12619928373E+04  0.82852964160E+02 0.  0.
          5    1    3    3  501    0 -0.22091416792E+02 -0.70779148385E+02 -0.19003989655E+02  0.76687418556E+02  0.47000000000E+01 0. -1.
        -11    1    4    4    0    0  0.30542940419E+02  0.31958257600E+02 -0.74919061734E+02  0.86988891529E+02  0.00000000000E+00 0.  1.
         12    1    4    4    0    0  0.49076807705E+02 -0.15101041636E+02 -0.33161531065E+01  0.51454556499E+02  0.00000000000E+00 0. -1.
         -5    1    5    5    0  502 -0.16012246078E+02 -0.48404064205E+02 -0.44611996456E+03  0.44904839186E+03  0.47000000000E+01 0.  1.
         13    1    6    6    0    0 -0.61865241153E+02  0.85502865657E+02 -0.81864714297E+03  0.82542182718E+03  0.00000000000E+00 0. -1.
        -14    1    6    6    0    0  0.20349155898E+02  0.16823130968E+02 -0.43577189097E+03  0.43657101008E+03  0.00000000000E+00 0.  1.
</event>
<event>
12    1  0.1046899E+000  0.1812476E+03  0.7818608E-02  0.1166804E+00
         21   -1    0    0  503  502  0.00000000000E+00  0.00000000000E+00  0.43441840617E+03  0.43441840617E+03  0.00000000000E+00 0.  1.
         21   -1    0    0  501  503 -0.00000000000E+00 -0.00000000000E+00 -0.79121963532E+02  0.79121963532E+02  0.00000000000E+00 0.  1.
          6    2    1    2  501    0 -0.35602440475E+02  0.41349853035E+02  0.12137355206E+03  0.21813349232E+03  0.17283905004E+03 0.  0.
         24    2    3    3    0    0 -0.64270196393E+02  0.36029927744E+02  0.17145986197E+02  0.10980243804E+03  0.79585028241E+02 0.  0.
         -6    2    1    2    0  502  0.35602440475E+02 -0.41349853035E+02  0.23392289058E+03  0.29540687738E+03  0.17195336680E+03 0.  0.
        -24    2    5    5    0    0 -0.42688655935E+02 -0.10069700246E+02  0.15540047330E+03  0.18009944592E+03  0.79767055289E+02 0.  0.
          5    1    3    3  501    0  0.28667755918E+02  0.53199252908E+01  0.10422756586E+03  0.10833105428E+03  0.47000000000E+01 0. -1.
        -13    1    4    4    0    0 -0.15667888054E+01  0.13782505039E+02 -0.26722765459E+02  0.30108445096E+02  0.00000000000E+00 0.  1.
         14    1    4    4    0    0 -0.62703407588E+02  0.22247422705E+02  0.43868751656E+02  0.79693992948E+02  0.00000000000E+00 0. -1.
         -5    1    5    5    0  502  0.78291096410E+02 -0.31280152789E+02  0.78522417272E+02  0.11530743146E+03  0.47000000000E+01 0.  1.
         13    1    6    6    0    0  0.11139838725E+02 -0.29551500575E+02  0.75218003541E+02  0.81579012312E+02  0.00000000000E+00 0. -1.
        -14    1    6    6    0    0 -0.53828494660E+02  0.19481800329E+02  0.80182469764E+02  0.98520433611E+02  0.00000000000E+00 0.  1.
</event>
<event>
12    1  0.1046899E+000  0.2363729E+03  0.7818608E-02  0.1122486E+00
         21   -1    0    0  503  502  0.00000000000E+00  0.00000000000E+00  0.24286170409E+03  0.24286170409E+03  0.00000000000E+00 0.  1.
         21   -1    0    0  501  503 -0.00000000000E+00 -0.00000000000E+00 -0.22894969733E+03  0.22894969733E+03  0.00000000000E+00 0.  1.
          6    2    1    2  501    0  0.97811901759E+02 -0.12913728584E+03 -0.20742575143E+01  0.23638197064E+03  0.17212938965E+03 0.  0.
         24    2    3    3    0    0 -0.10747757577E+02 -0.84273757026E+02 -0.16128489562E+02  0.11798624736E+03  0.80268586473E+02 0.  0.
         -6    2    1    2    0  502 -0.97811901759E+02  0.12913728584E+03  0.15986264274E+02  0.23542943077E+03  0.17008189059E+03 0.  0.
        -24    2    5    5    0    0 -0.10561797998E+03  0.36206356112E+02 -0.12588448988E+02  0.13777853833E+03  0.79739567700E+02 0.  0.
          5    1    3    3  501    0  0.10855965934E+03 -0.44863528811E+02  0.14054232047E+02  0.11839572328E+03  0.47000000000E+01 0. -1.
        -13    1    4    4    0    0  0.19812541480E+02 -0.24321302284E+02  0.24124742126E+02  0.39573548329E+02  0.00000000000E+00 0.  1.
         14    1    4    4    0    0 -0.30560299058E+02 -0.59952454741E+02 -0.40253231688E+02  0.78412699031E+02  0.00000000000E+00 0. -1.
         -5    1    5    5    0  502  0.78060782250E+01  0.92930929725E+02  0.28574713262E+02  0.97650892443E+02  0.47000000000E+01 0.  1.
         13    1    6    6    0    0 -0.17652575868E+00 -0.17372551123E+02  0.52911796194E+01  0.18161312608E+02  0.00000000000E+00 0. -1.
        -14    1    6    6    0    0 -0.10544145423E+03  0.53578907236E+02 -0.17879628607E+02  0.11961722572E+03  0.00000000000E+00 0.  1.
</event>
<event>
12    1  0.1046899E+000  0.1941127E+03  0.7818608E-02  0.1155088E+00
         21   -1    0    0  503  502  0.00000000000E+00  0.00000000000E+00  0.16189963353E+03  0.16189963353E+03  0.00000000000E+00 0.  1.
         21   -1    0    0  501  503 -0.00000000000E+00 -0.00000000000E+00 -0.23154273752E+03  0.23154273752E+03  0.00000000000E+00 0.  1.
          6    2    1    2  501    0  0.62459879128E+02  0.61699948600E+02 -0.27011202479E+02  0.19470326048E+03  0.17167304513E+03 0.  0.
         24    2    3    3    0    0  0.52565395016E+02 -0.19249626591E+02  0.15085931133E+02  0.10280661638E+03  0.84899624119E+02 0.  0.
         -6    2    1    2    0  502 -0.62459879128E+02 -0.61699948600E+02 -0.42631901509E+02  0.19873911057E+03  0.17312317836E+03 0.  0.
        -24    2    5    5    0    0 -0.86345926882E+02  0.92930607306E+01 -0.16459686779E+02  0.11925561873E+03  0.80056238003E+02 0.  0.
          5    1    3    3  501    0  0.98944841126E+01  0.80949575191E+02 -0.42097133612E+02  0.91896644105E+02  0.47000000000E+01 0. -1.
        -13    1    4    4    0    0 -0.23117709039E+02 -0.92216427344E+01 -0.46907828844E+00  0.24893517236E+02  0.00000000000E+00 0.  1.
         14    1    4    4    0    0  0.75683104055E+02 -0.10027983857E+02  0.15555009422E+02  0.77913099141E+02  0.00000000000E+00 0. -1.
         -5    1    5    5    0  502  0.23886047754E+02 -0.70993009330E+02 -0.26172214730E+02  0.79483491839E+02  0.47000000000E+01 0.  1.
         11    1    6    6    0    0 -0.42159363357E+02  0.42613060271E+02  0.44190636542E+01  0.60106679728E+02  0.00000000000E+00 0. -1.
        -12    1    6    6    0    0 -0.44186563525E+02 -0.33319999540E+02 -0.20878750433E+02  0.59148939003E+02  0.00000000000E+00 0.  1.
</event>
<event>
12    1  0.1046899E+000  0.2435476E+03  0.7818608E-02  0.1117820E+00
         21   -1    0    0  503  502  0.00000000000E+00  0.00000000000E+00  0.20233668904E+03  0.20233668904E+03  0.00000000000E+00 0. -1.
         21   -1    0    0  501  503 -0.00000000000E+00 -0.00000000000E+00 -0.37119050113E+03  0.37119050113E+03  0.00000000000E+00 0.  1.
          6    2    1    2  501    0 -0.39287656435E+02  0.16524432457E+03 -0.21846474264E+03  0.32717318479E+03  0.17454581724E+03 0.  0.
         24    2    3    3    0    0 -0.61569092331E+02  0.32920475207E+02 -0.76885747388E+02  0.13205074786E+03  0.81556551184E+02 0.  0.
         -6    2    1    2    0  502  0.39287656435E+02 -0.16524432457E+03  0.49610930546E+02  0.24635400538E+03  0.17140549812E+03 0.  0.
        -24    2    5    5    0    0  0.17478014998E+02 -0.19098922322E+03  0.41780672996E+02  0.21139884555E+03  0.78495113663E+02 0.  0.
          5    1    3    3  501    0  0.22281435896E+02  0.13232384936E+03 -0.14157899525E+03  0.19512243693E+03  0.47000000000E+01 0. -1.
        -11    1    4    4    0    0 -0.11479188778E+02 -0.25997204079E+02 -0.31324746112E+02  0.42294989229E+02  0.00000000000E+00 0.  1.
         12    1    4    4    0    0 -0.50089903553E+02  0.58917679286E+02 -0.45561001275E+02  0.89755758632E+02  0.00000000000E+00 0. -1.
         -5    1    5    5    0  502  0.21809641437E+02  0.25744898645E+02  0.78302575509E+01  0.34955159836E+02  0.47000000000E+01 0.  1.
         13    1    6    6    0    0  0.40926161738E+02 -0.52437137100E+02  0.17653137523E+02  0.68820326403E+02  0.00000000000E+00 0. -1.
        -14    1    6    6    0    0 -0.23448146740E+02 -0.13855208612E+03  0.24127535473E+02  0.14257851914E+03  0.00000000000E+00 0.  1.
</event>
<event>
12    1  0.1046899E+000  0.2162960E+03  0.7818608E-02  0.1137044E+00
         21   -1    0    0  503  502  0.00000000000E+00  0.00000000000E+00  0.16658555856E+03  0.16658555856E+03  0.00000000000E+00 0.  1.
         21   -1    0    0  501  503 -0.00000000000E+00 -0.00000000000E+00 -0.28423205948E+03  0.28423205948E+03  0.00000000000E+00 0.  1.
          6    2    1    2  501    0 -0.10761357498E+03 -0.72058333001E+02 -0.91009793285E+02  0.23288761965E+03  0.17082381577E+03 0.  0.
         24    2    3    3    0    0 -0.60555973456E+02 -0.69433457351E+01  0.12337203964E+02  0.10190261566E+03  0.80726083182E+02 0.  0.
         -6    2    1    2    0  502  0.10761357498E+03  0.72058333001E+02 -0.26636707642E+02  0.21792999840E+03  0.17323650058E+03 0.  0.
        -24    2    5    5    0    0  0.60241251850E+02  0.27413393670E+02  0.50862527878E+02  0.11661105094E+03  0.81428728857E+02 0.  0.
          5    1    3    3  501    0 -0.47057601525E+02 -0.65114987266E+02 -0.10334699725E+03  0.13098500398E+03  0.47000000000E+01 0. -1.
        -13    1    4    4    0    0 -0.25721114587E+02 -0.26617956038E+02 -0.26984477167E+02  0.45806695222E+02  0.00000000000E+00 0.  1.
         14    1    4    4    0    0 -0.34834858869E+02  0.19674610303E+02  0.39321681131E+02  0.56095920440E+02  0.00000000000E+00 0. -1.
         -5    1    5    5    0  502  0.47372323131E+02  0.44644939331E+02 -0.77499235521E+02  0.10131894745E+03  0.47000000000E+01 0.  1.
         13    1    6    6    0    0  0.58636995832E+02 -0.15167430382E+02  0.19244672010E+02  0.63550811367E+02  0.00000000000E+00 0. -1.
        -14    1    6    6    0    0  0.16042560180E+01  0.42580824052E+02  0.31617855868E+02  0.53060239578E+02  0.00000000000E+00 0.  1.
</event>
<event>
12    1  0.1046899E+000  0.2435024E+03  0.7818608E-02  0.1117586E+00
         21   -1    0    0  503  502  0.00000000000E+00  0.00000000000E+00  0.14199516159E+03  0.14199516159E+03  0.00000000000E+00 0.  1.
         21   -1    0    0  501  503 -0.00000000000E+00 -0.00000000000E+00 -0.41648052036E+03  0.41648052036E+03  0.00000000000E+00 0.  1.
          6    2    1    2  501    0 -0.14802488209E+03 -0.86583195249E+02 -0.13640734624E+03  0.27910636721E+03  0.17287389824E+03 0.  0.
         24    2    3    3    0    0 -0.38275562672E+02 -0.97118341534E+02 -0.51855056399E+02  0.14008449074E+03  0.77702810197E+02 0.  0.
         -6    2    1    2    0  502  0.14802488209E+03  0.86583195249E+02 -0.13807801253E+03  0.27936931473E+03  0.17196994229E+03 0.  0.
        -24    2    5    5    0    0  0.82028157978E+02 -0.13665015146E+02 -0.33635240248E+02  0.12019753971E+03  0.80004798769E+02 0.  0.
          5    1    3    3  501    0 -0.10974931942E+03  0.10535146284E+02 -0.84552289841E+02  0.13902187647E+03  0.47000000000E+01 0. -1.
        -13    1    4    4    0    0 -0.33497767358E+02 -0.31295835448E+02  0.12902786533E+02  0.47623645751E+02  0.00000000000E+00 0.  1.
         14    1    4    4    0    0 -0.47777953141E+01 -0.65822506085E+02 -0.64757842931E+02  0.92460844991E+02  0.00000000000E+00 0. -1.
         -5    1    5    5    0  502  0.65996724110E+02  0.10024821040E+03 -0.10444277229E+03  0.15917177502E+03  0.47000000000E+01 0.  1.
         13    1    6    6    0    0 -0.85191703949E+01  0.13299919626E+02  0.70948444484E+01  0.17314760871E+02  0.00000000000E+00 0. -1.
        -14    1    6    6    0    0  0.90547328373E+02 -0.26964934772E+02 -0.40730084696E+02  0.10288277884E+03  0.00000000000E+00 0.  1.
</event>
<event>
12    1  0.1046899E+000  0.1874848E+03  0.7818608E-02  0.1160777E+00
         21   -1    0    0  501  502  0.00000000000E+00  0.00000000000E+00  0.75247636021E+03  0.75247636021E+03  0.00000000000E+00 0.  1.
         21   -1    0    0  502  503 -0.00000000000E+00 -0.00000000000E+00 -0.49157101218E+02  0.49157101218E+02  0.00000000000E+00 0.  1.
         -6    2    1    2    0  503 -0.18712971120E+01  0.73941307525E+02  0.44146703210E+03  0.47958199129E+03  0.17214798061E+03 0.  0.
        -24    2    3    3    0    0  0.23699001139E+02  0.94789587144E+02  0.24315571680E+03  0.27849007526E+03  0.94261927212E+02 0.  0.
          6    2    1    2  501    0  0.18712971120E+01 -0.73941307525E+02  0.26185222690E+03  0.32205147014E+03  0.17227809489E+03 0.  0.
         24    2    5    5    0    0 -0.61552721128E+02 -0.23270730037E+02  0.17518615485E+03  0.20321035118E+03  0.79208545115E+02 0.  0.
          5    1    5    5  501    0  0.63424018240E+02 -0.50670577489E+02  0.86666072041E+02  0.11884111896E+03  0.47000000000E+01 0. -1.
        -13    1    6    6    0    0 -0.15936746231E+02 -0.16793499460E+02  0.14782057321E+03  0.14962260314E+03  0.00000000000E+00 0.  1.
         14    1    6    6    0    0 -0.45615974897E+02 -0.64772305766E+01  0.27365581642E+02  0.53587748043E+02  0.00000000000E+00 0. -1.
         -5    1    3    3    0  503 -0.25570298251E+02 -0.20848279619E+02  0.19831131530E+03  0.20109191603E+03  0.47000000000E+01 0.  1.
         11    1    4    4    0    0 -0.36261114516E+02  0.45142524144E+02  0.10581035549E+03  0.12061735879E+03  0.00000000000E+00 0. -1.
        -12    1    4    4    0    0  0.59960115655E+02  0.49647063000E+02  0.13734536130E+03  0.15787271647E+03  0.00000000000E+00 0.  1.
</event>
<event>
12    1  0.1046899E+000  0.3354875E+03  0.7818608E-02  0.1068755E+00
         21   -1    0    0  501  502  0.00000000000E+00  0.00000000000E+00  0.80706123937E+03  0.80706123937E+03  0.00000000000E+00 0. -1.
         21   -1    0    0  502  503 -0.00000000000E+00 -0.00000000000E+00 -0.14542099544E+03  0.14542099544E+03  0.00000000000E+00 0. -1.
         -6    2    1    2    0  503  0.28332689774E+03  0.51133392443E+02  0.42799139285E+03  0.54380924528E+03  0.17222981186E+03 0.  0.
        -24    2    3    3    0    0  0.16710345623E+03  0.78337783379E+02  0.18822463051E+03  0.27593211381E+03  0.81545364743E+02 0.  0.
          6    2    1    2  501    0 -0.28332689774E+03 -0.51133392443E+02  0.23364885108E+03  0.40867298953E+03  0.17185188959E+03 0.  0.
         24    2    5    5    0    0 -0.26002896241E+03 -0.60383565573E+02  0.14034354507E+03  0.31194486734E+03  0.79699769954E+02 0.  0.
          5    1    5    5  501    0 -0.23297935327E+02  0.92501731306E+01  0.93305306012E+02  0.96728122196E+02  0.47000000000E+01 0. -1.
        -13    1    6    6    0    0 -0.19564694874E+02 -0.23296488475E+02 -0.12283504100E+01  0.30446880062E+02  0.00000000000E+00 0.  1.
         14    1    6    6    0    0 -0.24046426754E+03 -0.37087077099E+02  0.14157189548E+03  0.28149798727E+03  0.00000000000E+00 0. -1.
         -5    1    3    3    0  503  0.11622344151E+03 -0.27204390937E+02  0.23976676234E+03  0.26787713147E+03  0.47000000000E+01 0.  1.
         13    1    4    4    0    0  0.18239574204E+02 -0.75777517965E+00  0.63944465778E+02  0.66499255589E+02  0.00000000000E+00 0. -1.
        -14    1    4    4    0    0  0.14886388203E+03  0.79095558559E+02  0.12428016474E+03  0.20943285822E+03  0.00000000000E+00 0.  1.
</event>
<event>
12    1  0.1046899E+000  0.1833889E+03  0.7818608E-02  0.1165015E+00
         21   -1    0    0  503  502  0.00000000000E+00  0.00000000000E+00  0.15283472801E+04  0.15283472801E+04  0.00000000000E+00 0.  1.
         21   -1    0    0  501  503 -0.00000000000E+00 -0.00000000000E+00 -0.43065744241E+02  0.43065744241E+02  0.00000000000E+00 0. -1.
          6    2    1    2  501    0  0.57374155106E+02 -0.13281067413E+02  0.12970154820E+04  0.13099162782E+04  0.17367589061E+03 0.  0.
         24    2    3    3    0    0 -0.32100168073E+02 -0.18009995303E+01  0.83616089216E+03  0.84029250386E+03  0.76764510562E+02 0.  0.
         -6    2    1    2    0  502 -0.57374155106E+02  0.13281067413E+02  0.18826605380E+03  0.26149674606E+03  0.17166321901E+03 0.  0.
        -24    2    5    5    0    0 -0.45591227250E+02  0.71818729897E+02  0.89599292836E+02  0.14607267995E+03  0.77927559857E+02 0.  0.
          5    1    3    3  501    0  0.89474323179E+02 -0.11480067882E+02  0.46085458986E+03  0.46962377438E+03  0.47000000000E+01 0. -1.
        -11    1    4    4    0    0 -0.16888785817E+02  0.22642123774E+02  0.72216942308E+03  0.72272164246E+03  0.00000000000E+00 0.  1.
         12    1    4    4    0    0 -0.15211382256E+02 -0.24443123305E+02  0.11399146908E+03  0.11757086140E+03  0.00000000000E+00 0. -1.
         -5    1    5    5    0  502 -0.11782927855E+02 -0.58537662484E+02  0.98666760966E+02  0.11542406611E+03  0.47000000000E+01 0.  1.
         13    1    6    6    0    0 -0.36801737013E+02 -0.37022459572E+01  0.43739626757E+02  0.57282016560E+02  0.00000000000E+00 0. -1.
        -14    1    6    6    0    0 -0.87894902372E+01  0.75520975854E+02  0.45859666078E+02  0.88790663391E+02  0.00000000000E+00 0.  1.
</event>
<event>
12    1  0.1046899E+000  0.1999239E+03  0.7818608E-02  0.1150115E+00
         21   -1    0    0  501  502  0.00000000000E+00  0.00000000000E+00  0.29640016282E+03  0.29640016282E+03  0.00000000000E+00 0. -1.
         21   -1    0    0  502  503 -0.00000000000E+00 -0.00000000000E+00 -0.13454764575E+03  0.13454764575E+03  0.00000000000E+00 0. -1.
         -6    2    1    2    0  503 -0.19583572192E+02  0.98778036644E+02  0.96044437550E+02  0.22047155075E+03  0.17100454346E+03 0.  0.
        -24    2    3    3    0    0  0.33451309213E+02  0.22246017916E+01  0.57335858708E+02  0.10361390871E+03  0.79526740428E+02 0.  0.
          6    2    1    2  501    0  0.19583572192E+02 -0.98778036644E+02  0.65808079527E+02  0.21047625782E+03  0.17271055252E+03 0.  0.
         24    2    5    5    0    0 -0.18746021132E+02 -0.95109844867E+02  0.99997388996E+02  0.15876927341E+03  0.76229315049E+02 0.  0.
          5    1    5    5  501    0  0.38329593324E+02 -0.36681917771E+01 -0.34189309469E+02  0.51706984415E+02  0.47000000000E+01 0. -1.
        -11    1    6    6    0    0 -0.10648627331E+02 -0.17221503820E+01  0.52665968418E+02  0.53759308919E+02  0.00000000000E+00 0.  1.
         12    1    6    6    0    0 -0.80973938007E+01 -0.93387694485E+02  0.47331420577E+02  0.10500996449E+03  0.00000000000E+00 0. -1.
         -5    1    3    3    0  503 -0.53034881405E+02  0.96553434853E+02  0.38708578842E+02  0.11685764204E+03  0.47000000000E+01 0.  1.
         11    1    4    4    0    0  0.54030899820E+02  0.18671072362E+02  0.26360614084E+02  0.62951005182E+02  0.00000000000E+00 0. -1.
        -12    1    4    4    0    0 -0.20579590607E+02 -0.16446470571E+02  0.30975244624E+02  0.40662903528E+02  0.00000000000E+00 0.  1.
</event>
<event>
12    1  0.1046899E+000  0.2145566E+03  0.7818608E-02  0.1138831E+00
         21   -1    0    0  503  502  0.00000000000E+00  0.00000000000E+00  0.12202463498E+04  0.12202463498E+04  0.00000000000E+00 0.  1.
         21   -1    0    0  501  503 -0.00000000000E+00 -0.00000000000E+00 -0.40237094016E+02  0.40237094016E+02  0.00000000000E+00 0.  1.
          6    2    1    2  501    0 -0.38223900537E+02  0.11465669804E+03  0.40543351266E+03  0.45674087230E+03  0.17212979483E+03 0.  0.
         24    2    3    3    0    0  0.14952734688E+01  0.46920943620E+02  0.34525427970E+03  0.35769858189E+03  0.80894666352E+02 0.  0.
         -6    2    1    2    0  502  0.38223900537E+02 -0.11465669804E+03  0.77457574311E+03  0.80374257150E+03  0.17727750688E+03 0.  0.
        -24    2    5    5    0    0 -0.34426459633E+02 -0.11956264027E+03  0.42996669993E+03  0.45149319145E+03  0.59112881895E+02 0.  0.
          5    1    3    3  501    0 -0.39719174006E+02  0.67735754415E+02  0.60179232954E+02  0.99042290405E+02  0.47000000000E+01 0. -1.
        -13    1    4    4    0    0 -0.38880085934E+02  0.32434241105E+02  0.18592527480E+03  0.19269626070E+03  0.00000000000E+00 0.  1.
         14    1    4    4    0    0  0.40375359403E+02  0.14486702516E+02  0.15932900491E+03  0.16500232120E+03  0.00000000000E+00 0. -1.
         -5    1    5    5    0  502  0.72650360169E+02  0.49059422366E+01  0.34460904319E+03  0.35224938005E+03  0.47000000000E+01 0.  1.
         13    1    6    6    0    0  0.91271860476E+01 -0.54610103529E+02  0.23483819162E+03  0.24127690560E+03  0.00000000000E+00 0. -1.
        -14    1    6    6    0    0 -0.43553645680E+02 -0.64952536743E+02  0.19512850830E+03  0.21021628584E+03  0.00000000000E+00 0.  1.
</event>
<event>
12    1  0.1046899E+000  0.3126845E+03  0.7818608E-02  0.1079391E+00
         21   -1    0    0  501  502  0.00000000000E+00  0.00000000000E+00  0.35069467423E+03  0.35069467423E+03  0.00000000000E+00 0.  1.
         21   -1    0    0  502  503 -0.00000000000E+00 -0.00000000000E+00 -0.35274578843E+03  0.35274578843E+03  0.00000000000E+00 0.  1.
         -6    2    1    2    0  503 -0.26092996158E+03  0.45133322511E+01  0.16263208733E+03  0.35244967147E+03  0.17224041358E+03 0.  0.
        -24    2    3    3    0    0 -0.23097432684E+03  0.49901539192E+02  0.98069642492E+02  0.26790483919E+03  0.79473547850E+02 0.  0.
          6    2    1    2  501    0  0.26092996158E+03 -0.45133322511E+01 -0.16468320153E+03  0.35099079120E+03  0.16723983861E+03 0.  0.
         24    2    5    5    0    0  0.11686838973E+03 -0.54119542782E+02 -0.47288148564E+02  0.15858964497E+03  0.79544711127E+02 0.  0.
          5    1    5    5  501    0  0.14406157185E+03  0.49606210531E+02 -0.11739505297E+03  0.19240114623E+03  0.47000000000E+01 0. -1.
        -11    1    6    6    0    0  0.20310696901E+02 -0.27122405126E+02  0.18564170658E+02  0.38636481473E+02  0.00000000000E+00 0.  1.
         12    1    6    6    0    0  0.96557692828E+02 -0.26997137656E+02 -0.65852319222E+02  0.11995316350E+03  0.00000000000E+00 0. -1.
         -5    1    3    3    0  503 -0.29955634741E+02 -0.45388206941E+02  0.64562444834E+02  0.84544832279E+02  0.47000000000E+01 0.  1.
         13    1    4    4    0    0 -0.22836417261E+02  0.20927115595E+02  0.38630892186E+02  0.49515572819E+02  0.00000000000E+00 0. -1.
        -14    1    4    4    0    0 -0.20813790958E+03  0.28974423597E+02  0.59438750306E+02  0.21838926637E+03  0.00000000000E+00 0.  1.
</event>
<event>
12    1  0.1046899E+000  0.2728083E+03  0.7818608E-02  0.1099759E+00
         21   -1    0    0  501  502  0.00000000000E+00  0.00000000000E+00  0.54269740701E+02  0.54269740701E+02  0.00000000000E+00 0. -1.
         21   -1    0    0  502  503 -0.00000000000E+00 -0.00000000000E+00 -0.16009602710E+04  0.16009602710E+04  0.00000000000E+00 0.  1.
         -6    2    1    2    0  503  0.41394083238E+02 -0.20755077718E+03 -0.45874858378E+03  0.53373645754E+03  0.17214397391E+03 0.  0.
        -24    2    3    3    0    0 -0.31917474099E+02 -0.71256803578E+02 -0.25401610101E+03  0.27704966166E+03  0.78333123537E+02 0.  0.
          6    2    1    2  501    0 -0.41394083238E+02  0.20755077718E+03 -0.10879419466E+04  0.11214935542E+04  0.17128723768E+03 0.  0.
         24    2    5    5    0    0 -0.54288393880E+02  0.36789712766E+02 -0.41447268976E+03  0.42657734758E+03  0.76680572747E+02 0.  0.
          5    1    5    5  501    0  0.12894310642E+02  0.17076106442E+03 -0.67346925681E+03  0.69491620663E+03  0.47000000000E+01 0. -1.
        -13    1    6    6    0    0 -0.29371566933E+02  0.54430011013E+02 -0.34767944721E+03  0.35313781029E+03  0.00000000000E+00 0.  1.
         14    1    6    6    0    0 -0.24916826947E+02 -0.17640298248E+02 -0.66793242548E+02  0.73439537291E+02  0.00000000000E+00 0. -1.
         -5    1    3    3    0  503  0.73311557337E+02 -0.13629397360E+03 -0.20473248276E+03  0.25668679588E+03  0.47000000000E+01 0.  1.
         11    1    4    4    0    0 -0.32758931609E+02 -0.46102596935E+02 -0.64142437876E+02  0.85515199707E+02  0.00000000000E+00 0. -1.
        -12    1    4    4    0    0  0.84145751002E+00 -0.25154206643E+02 -0.18987366313E+03  0.19153446195E+03  0.00000000000E+00 0.  1.
</event>
<event>
12    1  0.1046899E+000  0.2391629E+03  0.7818608E-02  0.1120557E+00
         21   -1    0    0  501  502  0.00000000000E+00  0.00000000000E+00  0.20901797136E+03  0.20901797136E+03  0.00000000000E+00 0. -1.
         21   -1    0    0  502  503 -0.00000000000E+00 -0.00000000000E+00 -0.34935388783E+03  0.34935388783E+03  0.00000000000E+00 0. -1.
         -6    2    1    2    0  503  0.16569858936E+03  0.10279702216E+02 -0.20146158212E+03  0.31270701959E+03  0.17215462886E+03 0.  0.
        -24    2    3    3    0    0  0.47313061529E+02  0.31301106946E+02 -0.15914281762E+03  0.18515310752E+03  0.75742667876E+02 0.  0.
          6    2    1    2  501    0 -0.16569858936E+03 -0.10279702216E+02  0.61125665644E+02  0.24566483961E+03  0.17044990943E+03 0.  0.
         24    2    5    5    0    0 -0.15558771660E+03 -0.19135594522E+02 -0.87893733730E+01  0.17431458202E+03  0.75727220247E+02 0.  0.
          5    1    5    5  501    0 -0.10110872757E+02  0.88558923053E+01  0.69915039017E+02  0.71350257583E+02  0.47000000000E+01 0. -1.
        -13    1    6    6    0    0 -0.16036266047E+03 -0.13729559525E+02 -0.18727138725E+02  0.16203514867E+03  0.00000000000E+00 0.  1.
         14    1    6    6    0    0  0.47749438705E+01 -0.54060349968E+01  0.99377653525E+01  0.12279433356E+02  0.00000000000E+00 0. -1.
         -5    1    3    3    0  503  0.11838552783E+03 -0.21021404730E+02 -0.42318764501E+02  0.12755391207E+03  0.47000000000E+01 0.  1.
         13    1    4    4    0    0  0.14947575738E+02  0.12510100948E+02 -0.14312206111E+03  0.14444326576E+03  0.00000000000E+00 0. -1.
        -14    1    4    4    0    0  0.32365485791E+02  0.18791005999E+02 -0.16020756503E+02  0.40709841757E+02  0.00000000000E+00 0.  1.
</event>
<event>
12    1  0.1046899E+000  0.2123117E+03  0.7818608E-02  0.1139796E+00
         21   -1    0    0  503  502  0.00000000000E+00  0.00000000000E+00  0.11997016309E+03  0.11997016309E+03  0.00000000000E+00 0.  1.
         21   -1    0    0  501  503 -0.00000000000E+00 -0.00000000000E+00 -0.37541789018E+03  0.37541789018E+03  0.00000000000E+00 0.  1.
          6    2    1    2  501    0 -0.11453138223E+03  0.49369594006E+02 -0.13203920673E+03  0.24981543941E+03  0.17151853348E+03 0.  0.
         24    2    3    3    0    0 -0.27473208850E+02  0.79318715102E+02 -0.10043286183E+03  0.15236223811E+03  0.77982408888E+02 0.  0.
         -6    2    1    2    0  502  0.11453138223E+03 -0.49369594006E+02 -0.12340852036E+03  0.24557261387E+03  0.17181807662E+03 0.  0.
        -24    2    5    5    0    0  0.59448219856E+02 -0.49249332309E+02 -0.14807488750E+03  0.18503593979E+03  0.79702817568E+02 0.  0.
          5    1    3    3  501    0 -0.87058173379E+02 -0.29949121096E+02 -0.31606344896E+02  0.97453201303E+02  0.47000000000E+01 0. -1.
        -13    1    4    4    0    0 -0.36876518380E+02  0.72166583002E+01 -0.55041124407E+02  0.66644453189E+02  0.00000000000E+00 0.  1.
         14    1    4    4    0    0  0.94033095299E+01  0.72102056802E+02 -0.45391737423E+02  0.85717784919E+02  0.00000000000E+00 0. -1.
         -5    1    5    5    0  502  0.55083162373E+02 -0.12026169688E+00  0.24666367142E+02  0.60536674074E+02  0.47000000000E+01 0.  1.
         13    1    6    6    0    0 -0.13026881001E+01 -0.91469907994E+01  0.83814398542E+01  0.12474492815E+02  0.00000000000E+00 0. -1.
        -14    1    6    6    0    0  0.60750907956E+02 -0.40102341509E+02 -0.15645632736E+03  0.17256144698E+03  0.00000000000E+00 0.  1.
</event>
<event>
12    1  0.1046899E+000  0.2705029E+03  0.7818608E-02  0.1100995E+00
         21   -1    0    0  503  502  0.00000000000E+00  0.00000000000E+00  0.32423989813E+03  0.32423989813E+03  0.00000000000E+00 0.  1.
         21   -1    0    0  501  503 -0.00000000000E+00 -0.00000000000E+00 -0.78066339933E+03  0.78066339933E+03  0.00000000000E+00 0. -1.
          6    2    1    2  501    0  0.13602860227E+03  0.15773692741E+03  0.23759864773E+03  0.36003462942E+03  0.17258939154E+03 0.  0.
         24    2    3    3    0    0  0.10168011777E+02  0.10520929299E+03  0.14033193242E+03  0.19245496322E+03  0.78571482199E+02 0.  0.
         -6    2    1    2    0  502 -0.13602860227E+03 -0.15773692741E+03 -0.69402214892E+03  0.74486866804E+03  0.17256265681E+03 0.  0.
        -24    2    5    5    0    0  0.57302595286E+01 -0.44513490509E+02 -0.21700861872E+03  0.23449711754E+03  0.76693355799E+02 0.  0.
          5    1    3    3  501    0  0.12586059050E+03  0.52527634417E+02  0.97266715312E+02  0.16757966620E+03  0.47000000000E+01 0. -1.
        -13    1    4    4    0    0 -0.66081095811E+01 -0.86767270759E+01 -0.54375460228E-01  0.10906679682E+02  0.00000000000E+00 0.  1.
         14    1    4    4    0    0  0.16776121358E+02  0.11388602007E+03  0.14038630788E+03  0.18154828354E+03  0.00000000000E+00 0. -1.
         -5    1    5    5    0  502 -0.14175886180E+03 -0.11322343690E+03 -0.47701353020E+03  0.51037155050E+03  0.47000000000E+01 0.  1.
         13    1    6    6    0    0 -0.17467717300E+02 -0.39054008428E+01 -0.15890691085E+03  0.15991178700E+03  0.00000000000E+00 0. -1.
        -14    1    6    6    0    0  0.23197976828E+02 -0.40608089666E+02 -0.58101707872E+02  0.74585330547E+02  0.00000000000E+00 0.  1.
</event>
<event>
12    1  0.1046899E+000  0.3485132E+03  0.7818608E-02  0.1063263E+00
         21   -1    0    0  501  502  0.00000000000E+00  0.00000000000E+00  0.22513540621E+03  0.22513540621E+03  0.00000000000E+00 0.  1.
         21   -1    0    0  502  503 -0.00000000000E+00 -0.00000000000E+00 -0.58662847484E+03  0.58662847484E+03  0.00000000000E+00 0.  1.
         -6    2    1    2    0  503 -0.50306965861E+02  0.29883635174E+03 -0.29651624910E+03  0.45758426624E+03  0.17212646163E+03 0.  0.
        -24    2    3    3    0    0 -0.40928488955E+02  0.65800087704E+02 -0.94797591290E+02  0.14919107064E+03  0.85244351682E+02 0.  0.
          6    2    1    2  501    0  0.50306965861E+02 -0.29883635174E+03 -0.64976819527E+02  0.35417961481E+03  0.17142711726E+03 0.  0.
         24    2    5    5    0    0  0.56354285405E+02 -0.20263600508E+03 -0.10996377744E+03  0.24770429770E+03  0.70910018401E+02 0.  0.
          5    1    5    5  501    0 -0.60473195434E+01 -0.96200346660E+02  0.44986957915E+02  0.10647531711E+03  0.47000000000E+01 0. -1.
        -13    1    6    6    0    0  0.11929811646E+02 -0.46876036680E+02  0.56565158591E+01  0.48699891092E+02  0.00000000000E+00 0.  1.
         14    1    6    6    0    0  0.44424473759E+02 -0.15575996840E+03 -0.11562029330E+03  0.19900440660E+03  0.00000000000E+00 0. -1.
         -5    1    3    3    0  503 -0.93784769065E+01  0.23303626404E+03 -0.20171865781E+03  0.30839319560E+03  0.47000000000E+01 0.  1.
         11    1    4    4    0    0 -0.41406298262E+02  0.73172193833E+02 -0.38604840293E+02  0.92514783576E+02  0.00000000000E+00 0. -1.
        -12    1    4    4    0    0  0.47780930663E+00 -0.73721061285E+01 -0.56192750998E+02  0.56676287062E+02  0.00000000000E+00 0.  1.
</event>
<event>
12    1  0.1046899E+000  0.2944134E+03  0.7818608E-02  0.1088160E+00
         21   -1    0    0  503  502  0.00000000000E+00  0.00000000000E+00  0.92443590920E+03  0.92443590920E+03  0.00000000000E+00 0.  1.
         21   -1    0    0  501  503 -0.00000000000E+00 -0.00000000000E+00 -0.12088116737E+03  0.12088116737E+03  0.00000000000E+00 0.  1.
          6    2    1    2  501    0 -0.23104443284E+03  0.55414812983E+02  0.65075363726E+03  0.71425455632E+03  0.17385897554E+03 0.  0.
         24    2    3    3    0    0 -0.17489497459E+03 -0.85464840126E+01  0.32698226880E+03  0.37945043716E+03  0.80024593870E+02 0.  0.
         -6    2    1    2    0  502  0.23104443284E+03 -0.55414812983E+02  0.15280110456E+03  0.33106252025E+03  0.17263221980E+03 0.  0.
        -24    2    5    5    0    0  0.19841312286E+03 -0.93722414145E+02  0.15538005979E+03  0.28045604134E+03  0.79755688870E+02 0.  0.
          5    1    3    3  501    0 -0.56149458248E+02  0.63961296996E+02  0.32377136846E+03  0.33480411916E+03  0.47000000000E+01 0. -1.
        -13    1    4    4    0    0 -0.66686681743E+02  0.28542362068E+02  0.84655894068E+02  0.11148273568E+03  0.00000000000E+00 0.  1.
         14    1    4    4    0    0 -0.10820829285E+03 -0.37088846081E+02  0.24232637473E+03  0.26796770148E+03  0.00000000000E+00 0. -1.
         -5    1    5    5    0  502  0.32631309974E+02  0.38307601162E+02 -0.25789552205E+01  0.50606478908E+02  0.47000000000E+01 0.  1.
         13    1    6    6    0    0  0.13287406547E+03 -0.27172458124E+02  0.64667668774E+02  0.15025234487E+03  0.00000000000E+00 0. -1.
        -14    1    6    6    0    0  0.65539057392E+02 -0.66549956021E+02  0.90712391011E+02  0.13020369647E+03  0.00000000000E+00 0.  1.
</event>
<event>
12    1  0.1046899E+000  0.2350891E+03  0.7818608E-02  0.1123154E+00
         21   -1    0    0  501  502  0.00000000000E+00  0.00000000000E+00  0.27063166686E+03  0.27063166686E+03  0.00000000000E+00 0. -1.
         21   -1    0    0  502  503 -0.00000000000E+00 -0.00000000000E+00 -0.20620528437E+03  0.20620528437E+03  0.00000000000E+00 0. -1.
         -6    2    1    2    0  503 -0.14623271515E+03 -0.67746335237E+02  0.56989748592E+02  0.24189815716E+03  0.17115289678E+03 0.  0.
        -24    2    3    3    0    0 -0.17122645798E+03 -0.80392575433E+02  0.57437226654E+02  0.21349208723E+03  0.80612469302E+02 0.  0.
          6    2    1    2  501    0  0.14623271515E+03  0.67746335237E+02  0.74366338966E+01  0.23493879407E+03  0.17078454415E+03 0.  0.
         24    2    5    5    0    0  0.16752407287E+03  0.57377536662E+02 -0.24010595557E+02  0.19529220358E+03  0.78778419462E+02 0.  0.
          5    1    5    5  501    0 -0.21291357726E+02  0.10368798575E+02  0.31447229453E+02  0.39646590496E+02  0.47000000000E+01 0. -1.
        -11    1    6    6    0    0  0.11478609859E+02  0.18846364805E+01  0.20699834115E+02  0.23744335564E+02  0.00000000000E+00 0.  1.
         12    1    6    6    0    0  0.15604546301E+03  0.55492900181E+02 -0.44710429672E+02  0.17154786801E+03  0.00000000000E+00 0. -1.
         -5    1    3    3    0  503  0.24993742836E+02  0.12646240197E+02 -0.44747806259E+00  0.28406069927E+02  0.47000000000E+01 0.  1.
         13    1    4    4    0    0 -0.22548958632E+02 -0.42552229627E+02 -0.37942797489E+01  0.48306773236E+02  0.00000000000E+00 0. -1.
        -14    1    4    4    0    0 -0.14867749935E+03 -0.37840345806E+02  0.61231506403E+02  0.16518531400E+03  0.00000000000E+00 0.  1.
</event>
<event>
12    1  0.1046899E+000  0.1853111E+03  0.7818608E-02  0.1162995E+00
         21   -1    0    0  501  502  0.00000000000E+00  0.00000000000E+00  0.18223543737E+04  0.18223543737E+04  0.00000000000E+00 0.  1.
         21   -1    0    0  502  503 -0.00000000000E+00 -0.00000000000E+00 -0.20074902454E+02  0.20074902454E+02  0.00000000000E+00 0.  1.
         -6    2    1    2    0  503 -0.25544448231E+02 -0.64448649067E+02  0.11362712708E+04  0.11511210019E+04  0.17076595956E+03 0.  0.
        -24    2    3    3    0    0 -0.51066929247E+01 -0.98844561434E+02  0.10247075051E+04  0.10325067344E+04  0.79046568450E+02 0.  0.
          6    2    1    2  501    0  0.25544448231E+02  0.64448649067E+02  0.66600820048E+03  0.69130827430E+03  0.17185476370E+03 0.  0.
         24    2    5    5    0    0  0.39288346047E+02 -0.25524584889E+02  0.38597456038E+03  0.39681717572E+03  0.79324845512E+02 0.  0.
          5    1    5    5  501    0 -0.13743897816E+02  0.89973233956E+02  0.28003364010E+03  0.29449109858E+03  0.47000000000E+01 0. -1.
        -11    1    6    6    0    0  0.26733217926E+02 -0.10140798831E+02  0.34613102663E+02  0.44895073422E+02  0.00000000000E+00 0.  1.
         12    1    6    6    0    0  0.12555128121E+02 -0.15383786058E+02  0.35136145772E+03  0.35192210230E+03  0.00000000000E+00 0. -1.
         -5    1    3    3    0  503 -0.20437755306E+02  0.34395912367E+02  0.11156376572E+03  0.11861426748E+03  0.47000000000E+01 0.  1.
         13    1    4    4    0    0  0.35556352945E+01 -0.10381235823E+03  0.70185971078E+03  0.70950454676E+03  0.00000000000E+00 0. -1.
        -14    1    4    4    0    0 -0.86623282192E+01  0.49677967959E+01  0.32284779428E+03  0.32300218762E+03  0.00000000000E+00 0.  1.
</event>
<event>
12    1  0.1046899E+000  0.3218421E+03  0.7818608E-02  0.1074822E+00
         21   -1    0    0  501  502  0.00000000000E+00  0.00000000000E+00  0.85481957889E+03  0.85481957889E+03  0.00000000000E+00 0. -1.
         21   -1    0    0  502  503 -0.00000000000E+00 -0.00000000000E+00 -0.12128548649E+03  0.12128548649E+03  0.00000000000E+00 0. -1.
         -6    2    1    2    0  503  0.22317009952E+03 -0.15571217130E+03  0.34864575617E+03  0.47448517474E+03  0.17184628055E+03 0.  0.
        -24    2    3    3    0    0  0.13782808335E+03 -0.69101668235E+02  0.29318898502E+03  0.34076089709E+03  0.79916124398E+02 0.  0.
          6    2    1    2  501    0 -0.22317009952E+03  0.15571217130E+03  0.38488833623E+03  0.50161989065E+03  0.17155847318E+03 0.  0.
         24    2    5    5    0    0 -0.14232163596E+03  0.15920585710E+03  0.21583344523E+03  0.31413568846E+03  0.80592814122E+02 0.  0.
          5    1    5    5  501    0 -0.80848463557E+02 -0.34936857953E+01  0.16905489100E+03  0.18748420219E+03  0.47000000000E+01 0. -1.
        -13    1    6    6    0    0  0.10260765812E+02  0.15741530669E+02  0.16596379786E+02  0.25070279712E+02  0.00000000000E+00 0.  1.
         14    1    6    6    0    0 -0.15258240177E+03  0.14346432643E+03  0.19923706545E+03  0.28906540875E+03  0.00000000000E+00 0. -1.
         -5    1    3    3    0  503  0.85342016163E+02 -0.86610503067E+02  0.55456771155E+02  0.13372427764E+03  0.47000000000E+01 0.  1.
         13    1    4    4    0    0  0.67266027757E+02  0.48805292000E+01  0.82357717377E+02  0.10644872788E+03  0.00000000000E+00 0. -1.
        -14    1    4    4    0    0  0.70562055596E+02 -0.73982197435E+02  0.21083126764E+03  0.23431216921E+03  0.00000000000E+00 0.  1.
</event>
<event>
12    1  0.2518456E+000  0.4835417E+03  0.7818608E-02  0.1018419E+00
         21   -1    0    0  503  502  0.00000000000E+00  0.00000000000E+00  0.52156145705E+03  0.52156145705E+03  0.00000000000E+00 0. -1.
         21   -1    0    0  501  503 -0.00000000000E+00 -0.00000000000E+00 -0.98080366695E+03  0.98080366695E+03  0.00000000000E+00 0. -1.
          6    2    1    2  501    0 -0.28040043739E+03  0.35385098922E+03  0.32605065815E+03  0.58014091490E+03  0.16254083057E+03 0.  0.
         24    2    3    3    0    0 -0.19091707502E+03  0.18556967090E+03  0.13008005379E+03  0.30673198672E+03  0.79235465486E+02 0.  0.
         -6    2    1    2    0  502  0.28040043739E+03 -0.35385098922E+03 -0.78529286805E+03  0.92222420911E+03  0.17314062317E+03 0.  0.
        -24    2    5    5    0    0  0.40010471904E+02 -0.10157811662E+03 -0.20833891260E+03  0.24818645463E+03  0.79198877001E+02 0.  0.
          5    1    3    3  501    0 -0.89483362378E+02  0.16828131832E+03  0.19597060436E+03  0.27340892819E+03  0.47000000000E+01 0. -1.
        -13    1    4    4    0    0 -0.14475920727E+03  0.17699752198E+03  0.12175857694E+03  0.25905308710E+03  0.00000000000E+00 0.  1.
         14    1    4    4    0    0 -0.46157867743E+02  0.85721489172E+01  0.83214768506E+01  0.47678899616E+02  0.00000000000E+00 0. -1.
         -5    1    5    5    0  502  0.24038996549E+03 -0.25227287260E+03 -0.57695395545E+03  0.67403775448E+03  0.47000000000E+01 0.  1.
         11    1    6    6    0    0 -0.83620213241E+01  0.10132521361E+02 -0.20876349814E+02  0.24666036798E+02  0.00000000000E+00 0. -1.
        -12    1    6    6    0    0  0.48372493228E+02 -0.11171063799E+03 -0.18746256278E+03  0.22352041783E+03  0.00000000000E+00 0.  1.
</event>
<event>
12    1  0.1046899E+000  0.2413791E+03  0.7818608E-02  0.1118985E+00
         21   -1    0    0  503  502  0.00000000000E+00  0.00000000000E+00  0.28119905424E+03  0.28119905424E+03  0.00000000000E+00 0. -1.
         21   -1    0    0  501  503 -0.00000000000E+00 -0.00000000000E+00 -0.21538688404E+03  0.21538688404E+03  0.00000000000E+00 0. -1.
          6    2    1    2  501    0 -0.16666033313E+03 -0.25929626039E+02  0.82974248180E+02  0.25524218302E+03  0.17267262083E+03 0.  0.
         24    2    3    3    0    0 -0.80405887747E+02  0.52198091127E+02  0.40371389470E+02  0.13122257526E+03  0.79998547917E+02 0.  0.
         -6    2    1    2    0  502  0.16666033313E+03  0.25929626039E+02 -0.17162077985E+02  0.24134375526E+03  0.17176803875E+03 0.  0.
        -24    2    5    5    0    0  0.55052939982E+02  0.64333964586E+02  0.17014461867E+02  0.11837534752E+03  0.80953973271E+02 0.  0.
          5    1    3    3  501    0 -0.86254445384E+02 -0.78127717165E+02  0.42602858711E+02  0.12401960776E+03  0.47000000000E+01 0. -1.
        -11    1    4    4    0    0  0.55587630544E+00 -0.17138995826E+02 -0.25065049452E+00  0.17149839709E+02  0.00000000000E+00 0.  1.
         12    1    4    4    0    0 -0.80961764053E+02  0.69337086952E+02  0.40622039964E+02  0.11407273555E+03  0.00000000000E+00 0. -1.
         -5    1    5    5    0  502  0.11160739315E+03 -0.38404338548E+02 -0.34176539852E+02  0.12296840774E+03  0.47000000000E+01 0.  1.
         11    1    6    6    0    0  0.20086526332E+02  0.10934567408E+02 -0.30985920539E+02  0.38511823848E+02  0.00000000000E+00 0. -1.
        -12    1    6    6    0    0  0.34966413650E+02  0.53399397179E+02  0.48000382406E+02  0.79863523674E+02  0.00000000000E+00 0.  1.
</event>
<event>
12    1  0.1046899E+000  0.2464746E+03  0.7818608E-02  0.1116903E+00
         21   -1    0    0  503  502  0.00000000000E+00  0.00000000000E+00  0.33783528232E+03  0.33783528232E+03  0.00000000000E+00 0.  1.
         21   -1    0    0  501  503 -0.00000000000E+00 -0.00000000000E+00 -0.24679244085E+03  0.24679244085E+03  0.00000000000E+00 0.  1.
          6    2    1    2  501    0  0.44015810751E+02  0.15866331692E+03 -0.11391343300E+03  0.26407070881E+03  0.17217906175E+03 0.  0.
         24    2    3    3    0    0  0.54537917387E+02  0.14296610456E+03 -0.26343748229E+02  0.17436197516E+03  0.79337341925E+02 0.  0.
         -6    2    1    2    0  502 -0.44015810751E+02 -0.15866331692E+03  0.20495627447E+03  0.32055701435E+03  0.18340742972E+03 0.  0.
        -24    2    5    5    0    0 -0.69690870635E+02 -0.15187863146E+03  0.96572808775E+02  0.20886858034E+03  0.79848859198E+02 0.  0.
          5    1    3    3  501    0 -0.10522106636E+02  0.15697212361E+02 -0.87569684771E+02  0.89708733660E+02  0.47000000000E+01 0. -1.
        -13    1    4    4    0    0 -0.43943619922E+01  0.48178203405E+02 -0.38853576743E+02  0.62048772158E+02  0.00000000000E+00 0.  1.
         14    1    4    4    0    0  0.58932279380E+02  0.94787901154E+02  0.12509828514E+02  0.11231320300E+03  0.00000000000E+00 0. -1.
         -5    1    5    5    0  502  0.25675059884E+02 -0.67846854613E+01  0.10838346569E+03  0.11168843401E+03  0.47000000000E+01 0.  1.
         11    1    6    6    0    0 -0.35394232721E+02 -0.12368190224E+03  0.10194877586E+03  0.16414480665E+03  0.00000000000E+00 0. -1.
        -12    1    6    6    0    0 -0.34296637914E+02 -0.28196729219E+02 -0.53759670851E+01  0.44723773688E+02  0.00000000000E+00 0.  1.
</event>
<event>
12    1  0.1189250E+000  0.2331545E+03  0.7818608E-02  0.1124795E+00
         21   -1    0    0  501  502  0.00000000000E+00  0.00000000000E+00  0.84704760832E+03  0.84704760832E+03  0.00000000000E+00 0.  1.
         21   -1    0    0  502  503 -0.00000000000E+00 -0.00000000000E+00 -0.10651076937E+03  0.10651076937E+03  0.00000000000E+00 0.  1.
         -6    2    1    2    0  503 -0.93746901297E+02 -0.12441319141E+03  0.67186347176E+03  0.71050062386E+03  0.17071463943E+03 0.  0.
        -24    2    3    3    0    0 -0.11885344896E+03 -0.13010374463E+03  0.49102394781E+03  0.52777748752E+03  0.79946434006E+02 0.  0.
          6    2    1    2  501    0  0.93746901297E+02  0.12441319141E+03  0.68673367190E+02  0.24305775383E+03  0.17347598288E+03 0.  0.
         24    2    5    5    0    0  0.33963387904E+02  0.86389699655E+01 -0.20820625152E+02  0.84915401850E+02  0.74491499648E+02 0.  0.
          5    1    5    5  501    0  0.59783513394E+02  0.11577422144E+03  0.89493992342E+02  0.15814235198E+03  0.47000000000E+01 0. -1.
        -13    1    6    6    0    0 -0.17294003151E+02 -0.13853985741E+02  0.58393311064E+01  0.22915349739E+02  0.00000000000E+00 0.  1.
         14    1    6    6    0    0  0.51257391054E+02  0.22492955707E+02 -0.26659956258E+02  0.62000052111E+02  0.00000000000E+00 0. -1.
         -5    1    3    3    0  503  0.25106547658E+02  0.56905532227E+01  0.18083952395E+03  0.18272313634E+03  0.47000000000E+01 0.  1.
         11    1    4    4    0    0 -0.67572166870E+02 -0.54834025495E+02  0.34393525060E+03  0.35477348363E+03  0.00000000000E+00 0. -1.
        -12    1    4    4    0    0 -0.51281282085E+02 -0.75269719135E+02  0.14708869722E+03  0.17300400388E+03  0.00000000000E+00 0.  1.
</event>
<event>
12    1  0.1046899E+000  0.5377498E+03  0.7818608E-02  0.1004393E+00
         21   -1    0    0  501  502  0.00000000000E+00  0.00000000000E+00  0.75666756163E+03  0.75666756163E+03  0.00000000000E+00 0.  1.
         21   -1    0    0  502  503 -0.00000000000E+00 -0.00000000000E+00 -0.38201101130E+03  0.38201101130E+03  0.00000000000E+00 0. -1.
         -6    2    1    2    0  503  0.17094231106E+03  0.47972081940E+03  0.19749617653E+03  0.57249786454E+03  0.17145182086E+03 0.  0.
        -24    2    3    3    0    0  0.87539816470E+02  0.17349215667E+03  0.26782865054E+02  0.21208546922E+03  0.80623672087E+02 0.  0.
          6    2    1    2  501    0 -0.17094231106E+03 -0.47972081940E+03  0.17716037379E+03  0.56618070839E+03  0.17268890595E+03 0.  0.
         24    2    5    5    0    0 -0.19782147174E+03 -0.39469622403E+03  0.15108699920E+03  0.47315607747E+03  0.78300372755E+02 0.  0.
          5    1    5    5  501    0  0.26879160676E+02 -0.85024595369E+02  0.26073374589E+02  0.93024630926E+02  0.47000000000E+01 0. -1.
        -13    1    6    6    0    0 -0.10589733949E+03 -0.26375053275E+03  0.12724274034E+03  0.31139894831E+03  0.00000000000E+00 0.  1.
         14    1    6    6    0    0 -0.91924132246E+02 -0.13094569128E+03  0.23844258863E+02  0.16175712916E+03  0.00000000000E+00 0. -1.
         -5    1    3    3    0  503  0.83402494592E+02  0.30622866273E+03  0.17071331148E+03  0.36041239531E+03  0.47000000000E+01 0.  1.
         13    1    4    4    0    0 -0.94214070385E+01  0.37260813731E+02  0.23079346935E+02  0.44830652520E+02  0.00000000000E+00 0. -1.
        -14    1    4    4    0    0  0.96961223509E+02  0.13623134294E+03  0.37035181190E+01  0.16725481670E+03  0.00000000000E+00 0.  1.
</event>
<event>
12    1  0.1046899E+000  0.2936971E+03  0.7818608E-02  0.1088680E+00
         21   -1    0    0  503  502  0.00000000000E+00  0.00000000000E+00  0.16605215516E+03  0.16605215516E+03  0.00000000000E+00 0. -1.
         21   -1    0    0  501  503 -0.00000000000E+00 -0.00000000000E+00 -0.52402845637E+03  0.52402845637E+03  0.00000000000E+00 0.  1.
          6    2    1    2  501    0  0.11190999908E+02 -0.23772200040E+03 -0.13711316938E+03  0.32412655224E+03  0.17210756141E+03 0.  0.
         24    2    3    3    0    0 -0.11015308155E+02 -0.33851739576E+02 -0.53122895257E+02  0.10246767127E+03  0.80064376400E+02 0.  0.
         -6    2    1    2    0  502 -0.11190999908E+02  0.23772200040E+03 -0.22086313183E+03  0.36595405930E+03  0.16883383122E+03 0.  0.
        -24    2    5    5    0    0  0.51997578700E+02  0.10728833070E+03 -0.12190785536E+03  0.19039787058E+03  0.84707082510E+02 0.  0.
          5    1    3    3  501    0  0.22206308062E+02 -0.20387026082E+03 -0.83990274122E+02  0.22165888097E+03  0.47000000000E+01 0. -1.
        -13    1    4    4    0    0 -0.42418828722E+02 -0.15768296005E+02 -0.47828470485E+02  0.65844960156E+02  0.00000000000E+00 0.  1.
         14    1    4    4    0    0  0.31403520568E+02 -0.18083443571E+02 -0.52944247725E+01  0.36622711111E+02  0.00000000000E+00 0. -1.
         -5    1    5    5    0  502 -0.63188578607E+02  0.13043366970E+03 -0.98955276463E+02  0.17555618872E+03  0.47000000000E+01 0.  1.
         13    1    6    6    0    0  0.48678956680E+01  0.93767802617E+02 -0.98445240438E+02  0.13604250285E+03  0.00000000000E+00 0. -1.
        -14    1    6    6    0    0  0.47129683032E+02  0.13520528079E+02 -0.23462614927E+02  0.54355367733E+02  0.00000000000E+00 0.  1.
</event>
<event>
12    1  0.1046899E+000  0.2744248E+03  0.7818608E-02  0.1100420E+00
         21   -1    0    0  503  502  0.00000000000E+00  0.00000000000E+00  0.13936846986E+03  0.13936846986E+03  0.00000000000E+00 0.  1.
         21   -1    0    0  501  503 -0.00000000000E+00 -0.00000000000E+00 -0.51925643940E+03  0.51925643940E+03  0.00000000000E+00 0.  1.
          6    2    1    2  501    0  0.17031434490E+03 -0.12854673860E+03 -0.21035028612E+03  0.34576898071E+03  0.17256217740E+03 0.  0.
         24    2    3    3    0    0  0.10937145741E+03 -0.11084344002E+02 -0.14325145177E+03  0.19732440098E+03  0.79567345125E+02 0.  0.
         -6    2    1    2    0  502 -0.17031434490E+03  0.12854673860E+03 -0.16953768341E+03  0.31285592855E+03  0.15363777482E+03 0.  0.
        -24    2    5    5    0    0 -0.10533171697E+03  0.14458477100E+03 -0.12986476173E+03  0.23490728436E+03  0.79479867282E+02 0.  0.
          5    1    3    3  501    0  0.60942887485E+02 -0.11746239460E+03 -0.67098834354E+02  0.14844457973E+03  0.47000000000E+01 0. -1.
        -13    1    4    4    0    0 -0.59737239115E+01  0.16001353290E+02 -0.21166361853E+02  0.27198227122E+02  0.00000000000E+00 0.  1.
         14    1    4    4    0    0  0.11534518132E+03 -0.27085697292E+02 -0.12208508991E+03  0.17012617386E+03  0.00000000000E+00 0. -1.
         -5    1    5    5    0  502 -0.64982627927E+02 -0.16038032402E+02 -0.39672921687E+02  0.77948644188E+02  0.47000000000E+01 0.  1.
         11    1    6    6    0    0 -0.29795152572E+02  0.50787589986E+02 -0.90946355681E+02  0.10834375859E+03  0.00000000000E+00 0. -1.
        -12    1    6    6    0    0 -0.75536564395E+02  0.93797181016E+02 -0.38918406045E+02  0.12656352577E+03  0.00000000000E+00 0.  1.
</event>
<event>
12    1  0.1046899E+000  0.2963997E+03  0.7818608E-02  0.1087503E+00
         21   -1    0    0  503  502  0.00000000000E+00  0.00000000000E+00  0.59027476036E+02  0.59027476036E+02  0.00000000000E+00 0. -1.
         21   -1    0    0  501  503 -0.00000000000E+00 -0.00000000000E+00 -0.29930952740E+04  0.29930952740E+04  0.00000000000E+00 0.  1.
          6    2    1    2  501    0 -0.23996260766E+03  0.21694930288E+02 -0.25596754684E+04  0.25767792428E+04  0.17262687963E+03 0.  0.
         24    2    3    3    0    0 -0.49232968333E+02  0.44687453150E+02 -0.93256444176E+03  0.93835962792E+03  0.80134260120E+02 0.  0.
         -6    2    1    2    0  502  0.23996260766E+03 -0.21694930288E+02 -0.37439232955E+03  0.47534350721E+03  0.16652060037E+03 0.  0.
        -24    2    5    5    0    0  0.21654619783E+03 -0.24278859503E+02 -0.22257643209E+03  0.32163871984E+03  0.80184033112E+02 0.  0.
          5    1    3    3  501    0 -0.19072963933E+03 -0.22992522862E+02 -0.16271110266E+04  0.16384196149E+04  0.47000000000E+01 0. -1.
        -13    1    4    4    0    0 -0.19057271557E+02  0.23753218652E+02 -0.80597937354E+03  0.80655449014E+03  0.00000000000E+00 0.  1.
         14    1    4    4    0    0 -0.30175696776E+02  0.20934234498E+02 -0.12658506822E+03  0.13180513778E+03  0.00000000000E+00 0. -1.
         -5    1    5    5    0  502  0.23416409832E+02  0.25839292151E+01 -0.15181589746E+03  0.15370478737E+03  0.47000000000E+01 0.  1.
         13    1    6    6    0    0  0.79023771300E+02  0.66413645590E+01 -0.34196431996E+02  0.86361218813E+02  0.00000000000E+00 0. -1.
        -14    1    6    6    0    0  0.13752242653E+03 -0.30920224062E+02 -0.18838000009E+03  0.23527750103E+03  0.00000000000E+00 0.  1.
</event>
<event>
12    1  0.1046899E+000  0.4104062E+03  0.7818608E-02  0.1040282E+00
         21   -1    0    0  503  502  0.00000000000E+00  0.00000000000E+00  0.75688168719E+03  0.75688168719E+03  0.00000000000E+00 0. -1.
         21   -1    0    0  501  503 -0.00000000000E+00 -0.00000000000E+00 -0.31945527267E+03  0.31945527267E+03  0.00000000000E+00 0.  1.
          6    2    1    2  501    0  0.29423566784E+03  0.22725926092E+03 -0.78076476249E+02  0.41776695045E+03  0.17381567490E+03 0.  0.
         24    2    3    3    0    0  0.28901851393E+03  0.24700383107E+03 -0.77822807047E+02  0.39680934816E+03  0.82817121049E+02 0.  0.
         -6    2    1    2    0  502 -0.29423566784E+03 -0.22725926092E+03  0.51550289076E+03  0.65857000941E+03  0.17248138164E+03 0.  0.
        -24    2    5    5    0    0 -0.18750145912E+03 -0.92151965496E+02  0.20260088029E+03  0.30139227950E+03  0.78367132985E+02 0.  0.
          5    1    3    3  501    0  0.52171539108E+01 -0.19744570151E+02 -0.25366920208E+00  0.20957602283E+02  0.47000000000E+01 0. -1.
        -11    1    4    4    0    0  0.13146992215E+03  0.89078441215E+02  0.49256871537E+01  0.15888225676E+03  0.00000000000E+00 0.  1.
         12    1    4    4    0    0  0.15754859178E+03  0.15792538985E+03 -0.82748494201E+02  0.23792709140E+03  0.00000000000E+00 0. -1.
         -5    1    5    5    0  502 -0.10673420872E+03 -0.13510729542E+03  0.31290201048E+03  0.35717772992E+03  0.47000000000E+01 0.  1.
         13    1    6    6    0    0 -0.62371604363E+02  0.18471355921E+01  0.85883643347E+02  0.10615850948E+03  0.00000000000E+00 0. -1.
        -14    1    6    6    0    0 -0.12512985475E+03 -0.93999101088E+02  0.11671723694E+03  0.19523377002E+03  0.00000000000E+00 0.  1.
</event>
<event>
12    1  0.1046899E+000  0.1839297E+03  0.7818608E-02  0.1164589E+00
         21   -1    0    0  501  502  0.00000000000E+00  0.00000000000E+00  0.15941692302E+03  0.15941692302E+03  0.00000000000E+00 0.  1.
         21   -1    0    0  502  503 -0.00000000000E+00 -0.00000000000E+00 -0.35541909203E+03  0.35541909203E+03  0.00000000000E+00 0.  1.
         -6    2    1    2    0  503 -0.34968750639E+02 -0.57494841752E+02  0.66517975922E+02  0.19558828332E+03  0.17117729143E+03 0.  0.
        -24    2    3    3    0    0 -0.42210670756E+02 -0.72497013916E+02 -0.10871243842E+02  0.11628701024E+03  0.79793026355E+02 0.  0.
          6    2    1    2  501    0  0.34968750639E+02  0.57494841752E+02 -0.26252014493E+03  0.31924773174E+03  0.16874186611E+03 0.  0.
         24    2    5    5    0    0  0.81457094624E+02  0.69071003335E+02 -0.19813631078E+03  0.23885779615E+03  0.79931141414E+02 0.  0.
          5    1    5    5  501    0 -0.46488343985E+02 -0.11576161583E+02 -0.64383834153E+02  0.80389935587E+02  0.47000000000E+01 0. -1.
        -11    1    6    6    0    0  0.21624188456E+02 -0.64595825419E+01 -0.95283304421E+02  0.97919557977E+02  0.00000000000E+00 0.  1.
         12    1    6    6    0    0  0.59832906167E+02  0.75530585877E+02 -0.10285300636E+03  0.14093823818E+03  0.00000000000E+00 0. -1.
         -5    1    3    3    0  503  0.72419201172E+01  0.15002172164E+02  0.77389219764E+02  0.79301273081E+02  0.47000000000E+01 0.  1.
         13    1    4    4    0    0  0.20552961987E+02 -0.26193035893E+02 -0.18206686426E+02  0.37947105376E+02  0.00000000000E+00 0. -1.
        -14    1    4    4    0    0 -0.62763632744E+02 -0.46303978023E+02  0.73354425838E+01  0.78339904862E+02  0.00000000000E+00 0.  1.
</event>
<event>
12    1  0.1046899E+000  0.2261989E+03  0.7818608E-02  0.1129516E+00
         21   -1    0    0  501  502  0.00000000000E+00  0.00000000000E+00  0.42351053897E+02  0.42351053897E+02  0.00000000000E+00 0. -1.
         21   -1    0    0  502  503 -0.00000000000E+00 -0.00000000000E+00 -0.12219791288E+04  0.12219791288E+04  0.00000000000E+00 0. -1.
         -6    2    1    2    0  503 -0.61757435861E+02 -0.13260434438E+03 -0.50991292625E+03  0.55744664236E+03  0.17128243834E+03 0.  0.
        -24    2    3    3    0    0  0.29054460038E+02 -0.43965328406E+02 -0.25659167383E+03  0.27407864395E+03  0.80639346744E+02 0.  0.
          6    2    1    2  501    0  0.61757435861E+02  0.13260434438E+03 -0.66971514865E+03  0.70688354034E+03  0.17253424657E+03 0.  0.
         24    2    5    5    0    0 -0.26068752000E+02  0.86006678574E+02 -0.27895175594E+03  0.30364304037E+03  0.79424714251E+02 0.  0.
          5    1    5    5  501    0  0.87826187861E+02  0.46597665805E+02 -0.39076339271E+03  0.40324049997E+03  0.47000000000E+01 0. -1.
        -13    1    6    6    0    0  0.66497137193E+01  0.37400772263E+02 -0.20886355143E+03  0.21228994224E+03  0.00000000000E+00 0.  1.
         14    1    6    6    0    0 -0.32718465720E+02  0.48605906311E+02 -0.70088204503E+02  0.91353098130E+02  0.00000000000E+00 0. -1.
         -5    1    3    3    0  503 -0.90811895898E+02 -0.88639015973E+02 -0.25332125243E+03  0.28336799841E+03  0.47000000000E+01 0.  1.
         13    1    4    4    0    0  0.32951780517E+01  0.14227161595E+02 -0.14406365591E+03  0.14480195883E+03  0.00000000000E+00 0. -1.
        -14    1    4    4    0    0  0.25759281986E+02 -0.58192490001E+02 -0.11252801791E+03  0.12927668512E+03  0.00000000000E+00 0.  1.
</event>
<event>
12    1  0.1046899E+000  0.4755531E+03  0.7818608E-02  0.1020390E+00
         21   -1    0    0  501  502  0.00000000000E+00  0.00000000000E+00  0.49734411353E+03  0.49734411353E+03  0.00000000000E+00 0.  1.
         21   -1    0    0  502  503 -0.00000000000E+00 -0.00000000000E+00 -0.45765532837E+03  0.45765532837E+03  0.00000000000E+00 0.  1.
         -6    2    1    2    0  503  0.15558859420E+03  0.41514729591E+03  0.60344220225E+02  0.47936644469E+03  0.17203393687E+03 0.  0.
        -24    2    3    3    0    0  0.94148602906E+02  0.30631674798E+03  0.10497955695E+03  0.34657576739E+03  0.80000910281E+02 0.  0.
          6    2    1    2  501    0 -0.15558859420E+03 -0.41514729591E+03 -0.20655435072E+02  0.47563299721E+03  0.17101173378E+03 0.  0.
         24    2    5    5    0    0 -0.18778400453E+02 -0.57317548005E+02 -0.16475768160E+02  0.92489790023E+02  0.68154095176E+02 0.  0.
          5    1    5    5  501    0 -0.13681019375E+03 -0.35782974790E+03 -0.41796669122E+01  0.38314320719E+03  0.47000000000E+01 0. -1.
        -13    1    6    6    0    0  0.23300142328E+02 -0.66106445247E+01  0.12593742191E+01  0.24252490119E+02  0.00000000000E+00 0.  1.
         14    1    6    6    0    0 -0.42078542781E+02 -0.50706903480E+02 -0.17735142379E+02  0.68237299905E+02  0.00000000000E+00 0. -1.
         -5    1    3    3    0  503  0.61439991293E+02  0.10883054793E+03 -0.44635336723E+02  0.13279067730E+03  0.47000000000E+01 0.  1.
         11    1    4    4    0    0  0.46026010661E+02  0.15906734963E+03  0.12284722665E+02  0.16604737212E+03  0.00000000000E+00 0. -1.
        -12    1    4    4    0    0  0.48122592245E+02  0.14724939834E+03  0.92694834284E+02  0.18052839527E+03  0.00000000000E+00 0.  1.
</event>
<event>
12    1  0.1046899E+000  0.2265253E+03  0.7818608E-02  0.1129158E+00
         21   -1    0    0  501  502  0.00000000000E+00  0.00000000000E+00  0.53837204709E+03  0.53837204709E+03  0.00000000000E+00 0.  1.
         21   -1    0    0  502  503 -0.00000000000E+00 -0.00000000000E+00 -0.11553398036E+03  0.11553398036E+03  0.00000000000E+00 0.  1.
         -6    2    1    2    0  503  0.50741204763E+02 -0.13779109865E+03  0.34868508463E+03  0.41580642368E+03  0.17248952723E+03 0.  0.
        -24    2    3    3    0    0  0.74742671625E+02 -0.32897900676E+02  0.20789829408E+03  0.23854485484E+03  0.83744899912E+02 0.  0.
          6    2    1    2  501    0 -0.50741204763E+02  0.13779109865E+03  0.74152982101E+02  0.23809960376E+03  0.17213860644E+03 0.  0.
         24    2    5    5    0    0 -0.40685761992E+02  0.11352912713E+03  0.11794009151E+03  0.18682430618E+03  0.80307298927E+02 0.  0.
          5    1    5    5  501    0 -0.10055442771E+02  0.24261971524E+02 -0.43787109404E+02  0.51275297576E+02  0.47000000000E+01 0. -1.
        -13    1    6    6    0    0 -0.29750512433E+02  0.12429724190E+03  0.11328295782E+03  0.17078619929E+03  0.00000000000E+00 0.  1.
         14    1    6    6    0    0 -0.10935249559E+02 -0.10768114772E+02  0.46571336870E+01  0.16038106897E+02  0.00000000000E+00 0. -1.
         -5    1    3    3    0  503 -0.24001466862E+02 -0.10489319798E+03  0.14078679055E+03  0.17726156884E+03  0.47000000000E+01 0.  1.
         13    1    4    4    0    0  0.43394007840E+02  0.14406171289E+02  0.15262450279E+03  0.15932613263E+03  0.00000000000E+00 0. -1.
        -14    1    4    4    0    0  0.31348663785E+02 -0.47304071965E+02  0.55273791290E+02  0.79218722213E+02  0.00000000000E+00 0.  1.
</event>
<event>
12    1  0.1046899E+000  0.1768860E+03  0.7818608E-02  0.1171061E+00
         21   -1    0    0  501  502  0.00000000000E+00  0.00000000000E+00  0.27598586411E+03  0.27598586411E+03  0.00000000000E+00 0. -1.
         21   -1    0    0  502  503 -0.00000000000E+00 -0.00000000000E+00 -0.14988384076E+03  0.14988384076E+03  0.00000000000E+00 0. -1.
         -6    2    1    2    0  503  0.18569339831E+02 -0.33827329911E+02  0.16881077215E+03  0.24390072305E+03  0.17175964975E+03 0.  0.
        -24    2    3    3    0    0  0.42861871508E+02  0.33408887494E+02  0.61346432362E+02  0.11474380163E+03  0.80308539125E+02 0.  0.
          6    2    1    2  501    0 -0.18569339831E+02  0.33827329911E+02 -0.42708748804E+02  0.18196898181E+03  0.17262550358E+03 0.  0.
         24    2    5    5    0    0 -0.83903398476E+02  0.23705744804E+02 -0.19471639544E+02  0.11173338578E+03  0.67107839617E+02 0.  0.
          5    1    5    5  501    0  0.65334058645E+02  0.10121585107E+02 -0.23237109261E+02  0.70235596039E+02  0.47000000000E+01 0. -1.
        -13    1    6    6    0    0 -0.40132263247E+01 -0.15511624115E+02 -0.16038297801E+02  0.22670321228E+02  0.00000000000E+00 0.  1.
         14    1    6    6    0    0 -0.79890172151E+02  0.39217368919E+02 -0.34333417430E+01  0.89063064549E+02  0.00000000000E+00 0. -1.
         -5    1    3    3    0  503 -0.24292531677E+02 -0.67236217405E+02  0.10746433978E+03  0.12915692142E+03  0.47000000000E+01 0.  1.
         13    1    4    4    0    0  0.44479792488E+01 -0.88947353832E+01  0.56531045201E+02  0.57399128116E+02  0.00000000000E+00 0. -1.
        -14    1    4    4    0    0  0.38413892259E+02  0.42303622877E+02  0.48153871609E+01  0.57344673515E+02  0.00000000000E+00 0.  1.
</event>
<event>
12    1  0.1046899E+000  0.2044819E+03  0.7818608E-02  0.1146697E+00
         21   -1    0    0  501  502  0.00000000000E+00  0.00000000000E+00  0.14255528583E+03  0.14255528583E+03  0.00000000000E+00 0. -1.
         21   -1    0    0  502  503 -0.00000000000E+00 -0.00000000000E+00 -0.29661649585E+03  0.29661649585E+03  0.00000000000E+00 0. -1.
         -6    2    1    2    0  503 -0.81063418172E+02 -0.70661979045E+02 -0.41483790423E+02  0.20864739035E+03  0.17392077387E+03 0.  0.
        -24    2    3    3    0    0 -0.31698116931E+02 -0.90678213475E+02  0.14839926810E+02  0.13098122184E+03  0.87798337292E+02 0.  0.
          6    2    1    2  501    0  0.81063418172E+02  0.70661979045E+02 -0.11257741960E+03  0.23052439134E+03  0.17001007779E+03 0.  0.
         24    2    5    5    0    0 -0.13910112280E+02  0.94526317336E+01 -0.22220792859E+02  0.85772998669E+02  0.81119665896E+02 0.  0.
          5    1    5    5  501    0  0.94973530452E+02  0.61209347311E+02 -0.90356626736E+02  0.14475139267E+03  0.47000000000E+01 0. -1.
        -11    1    6    6    0    0 -0.45723681828E+02 -0.36033333108E+00 -0.25439004970E+02  0.52325212794E+02  0.00000000000E+00 0.  1.
         12    1    6    6    0    0  0.31813569548E+02  0.98129650647E+01  0.32182121113E+01  0.33447785875E+02  0.00000000000E+00 0. -1.
         -5    1    3    3    0  503 -0.49365301241E+02  0.20016234430E+02 -0.56323717233E+02  0.77666168505E+02  0.47000000000E+01 0.  1.
         11    1    4    4    0    0 -0.34607105851E+02 -0.12698921763E+02  0.34521471790E+02  0.50503924638E+02  0.00000000000E+00 0. -1.
        -12    1    4    4    0    0  0.29089889193E+01 -0.77979291711E+02 -0.19681544980E+02  0.80477297203E+02  0.00000000000E+00 0.  1.
</event>
<event>
12    1  0.1046899E+000  0.4227884E+03  0.7818608E-02  0.1036327E+00
         21   -1    0    0  501  502  0.00000000000E+00  0.00000000000E+00  0.26988860551E+04  0.26988860551E+04  0.00000000000E+00 0. -1.
         21   -1    0    0  502  503 -0.00000000000E+00 -0.00000000000E+00 -0.68721809213E+02  0.68721809213E+02  0.00000000000E+00 0. -1.
         -6    2    1    2    0  503 -0.15133977409E+03  0.35292725994E+03  0.10322626943E+04  0.11147196567E+04  0.17196588326E+03 0.  0.
        -24    2    3    3    0    0 -0.13690002543E+03  0.31663245510E+03  0.74283774792E+03  0.82263283951E+03  0.76935949476E+02 0.  0.
          6    2    1    2  501    0  0.15133977409E+03 -0.35292725994E+03  0.15979015516E+04  0.16528882076E+04  0.17688606560E+03 0.  0.
         24    2    5    5    0    0  0.70205668563E+02 -0.24014472750E+03  0.12656603927E+04  0.12927369611E+04  0.81696357685E+02 0.  0.
          5    1    5    5  501    0  0.81134105523E+02 -0.11278253244E+03  0.33224115889E+03  0.36015124651E+03  0.47000000000E+01 0. -1.
        -11    1    6    6    0    0  0.86225102860E+02 -0.18159611794E+03  0.10260458466E+04  0.10455534409E+04  0.00000000000E+00 0.  1.
         12    1    6    6    0    0 -0.16019434296E+02 -0.58548609562E+02  0.23961454603E+03  0.24718352013E+03  0.00000000000E+00 0. -1.
         -5    1    3    3    0  503 -0.14439748657E+02  0.36294804844E+02  0.28942494641E+03  0.29208681724E+03  0.47000000000E+01 0.  1.
         13    1    4    4    0    0 -0.89502103461E+01  0.10692790325E+03  0.20655520216E+03  0.23276325805E+03  0.00000000000E+00 0. -1.
        -14    1    4    4    0    0 -0.12794981508E+03  0.20970455185E+03  0.53628254576E+03  0.58986958146E+03  0.00000000000E+00 0.  1.
</event>
<event>
12    1  0.1046899E+000  0.1967443E+03  0.7818608E-02  0.1153512E+00
         21   -1    0    0  503  502  0.00000000000E+00  0.00000000000E+00  0.14497354323E+03  0.14497354323E+03  0.00000000000E+00 0.  1.
         21   -1    0    0  501  503 -0.00000000000E+00 -0.00000000000E+00 -0.26408775051E+03  0.26408775051E+03  0.00000000000E+00 0.  1.
          6    2    1    2  501    0  0.43922888321E+02  0.75082464032E+02 -0.82923164125E+02  0.21350542127E+03  0.17647015962E+03 0.  0.
         24    2    3    3    0    0  0.72424727114E+01  0.11243076778E+03 -0.35833157768E+02  0.14293696244E+03  0.80335727297E+02 0.  0.
         -6    2    1    2    0  502 -0.43922888321E+02 -0.75082464032E+02 -0.36191043156E+02  0.19555587247E+03  0.17136426445E+03 0.  0.
        -24    2    5    5    0    0 -0.47707444603E+02 -0.22740198419E+02 -0.82017691063E+02  0.12572602718E+03  0.79290701648E+02 0.  0.
          5    1    3    3  501    0  0.36680415610E+02 -0.37348303752E+02 -0.47090006357E+02  0.70568458826E+02  0.47000000000E+01 0. -1.
        -13    1    4    4    0    0 -0.30569079919E+02  0.49289394024E+02  0.59541531208E+01  0.58304073183E+02  0.00000000000E+00 0.  1.
         14    1    4    4    0    0  0.37811552630E+02  0.63141373759E+02 -0.41787310889E+02  0.84632889256E+02  0.00000000000E+00 0. -1.
         -5    1    5    5    0  502  0.37845562816E+01 -0.52342265613E+02  0.45826647907E+02  0.69829845297E+02  0.47000000000E+01 0.  1.
         13    1    6    6    0    0 -0.22263354736E+02  0.26974816341E+02 -0.13889368756E+02  0.37632595514E+02  0.00000000000E+00 0. -1.
        -14    1    6    6    0    0 -0.25444089867E+02 -0.49715014759E+02 -0.68128322307E+02  0.88093431662E+02  0.00000000000E+00 0.  1.
</event>
<event>
12    1  0.1046899E+000  0.3101443E+03  0.7818608E-02  0.1080354E+00
         21   -1    0    0  501  502  0.00000000000E+00  0.00000000000E+00  0.12256195221E+04  0.12256195221E+04  0.00000000000E+00 0. -1.
         21   -1    0    0  502  503 -0.00000000000E+00 -0.00000000000E+00 -0.89791717652E+02  0.89791717652E+02  0.00000000000E+00 0. -1.
         -6    2    1    2    0  503 -0.24939580962E+03 -0.64359822177E+02  0.80352108214E+03  0.86129878157E+03  0.17276864629E+03 0.  0.
        -24    2    3    3    0    0 -0.15628871757E+03 -0.11102468065E+03  0.47582811280E+03  0.51742189698E+03  0.67530612268E+02 0.  0.
          6    2    1    2  501    0  0.24939580962E+03  0.64359822177E+02  0.33230672233E+03  0.45411245820E+03  0.17160976201E+03 0.  0.
         24    2    5    5    0    0  0.87095893583E+02  0.46521303038E+02  0.70237354684E+02  0.14530520606E+03  0.80189716303E+02 0.  0.
          5    1    5    5  501    0  0.16229991604E+03  0.17838519139E+02  0.26206936765E+03  0.30880725213E+03  0.47000000000E+01 0. -1.
        -13    1    6    6    0    0  0.59857957158E+02  0.25046991887E+02  0.85563884113E+02  0.10738484578E+03  0.00000000000E+00 0.  1.
         14    1    6    6    0    0  0.27237936425E+02  0.21474311151E+02 -0.15326529428E+02  0.37920360288E+02  0.00000000000E+00 0. -1.
         -5    1    3    3    0  503 -0.93107092053E+02  0.46664858468E+02  0.32769296934E+03  0.34387688459E+03  0.47000000000E+01 0.  1.
         13    1    4    4    0    0 -0.29811098536E+01 -0.17701695334E+02  0.91596945799E+02  0.93339367436E+02  0.00000000000E+00 0. -1.
        -14    1    4    4    0    0 -0.15330760771E+03 -0.93322985312E+02  0.38423116700E+03  0.42408252954E+03  0.00000000000E+00 0.  1.
</event>
<event>
12    1  0.1046899E+000  0.2140069E+03  0.7818608E-02  0.1139417E+00
         21   -1    0    0  501  502  0.00000000000E+00  0.00000000000E+00  0.14058201391E+04  0.14058201391E+04  0.00000000000E+00 0.  1.
         21   -1    0    0  502  503 -0.00000000000E+00 -0.00000000000E+00 -0.31901480830E+02  0.31901480830E+02  0.00000000000E+00 0.  1.
         -6    2    1    2    0  503 -0.10378865424E+03  0.55098360643E+02  0.73224997530E+03  0.76288203482E+03  0.17886044455E+03 0.  0.
        -24    2    3    3    0    0 -0.65401101546E+02  0.48796982332E+02  0.70574281900E+03  0.71557420348E+03  0.85528150614E+02 0.  0.
          6    2    1    2  501    0  0.10378865424E+03 -0.55098360643E+02  0.64166868293E+03  0.67483958508E+03  0.17280582407E+03 0.  0.
         24    2    5    5    0    0 -0.50820674695E+01 -0.14236525799E+02  0.16059107404E+03  0.17988475949E+03  0.79627429689E+02 0.  0.
          5    1    5    5  501    0  0.10887072171E+03 -0.40861834844E+02  0.48107760889E+03  0.49495482559E+03  0.47000000000E+01 0. -1.
        -13    1    6    6    0    0  0.10390637686E+02 -0.45050903882E+02  0.99974429546E+02  0.11014733703E+03  0.00000000000E+00 0.  1.
         14    1    6    6    0    0 -0.15472705156E+02  0.30814378083E+02  0.60616644491E+02  0.69737422456E+02  0.00000000000E+00 0. -1.
         -5    1    3    3    0  503 -0.38387552697E+02  0.63013783104E+01  0.26507156301E+02  0.47307831338E+02  0.47000000000E+01 0.  1.
         13    1    4    4    0    0 -0.23068143654E+02 -0.12182118669E+02  0.58062690690E+02  0.63653902606E+02  0.00000000000E+00 0. -1.
        -14    1    4    4    0    0 -0.42332957892E+02  0.60979101001E+02  0.64768012831E+03  0.65192030087E+03  0.00000000000E+00 0.  1.
</event>
<event>
12    1  0.1046899E+000  0.1976234E+03  0.7818608E-02  0.1152564E+00
         21   -1    0    0  501  502  0.00000000000E+00  0.00000000000E+00  0.26375395133E+03  0.26375395133E+03  0.00000000000E+00 0.  1.
         21   -1    0    0  502  503 -0.00000000000E+00 -0.00000000000E+00 -0.14796752535E+03  0.14796752535E+03  0.00000000000E+00 0.  1.
         -6    2    1    2    0  503  0.93451328683E+02 -0.34213344389E+02  0.84988698107E+02  0.21171268255E+03  0.16641958232E+03 0.  0.
        -24    2    3    3    0    0  0.43609884724E+02  0.32584412650E+02  0.78292843236E+02  0.12796882096E+03  0.85338642137E+02 0.  0.
          6    2    1    2  501    0 -0.93451328683E+02  0.34213344389E+02  0.30797727875E+02  0.20000879414E+03  0.17073755862E+03 0.  0.
         24    2    5    5    0    0 -0.69695049523E+02 -0.47718965299E+02 -0.22734662261E+01  0.10839515951E+03  0.67895820043E+02 0.  0.
          5    1    5    5  501    0 -0.23756279160E+02  0.81932309689E+02  0.33071194101E+02  0.91613634628E+02  0.47000000000E+01 0. -1.
        -11    1    6    6    0    0 -0.34848349312E+02 -0.18010991417E+02  0.32463964920E+02  0.50918683014E+02  0.00000000000E+00 0.  1.
         12    1    6    6    0    0 -0.34846700211E+02 -0.29707973882E+02 -0.34737431146E+02  0.57476476496E+02  0.00000000000E+00 0. -1.
         -5    1    3    3    0  503  0.49841443958E+02 -0.66797757039E+02  0.66958548710E+01  0.83743861589E+02  0.47000000000E+01 0.  1.
         13    1    4    4    0    0  0.36702173536E+02 -0.24050658487E+02  0.29278430921E+02  0.52751400295E+02  0.00000000000E+00 0. -1.
        -14    1    4    4    0    0  0.69077111886E+01  0.56635071137E+02  0.49014412315E+02  0.75217420662E+02  0.00000000000E+00 0.  1.
</event>
<event>
12    1  0.1046899E+000  0.2756720E+03  0.7818608E-02  0.1098196E+00
         21   -1    0    0  503  502  0.00000000000E+00  0.00000000000E+00  0.62701700074E+03  0.62701700074E+03  0.00000000000E+00 0.  1.
         21   -1    0    0  501  503 -0.00000000000E+00 -0.00000000000E+00 -0.13611649192E+03  0.13611649192E+03  0.00000000000E+00 0.  1.
          6    2    1    2  501    0  0.19685168308E+03  0.85698415400E+02  0.37368732326E+03  0.46436758634E+03  0.17291684748E+03 0.  0.
         24    2    3    3    0    0  0.16655964255E+02  0.25222692637E+02  0.12455994205E+03  0.15097589501E+03  0.79780551145E+02 0.  0.
         -6    2    1    2    0  502 -0.19685168308E+03 -0.85698415400E+02  0.11721318555E+03  0.29876590632E+03  0.17154396631E+03 0.  0.
        -24    2    5    5    0    0 -0.21562965048E+03 -0.99724881103E+02  0.11511223274E+03  0.27476886895E+03  0.76196503486E+02 0.  0.
          5    1    3    3  501    0  0.18019571883E+03  0.60475722763E+02  0.24912738122E+03  0.31339169134E+03  0.47000000000E+01 0. -1.
        -11    1    4    4    0    0  0.10027482660E+02  0.46758699518E+02  0.36724031091E+02  0.60295778033E+02  0.00000000000E+00 0.  1.
         12    1    4    4    0    0  0.66284815945E+01 -0.21536006881E+02  0.87835910958E+02  0.90680116974E+02  0.00000000000E+00 0. -1.
         -5    1    5    5    0  502  0.18777967397E+02  0.14026465703E+02  0.21009528104E+01  0.23997037366E+02  0.47000000000E+01 0.  1.
         13    1    6    6    0    0 -0.14113895285E+03 -0.33934508998E+02  0.94670908728E+02  0.17330417153E+03  0.00000000000E+00 0. -1.
        -14    1    6    6    0    0 -0.74490697631E+02 -0.65790372104E+02  0.20441324014E+02  0.10146469742E+03  0.00000000000E+00 0.  1.
</event>
<event>
12    1  0.1046899E+000  0.1781861E+03  0.7818608E-02  0.1169941E+00
         21   -1    0    0  501  502  0.00000000000E+00  0.00000000000E+00  0.42767015460E+03  0.42767015460E+03  0.00000000000E+00 0.  1.
         21   -1    0    0  502  503 -0.00000000000E+00 -0.00000000000E+00 -0.74247803704E+02  0.74247803704E+02  0.00000000000E+00 0.  1.
         -6    2    1    2    0  503  0.14679956338E+02 -0.39418581429E+02  0.19914425501E+03  0.26622323121E+03  0.17160142439E+03 0.  0.
        -24    2    3    3    0    0 -0.57498741051E+02 -0.85200814427E+01  0.10362534168E+03  0.14248789081E+03  0.78650432808E+02 0.  0.
          6    2    1    2  501    0 -0.14679956338E+02  0.39418581429E+02  0.15427809589E+03  0.23569472709E+03  0.17315007314E+03 0.  0.
         24    2    5    5    0    0 -0.13902595571E+02  0.41818211533E+02  0.90749574825E+01  0.90393646862E+02  0.78400328828E+02 0.  0.
          5    1    5    5  501    0 -0.77736076642E+00 -0.23996301040E+01  0.14520313840E+03  0.14530108023E+03  0.47000000000E+01 0. -1.
        -11    1    6    6    0    0 -0.26313378502E+02  0.44886262820E+02  0.34157669719E+02  0.62240797543E+02  0.00000000000E+00 0.  1.
         12    1    6    6    0    0  0.12410782931E+02 -0.30680512870E+01 -0.25082712237E+02  0.28152849319E+02  0.00000000000E+00 0. -1.
         -5    1    3    3    0  503  0.72178697389E+02 -0.30898499987E+02  0.95518913335E+02  0.12373534040E+03  0.47000000000E+01 0.  1.
         13    1    4    4    0    0 -0.76778321979E+01 -0.11966913975E+02  0.89452931828E+02  0.90575841977E+02  0.00000000000E+00 0. -1.
        -14    1    4    4    0    0 -0.49820908854E+02  0.34468325324E+01  0.14172409848E+02  0.51912048836E+02  0.00000000000E+00 0.  1.
</event>
<event>
12    1  0.1046899E+000  0.2083374E+03  0.7818608E-02  0.1143011E+00
         21   -1    0    0  503  502  0.00000000000E+00  0.00000000000E+00  0.40190051728E+03  0.40190051728E+03  0.00000000000E+00 0. -1.
         21   -1    0    0  501  503 -0.00000000000E+00 -0.00000000000E+00 -0.10771017739E+03  0.10771017739E+03  0.00000000000E+00 0. -1.
          6    2    1    2  501    0 -0.62594365930E+02 -0.98863319012E+02  0.15140764972E+03  0.25754368017E+03  0.17237302663E+03 0.  0.
         24    2    3    3    0    0 -0.71692549974E+01 -0.67167744683E+02  0.11508165656E+02  0.10369145238E+03  0.77824001937E+02 0.  0.
         -6    2    1    2    0  502  0.62594365930E+02  0.98863319012E+02  0.14278269018E+03  0.25206701450E+03  0.17163587240E+03 0.  0.
        -24    2    5    5    0    0 -0.28788756598E+02  0.73841505481E+02  0.91401929775E+02  0.14418263762E+03  0.78440804347E+02 0.  0.
          5    1    3    3  501    0 -0.55425110933E+02 -0.31695574329E+02  0.13989948406E+03  0.15385222778E+03  0.47000000000E+01 0. -1.
        -11    1    4    4    0    0  0.60774355499E+01 -0.14105656661E+02 -0.30885686594E+02  0.34493918436E+02  0.00000000000E+00 0.  1.
         12    1    4    4    0    0 -0.13246690547E+02 -0.53062088022E+02  0.42393852250E+02  0.69197533947E+02  0.00000000000E+00 0. -1.
         -5    1    5    5    0  502  0.91383122528E+02  0.25021813531E+02  0.51380760404E+02  0.10788437688E+03  0.47000000000E+01 0.  1.
         13    1    6    6    0    0 -0.32378562953E+02  0.35266571956E+02  0.33598491169E+01  0.47993656065E+02  0.00000000000E+00 0. -1.
        -14    1    6    6    0    0  0.35898063555E+01  0.38574933525E+02  0.88042080658E+02  0.96188981556E+02  0.00000000000E+00 0.  1.
</event>
<event>
12    1  0.1046899E+000  0.2543979E+03  0.7818608E-02  0.1110881E+00
         21   -1    0    0  501  502  0.00000000000E+00  0.00000000000E+00  0.31268157278E+03  0.31268157278E+03  0.00000000000E+00 0. -1.
         21   -1    0    0  502  503 -0.00000000000E+00 -0.00000000000E+00 -0.21581783303E+03  0.21581783303E+03  0.00000000000E+00 0.  1.
         -6    2    1    2    0  503 -0.17503714789E+03 -0.64154341158E+02  0.10663741115E+03  0.27391382501E+03  0.17001018630E+03 0.  0.
        -24    2    3    3    0    0 -0.15564109496E+03  0.42243522380E+01  0.10124603530E+03  0.20247847303E+03  0.80652196390E+02 0.  0.
          6    2    1    2  501    0  0.17503714789E+03  0.64154341158E+02 -0.97736713995E+01  0.25458558079E+03  0.17310260156E+03 0.  0.
         24    2    5    5    0    0  0.16305294673E+03  0.91807471701E+01 -0.46199117081E+02  0.18739465725E+03  0.79447149673E+02 0.  0.
          5    1    5    5  501    0  0.11984201154E+02  0.54973593988E+02  0.36425445682E+02  0.67190923542E+02  0.47000000000E+01 0. -1.
        -13    1    6    6    0    0  0.51269133946E+02 -0.28800767863E+02 -0.35874420049E+02  0.68883832203E+02  0.00000000000E+00 0.  1.
         14    1    6    6    0    0  0.11178381279E+03  0.37981515033E+02 -0.10324697032E+02  0.11851082505E+03  0.00000000000E+00 0. -1.
         -5    1    3    3    0  503 -0.19396052922E+02 -0.68378693396E+02  0.53913758547E+01  0.71435351985E+02  0.47000000000E+01 0.  1.
         13    1    4    4    0    0 -0.84790496451E+02  0.11210045731E+02  0.99575781924E+02  0.13126473159E+03  0.00000000000E+00 0. -1.
        -14    1    4    4    0    0 -0.70850598512E+02 -0.69856934926E+01  0.16702533743E+01  0.71213741437E+02  0.00000000000E+00 0.  1.
</event>
<event>
12    1  0.1046899E+000  0.1737369E+03  0.7818608E-02  0.1174174E+00
         21   -1    0    0  503  502  0.00000000000E+00  0.00000000000E+00  0.97166799936E+02  0.97166799936E+02  0.00000000000E+00 0. -1.
         21   -1    0    0  501  503 -0.00000000000E+00 -0.00000000000E+00 -0.31673216059E+03  0.31673216059E+03  0.00000000000E+00 0. -1.
          6    2    1    2  501    0  0.16820903614E+02 -0.65435752037E+00 -0.14133643607E+03  0.22396541540E+03  0.17291948460E+03 0.  0.
         24    2    3    3    0    0 -0.10315628096E+02 -0.59312272616E+02 -0.11897496750E+03  0.15541421094E+03  0.79838438142E+02 0.  0.
         -6    2    1    2    0  502 -0.16820903614E+02  0.65435752037E+00 -0.78228924589E+02  0.18993354513E+03  0.17225450920E+03 0.  0.
        -24    2    5    5    0    0  0.27648937264E+02  0.16765746211E+02 -0.10776265988E+03  0.13397396049E+03  0.72737041776E+02 0.  0.
          5    1    3    3  501    0  0.27136531710E+02  0.58657915096E+02 -0.22361468570E+02  0.68551204463E+02  0.47000000000E+01 0. -1.
        -11    1    4    4    0    0  0.22735180915E+02 -0.24611764414E+02 -0.97133455886E+02  0.10274986935E+03  0.00000000000E+00 0.  1.
         12    1    4    4    0    0 -0.33050809011E+02 -0.34700508202E+02 -0.21841511613E+02  0.52664341592E+02  0.00000000000E+00 0. -1.
         -5    1    5    5    0  502 -0.44469840878E+02 -0.16111388690E+02  0.29533735289E+02  0.55959584642E+02  0.47000000000E+01 0.  1.
         11    1    6    6    0    0  0.17111963819E+02  0.13092826001E+02  0.37793170379E+01  0.21875205958E+02  0.00000000000E+00 0. -1.
        -12    1    6    6    0    0  0.10536973444E+02  0.36729202093E+01 -0.11154197692E+03  0.11209875453E+03  0.00000000000E+00 0.  1.
</event>
<event>
12    1  0.1046899E+000  0.1851949E+03  0.7818608E-02  0.1163937E+00
         21   -1    0    0  503  502  0.00000000000E+00  0.00000000000E+00  0.48294137688E+02  0.48294137688E+02  0.00000000000E+00 0. -1.
         21   -1    0    0  501  503 -0.00000000000E+00 -0.00000000000E+00 -0.69301104969E+03  0.69301104969E+03  0.00000000000E+00 0. -1.
          6    2    1    2  501    0 -0.69436168308E+02  0.79321462453E+00 -0.32242612763E+03  0.37182759509E+03  0.17168326079E+03 0.  0.
         24    2    3    3    0    0 -0.10276349989E+03  0.28347815780E+02 -0.18564786296E+03  0.22829937221E+03  0.79319220641E+02 0.  0.
         -6    2    1    2    0  502  0.69436168308E+02 -0.79321462453E+00 -0.32229078437E+03  0.36947759229E+03  0.16679427704E+03 0.  0.
        -24    2    5    5    0    0  0.93909987127E+02  0.36077945370E+02 -0.18733191620E+03  0.22737046247E+03  0.80519417237E+02 0.  0.
          5    1    3    3  501    0  0.33327331584E+02 -0.27554601156E+02 -0.13677826467E+03  0.14352822288E+03  0.47000000000E+01 0. -1.
        -13    1    4    4    0    0  0.94397988161E+01  0.14352385502E+00 -0.45971166250E+02  0.46930571349E+02  0.00000000000E+00 0.  1.
         14    1    4    4    0    0 -0.11220329871E+03  0.28204291925E+02 -0.13967669671E+03  0.18136880086E+03  0.00000000000E+00 0. -1.
         -5    1    5    5    0  502 -0.24473818819E+02 -0.36871159994E+02 -0.13495886817E+03  0.14210712981E+03  0.47000000000E+01 0.  1.
         11    1    6    6    0    0  0.30718911972E+02 -0.19178597690E+02 -0.99457730899E+02  0.10584569145E+03  0.00000000000E+00 0. -1.
        -12    1    6    6    0    0  0.63191075155E+02  0.55256543060E+02 -0.87874185305E+02  0.12152477103E+03  0.00000000000E+00 0.  1.
</event>
<event>
12    1  0.1046899E+000  0.1819371E+03  0.7818608E-02  0.1165977E+00
         21   -1    0    0  501  502  0.00000000000E+00  0.00000000000E+00  0.72338411136E+03  0.72338411136E+03  0.00000000000E+00 0.  1.
         21   -1    0    0  502  503 -0.00000000000E+00 -0.00000000000E+00 -0.55368347597E+02  0.55368347597E+02  0.00000000000E+00 0.  1.
         -6    2    1    2    0  503 -0.23620864944E+02  0.52857073322E+02  0.17136148908E+03  0.24982279599E+03  0.17232194867E+03 0.  0.
        -24    2    3    3    0    0 -0.28786794680E+02  0.48707371465E+00  0.17729806520E+03  0.19665667308E+03  0.80064513724E+02 0.  0.
          6    2    1    2  501    0  0.23620864944E+02 -0.52857073322E+02  0.49665427467E+03  0.52892966296E+03  0.17247986650E+03 0.  0.
         24    2    5    5    0    0 -0.34601314050E+01 -0.95341350599E+02  0.41082832558E+03  0.42929795257E+03  0.80092904391E+02 0.  0.
          5    1    5    5  501    0  0.27080996349E+02  0.42484277276E+02  0.85825949090E+02  0.99631710394E+02  0.47000000000E+01 0. -1.
        -11    1    6    6    0    0 -0.39886913290E+02 -0.68282115354E+02  0.26964312527E+03  0.28099969419E+03  0.00000000000E+00 0.  1.
         12    1    6    6    0    0  0.36426781885E+02 -0.27059235244E+02  0.14118520032E+03  0.14829825838E+03  0.00000000000E+00 0. -1.
         -5    1    3    3    0  503  0.51659297368E+01  0.52369999608E+02 -0.59365761106E+01  0.53166122906E+02  0.47000000000E+01 0.  1.
         11    1    4    4    0    0 -0.52182951421E+02  0.49902201769E+01  0.15644607770E+03  0.16499496339E+03  0.00000000000E+00 0. -1.
        -12    1    4    4    0    0  0.23396156741E+02 -0.45031464622E+01  0.20851987498E+02  0.31661709697E+02  0.00000000000E+00 0.  1.
</event>
<event>
12    1  0.1046899E+000  0.2727322E+03  0.7818608E-02  0.1099883E+00
         21   -1    0    0  503  502  0.00000000000E+00  0.00000000000E+00  0.57713345027E+03  0.57713345027E+03  0.00000000000E+00 0.  1.
         21   -1    0    0  501  503 -0.00000000000E+00 -0.00000000000E+00 -0.13307405910E+03  0.13307405910E+03  0.00000000000E+00 0. -1.
          6    2    1    2  501    0  0.11837965203E+03 -0.17524076364E+03  0.15563596439E+03  0.31401497341E+03  0.17222015810E+03 0.  0.
         24    2    3    3    0    0  0.15102158555E+03 -0.16731843567E+03  0.13441328885E+03  0.27400558624E+03  0.78798165278E+02 0.  0.
         -6    2    1    2    0  502 -0.11837965203E+03  0.17524076364E+03  0.28842342678E+03  0.39619253596E+03  0.17046226907E+03 0.  0.
        -24    2    5    5    0    0 -0.30197853744E+02  0.12900319671E+03  0.10494555119E+03  0.18738601552E+03  0.80908682896E+02 0.  0.
          5    1    3    3  501    0 -0.32641933527E+02 -0.79223279756E+01  0.21222675535E+02  0.40009387171E+02  0.47000000000E+01 0. -1.
        -13    1    4    4    0    0  0.53887781370E+00 -0.21783490703E+02 -0.51671796962E+01  0.22394432400E+02  0.00000000000E+00 0.  1.
         14    1    4    4    0    0  0.15048270774E+03 -0.14553494496E+03  0.13958046855E+03  0.25161115384E+03  0.00000000000E+00 0. -1.
         -5    1    5    5    0  502 -0.88181798284E+02  0.46237566934E+02  0.18347787559E+03  0.20880652044E+03  0.47000000000E+01 0.  1.
         11    1    6    6    0    0 -0.19410277052E+00  0.49192312515E+02  0.87462953585E+02  0.10034784271E+03  0.00000000000E+00 0. -1.
        -12    1    6    6    0    0 -0.30003750973E+02  0.79810884193E+02  0.17482597605E+02  0.87038172816E+02  0.00000000000E+00 0.  1.
</event>
<event>
12    1  0.1046899E+000  0.1830354E+03  0.7818608E-02  0.1166303E+00
         21   -1    0    0  501  502  0.00000000000E+00  0.00000000000E+00  0.10279099959E+03  0.10279099959E+03  0.00000000000E+00 0. -1.
         21   -1    0    0  502  503 -0.00000000000E+00 -0.00000000000E+00 -0.41835057608E+03  0.41835057608E+03  0.00000000000E+00 0. -1.
         -6    2    1    2    0  503 -0.57943543157E+02  0.22985726925E+02 -0.28882428929E+03  0.34193778080E+03  0.17209351534E+03 0.  0.
        -24    2    3    3    0    0 -0.96004153098E+02  0.10916707924E+02 -0.27379484509E+03  0.29901639404E+03  0.71492760353E+02 0.  0.
          6    2    1    2  501    0  0.57943543157E+02 -0.22985726925E+02 -0.26735287206E+02  0.17920379486E+03  0.16587171753E+03 0.  0.
         24    2    5    5    0    0  0.73804115460E+01 -0.71088404312E+02 -0.89170555260E+01  0.10702293015E+03  0.79160356221E+02 0.  0.
          5    1    5    5  501    0  0.50563131611E+02  0.48102677386E+02 -0.17818231680E+02  0.72180864710E+02  0.47000000000E+01 0. -1.
        -11    1    6    6    0    0  0.33793808755E+02 -0.88971006427E+01  0.10905154206E+02  0.36607407696E+02  0.00000000000E+00 0.  1.
         12    1    6    6    0    0 -0.26413397209E+02 -0.62191303669E+02 -0.19822209732E+02  0.70415522456E+02  0.00000000000E+00 0. -1.
         -5    1    3    3    0  503  0.38060609941E+02  0.12069019002E+02 -0.15029444196E+02  0.42921386762E+02  0.47000000000E+01 0.  1.
         13    1    4    4    0    0 -0.43742384023E+02  0.20225315623E+02 -0.21265435379E+03  0.21804663203E+03  0.00000000000E+00 0. -1.
        -14    1    4    4    0    0 -0.52261769075E+02 -0.93086076987E+01 -0.61140491299E+02  0.80969762013E+02  0.00000000000E+00 0.  1.
</event>
<event>
12    1  0.1046899E+000  0.1891150E+03  0.7818608E-02  0.1159940E+00
         21   -1    0    0  503  502  0.00000000000E+00  0.00000000000E+00  0.50255281381E+03  0.50255281381E+03  0.00000000000E+00 0. -1.
         21   -1    0    0  501  503 -0.00000000000E+00 -0.00000000000E+00 -0.72983055301E+02  0.72983055301E+02  0.00000000000E+00 0. -1.
          6    2    1    2  501    0  0.37991875458E+02 -0.63137864755E+02  0.15551721328E+03  0.24256550602E+03  0.17094633227E+03 0.  0.
         24    2    3    3    0    0 -0.64848047722E+01  0.53923402113E+01  0.18096142730E+02  0.82624252093E+02  0.80175848149E+02 0.  0.
         -6    2    1    2    0  502 -0.37991875458E+02  0.63137864755E+02  0.27405254523E+03  0.33297036309E+03  0.17416857519E+03 0.  0.
        -24    2    5    5    0    0  0.15251539647E+02 -0.23357565213E+02  0.97929206706E+02  0.12960409000E+03  0.80180454630E+02 0.  0.
          5    1    3    3  501    0  0.44476680230E+02 -0.68530204966E+02  0.13742107054E+03  0.15994125392E+03  0.47000000000E+01 0. -1.
        -13    1    4    4    0    0 -0.41917213713E+02 -0.79067003845E+01  0.73775832059E+01  0.43289692195E+02  0.00000000000E+00 0.  1.
         14    1    4    4    0    0  0.35432408940E+02  0.13299040596E+02  0.10718559524E+02  0.39334559898E+02  0.00000000000E+00 0. -1.
         -5    1    5    5    0  502 -0.53243415105E+02  0.86495429968E+02  0.17612333853E+03  0.20336627309E+03  0.47000000000E+01 0.  1.
         13    1    6    6    0    0  0.46590674670E+02 -0.20365611059E+02  0.44402582483E+02  0.67505839830E+02  0.00000000000E+00 0. -1.
        -14    1    6    6    0    0 -0.31339135023E+02 -0.29919541538E+01  0.53526624222E+02  0.62098250171E+02  0.00000000000E+00 0.  1.
</event>
<event>
12    1  0.1046899E+000  0.2354571E+03  0.7818608E-02  0.1123498E+00
         21   -1    0    0  501  502  0.00000000000E+00  0.00000000000E+00  0.22670667103E+04  0.22670667103E+04  0.00000000000E+00 0. -1.
         21   -1    0    0  502  503 -0.00000000000E+00 -0.00000000000E+00 -0.27125375446E+02  0.27125375446E+02  0.00000000000E+00 0. -1.
         -6    2    1    2    0  503  0.57932942291E+02 -0.14988626459E+03  0.74287841925E+03  0.77929994942E+03  0.17209865559E+03 0.  0.
        -24    2    3    3    0    0 -0.17938224731E+02 -0.12626647140E+03  0.55501251479E+03  0.57526559771E+03  0.81404020994E+02 0.  0.
          6    2    1    2  501    0 -0.57932942291E+02  0.14988626459E+03  0.14970629156E+04  0.15148921363E+04  0.16696913883E+03 0.  0.
         24    2    5    5    0    0 -0.95744912714E+02  0.70486752206E+02  0.87736343716E+03  0.88896597355E+03  0.79739768683E+02 0.  0.
          5    1    5    5  501    0  0.37811970423E+02  0.79399512387E+02  0.61969947842E+03  0.62592616276E+03  0.47000000000E+01 0. -1.
        -13    1    6    6    0    0 -0.33452811696E+02  0.70587944135E+02  0.57242060428E+03  0.57772579713E+03  0.00000000000E+00 0.  1.
         14    1    6    6    0    0 -0.62292101019E+02 -0.10119192903E+00  0.30494283288E+03  0.31124017641E+03  0.00000000000E+00 0. -1.
         -5    1    3    3    0  503  0.75871167022E+02 -0.23619793198E+02  0.18786590447E+03  0.20403435171E+03  0.47000000000E+01 0.  1.
         13    1    4    4    0    0 -0.12961230358E+02 -0.32582711653E+02  0.46872140696E+02  0.58537374082E+02  0.00000000000E+00 0. -1.
        -14    1    4    4    0    0 -0.49769943726E+01 -0.93683759743E+02  0.50814037409E+03  0.51672822363E+03  0.00000000000E+00 0.  1.
</event>
<event>
12    1  0.1046899E+000  0.2360982E+03  0.7818608E-02  0.1122773E+00
         21   -1    0    0  501  502  0.00000000000E+00  0.00000000000E+00  0.29692150335E+03  0.29692150335E+03  0.00000000000E+00 0. -1.
         21   -1    0    0  502  503 -0.00000000000E+00 -0.00000000000E+00 -0.25129634356E+03  0.25129634356E+03  0.00000000000E+00 0. -1.
         -6    2    1    2    0  503 -0.10458244367E+03 -0.11650824106E+03 -0.11673788785E+03  0.26338201185E+03  0.17672207544E+03 0.  0.
        -24    2    3    3    0    0 -0.28838494449E+02 -0.95841996624E+02 -0.68248794223E+01  0.12822580990E+03  0.79861957570E+02 0.  0.
          6    2    1    2  501    0  0.10458244367E+03  0.11650824106E+03  0.16236304764E+03  0.28483583506E+03  0.17394837147E+03 0.  0.
         24    2    5    5    0    0  0.55207752870E+02  0.12449704819E+03  0.57494391309E+02  0.16855511348E+03  0.80980307862E+02 0.  0.
          5    1    5    5  501    0  0.49374690796E+02 -0.79888071382E+01  0.10486865633E+03  0.11628072158E+03  0.47000000000E+01 0. -1.
        -11    1    6    6    0    0  0.48057740102E+02  0.29280844701E+02  0.45404969150E+02  0.72308543574E+02  0.00000000000E+00 0.  1.
         12    1    6    6    0    0  0.71500127674E+01  0.95216203492E+02  0.12089422158E+02  0.96246569903E+02  0.00000000000E+00 0. -1.
         -5    1    3    3    0  503 -0.75743949216E+02 -0.20666244431E+02 -0.10991300843E+03  0.13515620194E+03  0.47000000000E+01 0.  1.
         13    1    4    4    0    0 -0.19950297286E+02  0.96612422008E+01 -0.13267561685E+01  0.22206175821E+02  0.00000000000E+00 0. -1.
        -14    1    4    4    0    0 -0.88881971635E+01 -0.10550323883E+03 -0.54981232537E+01  0.10601963408E+03  0.00000000000E+00 0.  1.
</event>
<event>
12    1  0.1046899E+000  0.1890113E+03  0.7818608E-02  0.1159390E+00
         21   -1    0    0  503  502  0.00000000000E+00  0.00000000000E+00  0.43787146258E+02  0.43787146258E+02  0.00000000000E+00 0.  1.
         21   -1    0    0  501  503 -0.00000000000E+00 -0.00000000000E+00 -0.82252583678E+03  0.82252583678E+03  0.00000000000E+00 0.  1.
          6    2    1    2  501    0 -0.75599039479E+02  0.73982817601E+00 -0.34846216148E+03  0.39635218485E+03  0.17307054728E+03 0.  0.
         24    2    3    3    0    0 -0.35092922337E+02  0.42322007903E+01 -0.64627251220E+02  0.10958173924E+03  0.81129841939E+02 0.  0.
         -6    2    1    2    0  502  0.75599039479E+02 -0.73982817601E+00 -0.43027652904E+03  0.46996079819E+03  0.17323249774E+03 0.  0.
        -24    2    5    5    0    0  0.55104183608E+01  0.59020644899E+01 -0.81190729426E+02  0.11381544157E+03  0.79352511737E+02 0.  0.
          5    1    3    3  501    0 -0.40506117143E+02 -0.34923726143E+01 -0.28383491026E+03  0.28677044561E+03  0.47000000000E+01 0. -1.
        -13    1    4    4    0    0  0.99128640477E+01 -0.21635977283E+02 -0.50432321187E+02  0.55765575465E+02  0.00000000000E+00 0.  1.
         14    1    4    4    0    0 -0.45005786384E+02  0.25868178074E+02 -0.14194930033E+02  0.53816163776E+02  0.00000000000E+00 0. -1.
         -5    1    5    5    0  502  0.70088621118E+02 -0.66418926660E+01 -0.34908579962E+03  0.35614535662E+03  0.47000000000E+01 0.  1.
         11    1    6    6    0    0  0.31142185535E+02 -0.24216300602E+02 -0.48402983283E+02  0.62442883705E+02  0.00000000000E+00 0. -1.
        -12    1    6    6    0    0 -0.25631767175E+02  0.30118365092E+02 -0.32787746143E+02  0.51372557864E+02  0.00000000000E+00 0.  1.
</event>
<event>
12    1  0.1046899E+000  0.5909945E+03  0.7818608E-02  0.9924511E-01
         21   -1    0    0  503  502  0.00000000000E+00  0.00000000000E+00  0.45166552836E+03  0.45166552836E+03  0.00000000000E+00 0.  1.
         21   -1    0    0  501  503 -0.00000000000E+00 -0.00000000000E+00 -0.10410550677E+04  0.10410550677E+04  0.00000000000E+00 0.  1.
          6    2    1    2  501    0 -0.27888773075E+03 -0.49202542738E+03 -0.67371560541E+03  0.89619598932E+03  0.17148512110E+03 0.  0.
         24    2    3    3    0    0 -0.19101054743E+03 -0.42856977717E+03 -0.59569716250E+03  0.76256221243E+03  0.80553927818E+02 0.  0.
         -6    2    1    2    0  502  0.27888773075E+03  0.49202542738E+03  0.84326066104E+02  0.59652460669E+03  0.16989212286E+03 0.  0.
        -24    2    5    5    0    0  0.19163884486E+03  0.27172887814E+03  0.10743522739E+03  0.35840896035E+03  0.79703354389E+02 0.  0.
          5    1    3    3  501    0 -0.87877183324E+02 -0.63455650209E+02 -0.78018442910E+02  0.13363377689E+03  0.47000000000E+01 0. -1.
        -13    1    4    4    0    0 -0.86014865782E+02 -0.16842766166E+03 -0.30268201479E+03  0.35690732190E+03  0.00000000000E+00 0.  1.
         14    1    4    4    0    0 -0.10499568165E+03 -0.26014211551E+03 -0.29301514770E+03  0.40565489053E+03  0.00000000000E+00 0. -1.
         -5    1    5    5    0  502  0.87248885898E+02  0.22029654925E+03 -0.23109161284E+02  0.23811564635E+03  0.47000000000E+01 0.  1.
         11    1    6    6    0    0  0.83447448225E+02  0.13689713253E+03  0.11589045062E+02  0.16074391894E+03  0.00000000000E+00 0. -1.
        -12    1    6    6    0    0  0.10819139663E+03  0.13483174561E+03  0.95846182326E+02  0.19766504141E+03  0.00000000000E+00 0.  1.
</event>
<event>
12    1  0.1046899E+000  0.2399186E+03  0.7818608E-02  0.1119863E+00
         21   -1    0    0  503  502  0.00000000000E+00  0.00000000000E+00  0.99682992894E+03  0.99682992894E+03  0.00000000000E+00 0.  1.
         21   -1    0    0  501  503 -0.00000000000E+00 -0.00000000000E+00 -0.71900679761E+02  0.71900679761E+02  0.00000000000E+00 0.  1.
          6    2    1    2  501    0 -0.16432230691E+03 -0.27882643535E+02  0.69969381307E+03  0.73965319205E+03  0.17244172960E+03 0.  0.
         24    2    3    3    0    0 -0.61601415954E+02 -0.61129121527E+02  0.48844423584E+03  0.50236563735E+03  0.79132535138E+02 0.  0.
         -6    2    1    2    0  502  0.16432230691E+03  0.27882643535E+02  0.22523543612E+03  0.32907741666E+03  0.17257370053E+03 0.  0.
        -24    2    5    5    0    0  0.17430062861E+03  0.31732513532E+01  0.23071209998E+03  0.30146935962E+03  0.85234517985E+02 0.  0.
          5    1    3    3  501    0 -0.10272089095E+03  0.33246477992E+02  0.21124957722E+03  0.23728755470E+03  0.47000000000E+01 0. -1.
        -13    1    4    4    0    0 -0.27541846424E+02 -0.40094852829E+02  0.93486754461E+02  0.10538464683E+03  0.00000000000E+00 0.  1.
         14    1    4    4    0    0 -0.34059569530E+02 -0.21034268699E+02  0.39495748138E+03  0.39698099052E+03  0.00000000000E+00 0. -1.
         -5    1    5    5    0  502 -0.99783217018E+01  0.24709392182E+02 -0.54766638675E+01  0.27608057032E+02  0.47000000000E+01 0.  1.
         11    1    6    6    0    0  0.18402792015E+03  0.82825890986E+00  0.21796878258E+03  0.28526715827E+03  0.00000000000E+00 0. -1.
        -12    1    6    6    0    0 -0.97272915421E+01  0.23449924434E+01  0.12743317400E+02  0.16202201352E+02  0.00000000000E+00 0.  1.
</event>
<event>
12    1  0.1046899E+000  0.2015542E+03  0.7818608E-02  0.1148764E+00
         21   -1    0    0  501  502  0.00000000000E+00  0.00000000000E+00  0.22169630280E+03  0.22169630280E+03  0.00000000000E+00 0.  1.
         21   -1    0    0  502  503 -0.00000000000E+00 -0.00000000000E+00 -0.21253402392E+03  0.21253402392E+03  0.00000000000E+00 0.  1.
         -6    2    1    2    0  503  0.99237231651E+02  0.30576735788E+02  0.87139639494E+02  0.21958459989E+03  0.17274580985E+03 0.  0.
        -24    2    3    3    0    0  0.57163877625E+02  0.41836927092E+02  0.11976010702E+03  0.16496643506E+03  0.88619434035E+02 0.  0.
          6    2    1    2  501    0 -0.99237231651E+02 -0.30576735788E+02 -0.77977360611E+02  0.21464572684E+03  0.17090744385E+03 0.  0.
         24    2    5    5    0    0 -0.85718175785E+02  0.39416213560E+02 -0.26440761413E+02  0.12655549533E+03  0.80099537969E+02 0.  0.
          5    1    5    5  501    0 -0.13519055866E+02 -0.69992949348E+02 -0.51536599199E+02  0.88090231506E+02  0.47000000000E+01 0. -1.
        -13    1    6    6    0    0 -0.60945966211E+01  0.40804792713E+02 -0.22094987356E+02  0.46801321376E+02  0.00000000000E+00 0.  1.
         14    1    6    6    0    0 -0.79623579164E+02 -0.13885791527E+01 -0.43457740568E+01  0.79754173954E+02  0.00000000000E+00 0. -1.
         -5    1    3    3    0  503  0.42073354025E+02 -0.11260191305E+02 -0.32620467531E+02  0.54618164827E+02  0.47000000000E+01 0.  1.
         13    1    4    4    0    0  0.35437068041E+02 -0.24671346990E+02  0.51660493472E+02  0.67329545813E+02  0.00000000000E+00 0. -1.
        -14    1    4    4    0    0  0.21726809584E+02  0.66508274082E+02  0.68099613553E+02  0.97636889248E+02  0.00000000000E+00 0.  1.
</event>
<event>
12    1  0.1046899E+000  0.3408171E+03  0.7818608E-02  0.1066479E+00
         21   -1    0    0  501  502  0.00000000000E+00  0.00000000000E+00  0.15853371689E+04  0.15853371689E+04  0.00000000000E+00 0.  1.
         21   -1    0    0  502  503 -0.00000000000E+00 -0.00000000000E+00 -0.73211019345E+02  0.73211019345E+02  0.00000000000E+00 0.  1.
         -6    2    1    2    0  503 -0.75663178999E+02  0.28361736813E+03  0.76170275341E+03  0.83435673444E+03  0.17261618576E+03 0.  0.
        -24    2    3    3    0    0 -0.10035377325E+03  0.12127275150E+03  0.39237382048E+03  0.43013977451E+03  0.79278310740E+02 0.  0.
          6    2    1    2  501    0  0.75663178999E+02 -0.28361736813E+03  0.75042339617E+03  0.82419145383E+03  0.17318357570E+03 0.  0.
         24    2    5    5    0    0  0.47882797970E+02 -0.99940318351E+02  0.45595193329E+03  0.47598958618E+03  0.79956807768E+02 0.  0.
          5    1    5    5  501    0  0.27780381029E+02 -0.18367704978E+03  0.29447146287E+03  0.34820186765E+03  0.47000000000E+01 0. -1.
        -13    1    6    6    0    0 -0.96779801412E+01  0.86430631914E+01  0.30554368434E+02  0.33195410396E+02  0.00000000000E+00 0.  1.
         14    1    6    6    0    0  0.57560778111E+02 -0.10858338154E+03  0.42539756486E+03  0.44279417579E+03  0.00000000000E+00 0. -1.
         -5    1    3    3    0  503  0.24690594253E+02  0.16234461663E+03  0.36932893293E+03  0.40421695993E+03  0.47000000000E+01 0.  1.
         13    1    4    4    0    0 -0.57264957823E+01  0.47720313075E+02  0.17973825389E+03  0.18605338198E+03  0.00000000000E+00 0. -1.
        -14    1    4    4    0    0 -0.94627277470E+02  0.73552438422E+02  0.21263556659E+03  0.24408639253E+03  0.00000000000E+00 0.  1.
</event>
<event>
12    1  0.1046899E+000  0.3766931E+03  0.7818608E-02  0.1052165E+00
         21   -1    0    0  503  502  0.00000000000E+00  0.00000000000E+00  0.19955530248E+03  0.19955530248E+03  0.00000000000E+00 0.  1.
         21   -1    0    0  501  503 -0.00000000000E+00 -0.00000000000E+00 -0.71444493119E+03  0.71444493119E+03  0.00000000000E+00 0.  1.
          6    2    1    2  501    0  0.11507517436E+03 -0.31535082372E+03 -0.28903000805E+03  0.47480103754E+03  0.17090711488E+03 0.  0.
         24    2    3    3    0    0  0.59478429603E+02 -0.16734374887E+03 -0.77719431961E+02  0.21084774281E+03  0.82914695119E+02 0.  0.
         -6    2    1    2    0  502 -0.11507517436E+03  0.31535082372E+03 -0.22585962066E+03  0.43919919614E+03  0.17086523305E+03 0.  0.
        -24    2    5    5    0    0 -0.63180620634E+02  0.47013837489E+02 -0.88549137494E+02  0.13330045198E+03  0.61040715988E+02 0.  0.
          5    1    3    3  501    0  0.55596744762E+02 -0.14800707485E+03 -0.21131057609E+03  0.26395329473E+03  0.47000000000E+01 0. -1.
        -13    1    4    4    0    0  0.77320036254E+02 -0.11788603382E+03 -0.70978399024E+02  0.15783991290E+03  0.00000000000E+00 0.  1.
         14    1    4    4    0    0 -0.17841606652E+02 -0.49457715054E+02 -0.67410329371E+01  0.53007829906E+02  0.00000000000E+00 0. -1.
         -5    1    5    5    0  502 -0.51894553730E+02  0.26833698624E+03 -0.13731048317E+03  0.30589874416E+03  0.47000000000E+01 0.  1.
         13    1    6    6    0    0 -0.37638906474E+02  0.56405494410E+02 -0.43167461379E+02  0.80384680146E+02  0.00000000000E+00 0. -1.
        -14    1    6    6    0    0 -0.25541714160E+02 -0.93916569216E+01 -0.45381676114E+02  0.52915771835E+02  0.00000000000E+00 0.  1.
</event>
<event>
12    1  0.1046899E+000  0.2350301E+03  0.7818608E-02  0.1123412E+00
         21   -1    0    0  503  502  0.00000000000E+00  0.00000000000E+00  0.40631877651E+02  0.40631877651E+02  0.00000000000E+00 0.  1.
         21   -1    0    0  501  503 -0.00000000000E+00 -0.00000000000E+00 -0.16376296275E+04  0.16376296275E+04  0.00000000000E+00 0.  1.
          6    2    1    2  501    0 -0.14050074718E+03  0.72223201694E+02 -0.44507177185E+03  0.50260313276E+03  0.17194294443E+03 0.  0.
         24    2    3    3    0    0 -0.31322639951E+02  0.32208770157E+02 -0.31474589192E+03  0.32788067052E+03  0.80138910477E+02 0.  0.
         -6    2    1    2    0  502  0.14050074718E+03 -0.72223201694E+02 -0.11519259780E+04  0.11756583724E+04  0.17401867419E+03 0.  0.
        -24    2    5    5    0    0  0.10225682408E+03 -0.23795493065E+02 -0.45872303963E+03  0.47969842787E+03  0.93064875498E+02 0.  0.
          5    1    3    3  501    0 -0.10917810723E+03  0.40014431537E+02 -0.13032587992E+03  0.17472246223E+03  0.47000000000E+01 0. -1.
        -11    1    4    4    0    0 -0.16452161800E+02 -0.21315416579E+01 -0.72308001814E+01  0.18097004420E+02  0.00000000000E+00 0.  1.
         12    1    4    4    0    0 -0.14870478151E+02  0.34340311815E+02 -0.30751509174E+03  0.30978366610E+03  0.00000000000E+00 0. -1.
         -5    1    5    5    0  502  0.38243923101E+02 -0.48427708629E+02 -0.69320293840E+03  0.69595994455E+03  0.47000000000E+01 0.  1.
         11    1    6    6    0    0  0.37537315128E+02  0.19863469572E+02 -0.60640107218E+02  0.74032628305E+02  0.00000000000E+00 0. -1.
        -12    1    6    6    0    0  0.64719508954E+02 -0.43658962637E+02 -0.39808293241E+03  0.40566579956E+03  0.00000000000E+00 0.  1.
</event>
<event>
12    1  0.1046899E+000  0.2158028E+03  0.7818608E-02  0.1138569E+00
         21   -1    0    0  501  502  0.00000000000E+00  0.00000000000E+00  0.17099824496E+03  0.17099824496E+03  0.00000000000E+00 0. -1.
         21   -1    0    0  502  503 -0.00000000000E+00 -0.00000000000E+00 -0.26502901251E+03  0.26502901251E+03  0.00000000000E+00 0. -1.
         -6    2    1    2    0  503  0.50600272339E+02 -0.10503946459E+03 -0.27040264666E+02  0.21749026974E+03  0.18159615865E+03 0.  0.
        -24    2    3    3    0    0  0.32422957280E+02 -0.71436726335E+02 -0.92712082599E+02  0.14136907380E+03  0.72354894364E+02 0.  0.
          6    2    1    2  501    0 -0.50600272339E+02  0.10503946459E+03 -0.66990502883E+02  0.21853698772E+03  0.17227016818E+03 0.  0.
         24    2    5    5    0    0  0.32164541708E+02  0.43183633600E+02 -0.63422699455E+02  0.11504313528E+03  0.79455020077E+02 0.  0.
          5    1    5    5  501    0 -0.82764814047E+02  0.61855830990E+02 -0.35678034283E+01  0.10349385244E+03  0.47000000000E+01 0. -1.
        -11    1    6    6    0    0  0.11418845390E+02  0.44791129339E+02  0.21244287750E+01  0.46272545803E+02  0.00000000000E+00 0.  1.
         12    1    6    6    0    0  0.20745696318E+02 -0.16074957388E+01 -0.65547128230E+02  0.68770589480E+02  0.00000000000E+00 0. -1.
         -5    1    3    3    0  503  0.18177315059E+02 -0.33602738255E+02  0.65671817933E+02  0.76121195941E+02  0.47000000000E+01 0.  1.
         13    1    4    4    0    0 -0.20176311645E+02 -0.33338844795E+02 -0.19749437641E+02  0.43687554417E+02  0.00000000000E+00 0. -1.
        -14    1    4    4    0    0  0.52599268924E+02 -0.38097881540E+02 -0.72962644958E+02  0.97681519380E+02  0.00000000000E+00 0.  1.
</event>
<event>
12    1  0.1046899E+000  0.1788737E+03  0.7818608E-02  0.1169271E+00
         21   -1    0    0  503  502  0.00000000000E+00  0.00000000000E+00  0.22703595029E+03  0.22703595029E+03  0.00000000000E+00 0.  1.
         21   -1    0    0  501  503 -0.00000000000E+00 -0.00000000000E+00 -0.17769533510E+03  0.17769533510E+03  0.00000000000E+00 0.  1.
          6    2    1    2  501    0  0.36180720762E+02 -0.28329489545E+02  0.11812509568E+03  0.21308811296E+03  0.17129331897E+03 0.  0.
         24    2    3    3    0    0  0.76424267125E+02 -0.39776914811E+02  0.52186707549E+02  0.13485418428E+03  0.89662294273E+02 0.  0.
         -6    2    1    2    0  502 -0.36180720762E+02  0.28329489545E+02 -0.68784480487E+02  0.19164317242E+03  0.17287046089E+03 0.  0.
        -24    2    5    5    0    0 -0.28781716231E+02  0.17703382663E+02  0.29809129017E+02  0.92091933101E+02  0.80315272661E+02 0.  0.
          5    1    3    3  501    0 -0.40243546363E+02  0.11447425266E+02  0.65938388126E+02  0.78233928687E+02  0.47000000000E+01 0. -1.
        -11    1    4    4    0    0  0.19406200921E+02 -0.39629834094E+02 -0.15118010405E+02  0.46644170301E+02  0.00000000000E+00 0.  1.
         12    1    4    4    0    0  0.57018066204E+02 -0.14708071679E+00  0.67304717954E+02  0.88210013974E+02  0.00000000000E+00 0. -1.
         -5    1    5    5    0  502 -0.73990045313E+01  0.10626106882E+02 -0.98593609504E+02  0.99551239322E+02  0.47000000000E+01 0.  1.
         13    1    6    6    0    0 -0.41119602809E+02  0.27603789477E+02 -0.88602762548E+01  0.50311980919E+02  0.00000000000E+00 0. -1.
        -14    1    6    6    0    0  0.12337886578E+02 -0.99004068141E+01  0.38669405272E+02  0.41779952183E+02  0.00000000000E+00 0.  1.
</event>
<event>
12    1  0.1046899E+000  0.4004259E+03  0.7818608E-02  0.1043682E+00
         21   -1    0    0  503  502  0.00000000000E+00  0.00000000000E+00  0.11516954906E+04  0.11516954906E+04  0.00000000000E+00 0.  1.
         21   -1    0    0  501  503 -0.00000000000E+00 -0.00000000000E+00 -0.17010278184E+03  0.17010278184E+03  0.00000000000E+00 0.  1.
          6    2    1    2  501    0 -0.18920180604E+03  0.30742145172E+03  0.20857737399E+03  0.45149246331E+03  0.17330796605E+03 0.  0.
         24    2    3    3    0    0 -0.18731584039E+03  0.22738262262E+03  0.21124077765E+03  0.37124936548E+03  0.80083357166E+02 0.  0.
         -6    2    1    2    0  502  0.18920180604E+03 -0.30742145172E+03  0.77301533475E+03  0.87030580910E+03  0.17197157095E+03 0.  0.
        -24    2    5    5    0    0  0.31915096393E+02 -0.58565362333E+02  0.23923950736E+03  0.26070988871E+03  0.79281959775E+02 0.  0.
          5    1    3    3  501    0 -0.18859656495E+01  0.80038829098E+02 -0.26634036630E+01  0.80243097827E+02  0.47000000000E+01 0. -1.
        -11    1    4    4    0    0  0.53442386845E-01  0.37651654413E+02  0.16794490809E+02  0.41227476974E+02  0.00000000000E+00 0.  1.
         12    1    4    4    0    0 -0.18736928278E+03  0.18973096821E+03  0.19444628684E+03  0.33002188851E+03  0.00000000000E+00 0. -1.
         -5    1    5    5    0  502  0.15728670965E+03 -0.24885608939E+03  0.53377582739E+03  0.60959592040E+03  0.47000000000E+01 0.  1.
         11    1    6    6    0    0 -0.35614708175E+01 -0.26438909953E+02  0.13398885575E+02  0.29853478333E+02  0.00000000000E+00 0. -1.
        -12    1    6    6    0    0  0.35476567211E+02 -0.32126452380E+02  0.22584062178E+03  0.23085641038E+03  0.00000000000E+00 0.  1.
</event>
<event>
12    1  0.1046899E+000  0.3026977E+03  0.7818608E-02  0.1084629E+00
         21   -1    0    0  503  502  0.00000000000E+00  0.00000000000E+00  0.13736779192E+03  0.13736779192E+03  0.00000000000E+00 0.  1.
         21   -1    0    0  501  503 -0.00000000000E+00 -0.00000000000E+00 -0.76077459715E+03  0.76077459715E+03  0.00000000000E+00 0. -1.
          6    2    1    2  501    0  0.24874688678E+03 -0.12379244381E+01 -0.48237904740E+03  0.56948701174E+03  0.17248004241E+03 0.  0.
         24    2    3    3    0    0  0.14619768440E+03  0.22994249794E+02 -0.40122113376E+03  0.43639969408E+03  0.86970088923E+02 0.  0.
         -6    2    1    2    0  502 -0.24874688678E+03  0.12379244381E+01 -0.14102775783E+03  0.32865537733E+03  0.16201537714E+03 0.  0.
        -24    2    5    5    0    0 -0.18607528516E+03 -0.51182026801E+02 -0.69980256579E+02  0.22027909592E+03  0.79887622161E+02 0.  0.
          5    1    3    3  501    0  0.10254920238E+03 -0.24232174232E+02 -0.81157913639E+02  0.13308731766E+03  0.47000000000E+01 0. -1.
        -11    1    4    4    0    0  0.38559973260E+01 -0.56642123207E+01  0.25529745284E+01  0.73122975551E+01  0.00000000000E+00 0.  1.
         12    1    4    4    0    0  0.14234168708E+03  0.28658462115E+02 -0.40377410829E+03  0.42908739652E+03  0.00000000000E+00 0. -1.
         -5    1    5    5    0  502 -0.62671601617E+02  0.52419951239E+02 -0.71047501249E+02  0.10837628140E+03  0.47000000000E+01 0.  1.
         13    1    6    6    0    0 -0.15144477551E+03 -0.60884976554E+01 -0.57216963815E+02  0.16200731706E+03  0.00000000000E+00 0. -1.
        -14    1    6    6    0    0 -0.34630509648E+02 -0.45093529146E+02 -0.12763292764E+02  0.58271778860E+02  0.00000000000E+00 0.  1.
</event>
<event>
12    1  0.1046899E+000  0.4111618E+03  0.7818608E-02  0.1040027E+00
         21   -1    0    0  503  502  0.00000000000E+00  0.00000000000E+00  0.10760140572E+04  0.10760140572E+04  0.00000000000E+00 0. -1.
         21   -1    0    0  501  503 -0.00000000000E+00 -0.00000000000E+00 -0.16234018858E+03  0.16234018858E+03  0.00000000000E+00 0.  1.
          6    2    1    2  501    0 -0.96347332535E+01 -0.37317948723E+03  0.57043503789E+03  0.70317150198E+03  0.17233186292E+03 0.  0.
         24    2    3    3    0    0 -0.24431941110E+02 -0.33401240517E+03  0.40091337795E+03  0.52849265132E+03  0.80073337232E+02 0.  0.
         -6    2    1    2    0  502  0.96347332535E+01  0.37317948723E+03  0.34323883072E+03  0.53518274378E+03  0.17103191677E+03 0.  0.
        -24    2    5    5    0    0  0.50249524502E+02  0.34723008356E+03  0.31802597277E+03  0.48058685543E+03  0.82033289671E+02 0.  0.
          5    1    3    3  501    0  0.14797207856E+02 -0.39167082060E+02  0.16952165994E+03  0.17467885066E+03  0.47000000000E+01 0. -1.
        -11    1    4    4    0    0  0.77807692801E+01  0.39624711812E+00  0.14460001745E+02  0.16425255944E+02  0.00000000000E+00 0.  1.
         12    1    4    4    0    0 -0.32212710390E+02 -0.33440865229E+03  0.38645337620E+03  0.51206739538E+03  0.00000000000E+00 0. -1.
         -5    1    5    5    0  502 -0.40614791248E+02  0.25949403671E+02  0.25212857949E+02  0.54595888352E+02  0.47000000000E+01 0.  1.
         11    1    6    6    0    0  0.31607336887E+02  0.32572143578E+03  0.26781375344E+03  0.42286840034E+03  0.00000000000E+00 0. -1.
        -12    1    6    6    0    0  0.18642187614E+02  0.21508647778E+02  0.50212219326E+02  0.57718455090E+02  0.00000000000E+00 0.  1.
</event>
<event>
12    1  0.1046899E+000  0.2065926E+03  0.7818608E-02  0.1144318E+00
         21   -1    0    0  501  502  0.00000000000E+00  0.00000000000E+00  0.19345992819E+03  0.19345992819E+03  0.00000000000E+00 0. -1.
         21   -1    0    0  502  503 -0.00000000000E+00 -0.00000000000E+00 -0.32764567868E+03  0.32764567868E+03  0.00000000000E+00 0. -1.
         -6    2    1    2    0  503  0.10802643398E+03 -0.33325598230E+02  0.81902770422E+02  0.22223539467E+03  0.17291674559E+03 0.  0.
        -24    2    3    3    0    0  0.55555618507E+02  0.62688433514E+01  0.11319162137E+03  0.14928343463E+03  0.79671045946E+02 0.  0.
          6    2    1    2  501    0 -0.10802643398E+03  0.33325598230E+02 -0.21608852091E+03  0.29887021219E+03  0.17276819421E+03 0.  0.
         24    2    5    5    0    0 -0.14487251211E+03  0.17552500741E+02 -0.17431802792E+03  0.24079019701E+03  0.79353696042E+02 0.  0.
          5    1    5    5  501    0  0.36846078129E+02  0.15773097489E+02 -0.41770492998E+02  0.58080015179E+02  0.47000000000E+01 0. -1.
        -11    1    6    6    0    0 -0.73760553092E+02  0.48712294529E+02 -0.96495179467E+02  0.13086186034E+03  0.00000000000E+00 0.  1.
         12    1    6    6    0    0 -0.71111959013E+02 -0.31159793788E+02 -0.77822848449E+02  0.10992833668E+03  0.00000000000E+00 0. -1.
         -5    1    3    3    0  503  0.52470815470E+02 -0.39594441582E+02 -0.31288850947E+02  0.72951960041E+02  0.47000000000E+01 0.  1.
         13    1    4    4    0    0  0.11060893454E+02  0.34685792597E+02  0.77298083740E+02  0.85442620056E+02  0.00000000000E+00 0. -1.
        -14    1    4    4    0    0  0.44494725053E+02 -0.28416949246E+02  0.35893537629E+02  0.63840814574E+02  0.00000000000E+00 0.  1.
</event>
<event>
12    1  0.1046899E+000  0.1995294E+03  0.7818608E-02  0.1150743E+00
         21   -1    0    0  503  502  0.00000000000E+00  0.00000000000E+00  0.17893895193E+04  0.17893895193E+04  0.00000000000E+00 0. -1.
         21   -1    0    0  501  503 -0.00000000000E+00 -0.00000000000E+00 -0.47455578362E+02  0.47455578362E+02  0.00000000000E+00 0.  1.
          6    2    1    2  501    0  0.30637266499E+02 -0.91310512547E+02  0.15416069535E+04  0.15541033617E+04  0.17149054775E+03 0.  0.
         24    2    3    3    0    0  0.64250867551E+02 -0.45124073547E+02  0.13071678527E+04  0.13127595337E+04  0.92116460160E+02 0.  0.
         -6    2    1    2    0  502 -0.30637266499E+02  0.91310512547E+02  0.20032698746E+03  0.28274173598E+03  0.17474477263E+03 0.  0.
        -24    2    5    5    0    0 -0.42805118817E+02  0.95335577993E+02  0.63130206674E+02  0.14486750184E+03  0.77974479589E+02 0.  0.
          5    1    3    3  501    0 -0.33613601051E+02 -0.46186439000E+02  0.23443910085E+03  0.24134382804E+03  0.47000000000E+01 0. -1.
        -11    1    4    4    0    0  0.13853448735E+02  0.40340236085E+01  0.26629199693E+02  0.30287054406E+02  0.00000000000E+00 0.  1.
         12    1    4    4    0    0  0.50397418816E+02 -0.49158097156E+02  0.12805386530E+04  0.12824724793E+04  0.00000000000E+00 0. -1.
         -5    1    5    5    0  502  0.12167852317E+02 -0.40250654457E+01  0.13719678078E+03  0.13787423414E+03  0.47000000000E+01 0.  1.
         11    1    6    6    0    0 -0.38518046271E+02  0.58376552387E+02  0.78031790996E+02  0.10478750958E+03  0.00000000000E+00 0. -1.
        -12    1    6    6    0    0 -0.42870725459E+01  0.36959025605E+02 -0.14901584322E+02  0.40079992266E+02  0.00000000000E+00 0.  1.
</event>
<event>
12    1  0.1046899E+000  0.2517282E+03  0.7818608E-02  0.1112983E+00
         21   -1    0    0  503  502  0.00000000000E+00  0.00000000000E+00  0.13281004969E+03  0.13281004969E+03  0.00000000000E+00 0. -1.
         21   -1    0    0  501  503 -0.00000000000E+00 -0.00000000000E+00 -0.58210206747E+03  0.58210206747E+03  0.00000000000E+00 0. -1.
          6    2    1    2  501    0  0.13632371891E+03 -0.12397857390E+03 -0.64640093158E+02  0.25521203091E+03  0.16431675494E+03 0.  0.
         24    2    3    3    0    0  0.13169757067E+03 -0.10415300467E+03  0.86649137039E+00  0.18645407094E+03  0.81069545826E+02 0.  0.
         -6    2    1    2    0  502 -0.13632371891E+03  0.12397857390E+03 -0.38465192462E+03  0.45970008625E+03  0.17149992146E+03 0.  0.
        -24    2    5    5    0    0 -0.11812976362E+03  0.13294956786E+03 -0.21694445655E+03  0.29070486859E+03  0.76250867215E+02 0.  0.
          5    1    3    3  501    0  0.46261482424E+01 -0.19825569226E+02 -0.65506584528E+02  0.68757959970E+02  0.47000000000E+01 0. -1.
        -11    1    4    4    0    0  0.21094273866E+02  0.11650408840E+02 -0.96844333773E+01  0.25970919620E+02  0.00000000000E+00 0.  1.
         12    1    4    4    0    0  0.11060329680E+03 -0.11580341351E+03  0.10550924748E+02  0.16048315132E+03  0.00000000000E+00 0. -1.
         -5    1    5    5    0  502 -0.18193955294E+02 -0.89709939677E+01 -0.16770746807E+03  0.16899521765E+03  0.47000000000E+01 0.  1.
         13    1    6    6    0    0 -0.10857221418E+03  0.75847851174E+02 -0.12540446454E+03  0.18239271352E+03  0.00000000000E+00 0. -1.
        -14    1    6    6    0    0 -0.95575494405E+01  0.57101716689E+02 -0.91539992007E+02  0.10831215507E+03  0.00000000000E+00 0.  1.
</event>
<event>
12    1  0.1046899E+000  0.2187183E+03  0.7818608E-02  0.1134847E+00
         21   -1    0    0  501  502  0.00000000000E+00  0.00000000000E+00  0.57323514735E+03  0.57323514735E+03  0.00000000000E+00 0.  1.
         21   -1    0    0  502  503 -0.00000000000E+00 -0.00000000000E+00 -0.10534496541E+03  0.10534496541E+03  0.00000000000E+00 0.  1.
         -6    2    1    2    0  503  0.62686440369E+02  0.11896501037E+03  0.79227788942E+02  0.23260236504E+03  0.17246609574E+03 0.  0.
        -24    2    3    3    0    0  0.94963941761E+01  0.11599971475E+03  0.14057812378E+02  0.14829821426E+03  0.90821929846E+02 0.  0.
          6    2    1    2  501    0 -0.62686440369E+02 -0.11896501037E+03  0.38866239300E+03  0.44597774772E+03  0.17249762963E+03 0.  0.
         24    2    5    5    0    0 -0.47727606671E+01 -0.31481749132E+02  0.71192850614E+02  0.11158828072E+03  0.79810040992E+02 0.  0.
          5    1    5    5  501    0 -0.57913679702E+02 -0.87483261242E+02  0.31746954239E+03  0.33438946700E+03  0.47000000000E+01 0. -1.
        -13    1    6    6    0    0 -0.15536080290E+02  0.24154796079E+02  0.18187848208E+02  0.33994437587E+02  0.00000000000E+00 0.  1.
         14    1    6    6    0    0  0.10763319623E+02 -0.55636545212E+02  0.53005002406E+02  0.77593843135E+02  0.00000000000E+00 0. -1.
         -5    1    3    3    0  503  0.53190046193E+02  0.29652956252E+01  0.65169976564E+02  0.84304150773E+02  0.47000000000E+01 0.  1.
         11    1    4    4    0    0  0.47401774463E+02  0.81194422190E+02  0.21101915734E+02  0.96357424543E+02  0.00000000000E+00 0. -1.
        -12    1    4    4    0    0 -0.37905380286E+02  0.34805292560E+02 -0.70441033559E+01  0.51940789722E+02  0.00000000000E+00 0.  1.
</event>
<event>
12    1  0.1046899E+000  0.1972753E+03  0.7818608E-02  0.1152286E+00
         21   -1    0    0  503  502  0.00000000000E+00  0.00000000000E+00  0.33322356637E+03  0.33322356637E+03  0.00000000000E+00 0. -1.
         21   -1    0    0  501  503 -0.00000000000E+00 -0.00000000000E+00 -0.12174191016E+03  0.12174191016E+03  0.00000000000E+00 0. -1.
          6    2    1    2  501    0  0.85479102027E+02  0.39621431464E+02  0.56792080685E+02  0.20427358962E+03  0.17212153925E+03 0.  0.
         24    2    3    3    0    0  0.86802155527E+02  0.86922420591E+02  0.54121037349E+02  0.15664630211E+03  0.80739431977E+02 0.  0.
         -6    2    1    2    0  502 -0.85479102027E+02 -0.39621431464E+02  0.15468957552E+03  0.25069188692E+03  0.17332346256E+03 0.  0.
        -24    2    5    5    0    0 -0.36728964519E+02 -0.77295513859E+02  0.15373554809E+03  0.18889453617E+03  0.68723458516E+02 0.  0.
          5    1    3    3  501    0 -0.13230535008E+01 -0.47300989127E+02  0.26710433357E+01  0.47627287509E+02  0.47000000000E+01 0. -1.
        -13    1    4    4    0    0  0.56500563183E+02  0.17309520168E+01  0.22867451359E+02  0.60977292220E+02  0.00000000000E+00 0.  1.
         14    1    4    4    0    0  0.30301592345E+02  0.85191468574E+02  0.31253585990E+02  0.95669009892E+02  0.00000000000E+00 0. -1.
         -5    1    5    5    0  502 -0.48750137508E+02  0.37674082396E+02  0.95402743691E+00  0.61797350750E+02  0.47000000000E+01 0.  1.
         11    1    6    6    0    0 -0.14350893718E+02 -0.54091569218E+02  0.35336657863E+02  0.66185537694E+02  0.00000000000E+00 0. -1.
        -12    1    6    6    0    0 -0.22378070800E+02 -0.23203944641E+02  0.11839889022E+03  0.12270899847E+03  0.00000000000E+00 0.  1.
</event>
<event>
12    1  0.1046899E+000  0.3164818E+03  0.7818608E-02  0.1077362E+00
         21   -1    0    0  501  502  0.00000000000E+00  0.00000000000E+00  0.10699305107E+04  0.10699305107E+04  0.00000000000E+00 0. -1.
         21   -1    0    0  502  503 -0.00000000000E+00 -0.00000000000E+00 -0.10433281753E+03  0.10433281753E+03  0.00000000000E+00 0. -1.
         -6    2    1    2    0  503 -0.14422537891E+03  0.22201200663E+03  0.67231320618E+03  0.74278155284E+03  0.17213104605E+03 0.  0.
        -24    2    3    3    0    0 -0.45921320104E+02  0.74238462047E+02  0.40378335644E+03  0.42086373931E+03  0.80406288610E+02 0.  0.
          6    2    1    2  501    0  0.14422537891E+03 -0.22201200663E+03  0.29328448698E+03  0.43148177538E+03  0.17340830769E+03 0.  0.
         24    2    5    5    0    0  0.88094174291E+02 -0.41153030233E+02  0.13809621936E+03  0.18660186628E+03  0.79344409104E+02 0.  0.
          5    1    5    5  501    0  0.56131204622E+02 -0.18085897640E+03  0.15518826762E+03  0.24487990911E+03  0.47000000000E+01 0. -1.
        -13    1    6    6    0    0  0.72554767575E+02 -0.34049470165E+02  0.14692959772E+03  0.16736746220E+03  0.00000000000E+00 0.  1.
         14    1    6    6    0    0  0.15539406715E+02 -0.71035600681E+01 -0.88333783685E+01  0.19234404075E+02  0.00000000000E+00 0. -1.
         -5    1    3    3    0  503 -0.98304058809E+02  0.14777354459E+03  0.26852984974E+03  0.32191781352E+03  0.47000000000E+01 0.  1.
         11    1    4    4    0    0 -0.46145111896E+02  0.88166741988E+02  0.38388919306E+03  0.39657743039E+03  0.00000000000E+00 0. -1.
        -12    1    4    4    0    0  0.22379179270E+00 -0.13928279941E+02  0.19894163377E+02  0.24286308928E+02  0.00000000000E+00 0.  1.
</event>
<event>
12    1  0.1046899E+000  0.1904478E+03  0.7818608E-02  0.1158363E+00
         21   -1    0    0  503  502  0.00000000000E+00  0.00000000000E+00  0.11110788317E+03  0.11110788317E+03  0.00000000000E+00 0.  1.
         21   -1    0    0  501  503 -0.00000000000E+00 -0.00000000000E+00 -0.32717403785E+03  0.32717403785E+03  0.00000000000E+00 0.  1.
          6    2    1    2  501    0 -0.22912131949E+01 -0.77943501015E+02 -0.87274540715E+02  0.20949276744E+03  0.17375251119E+03 0.  0.
         24    2    3    3    0    0  0.16760407375E+02  0.22367014863E+02 -0.60347426223E+02  0.10379355582E+03  0.79687488158E+02 0.  0.
         -6    2    1    2    0  502  0.22912131949E+01  0.77943501015E+02 -0.12879161396E+03  0.22878915358E+03  0.17226943421E+03 0.  0.
        -24    2    5    5    0    0  0.18782764429E+02  0.64351907568E+02 -0.15975489764E+03  0.19087454412E+03  0.80109325456E+02 0.  0.
          5    1    3    3  501    0 -0.19051620569E+02 -0.10031051588E+03 -0.26927114492E+02  0.10569921162E+03  0.47000000000E+01 0. -1.
        -11    1    4    4    0    0  0.28895787823E+02 -0.45659735494E+01 -0.67354432501E+02  0.73433195803E+02  0.00000000000E+00 0.  1.
         12    1    4    4    0    0 -0.12135380449E+02  0.26932988412E+02  0.70070062777E+01  0.30360360018E+02  0.00000000000E+00 0. -1.
         -5    1    5    5    0  502 -0.16491551234E+02  0.13591593447E+02  0.30963283680E+02  0.37914609464E+02  0.47000000000E+01 0.  1.
         11    1    6    6    0    0 -0.28803218797E+02  0.12473816789E+02 -0.70709319345E+02  0.77362971508E+02  0.00000000000E+00 0. -1.
        -12    1    6    6    0    0  0.47585983225E+02  0.51878090780E+02 -0.89045578292E+02  0.11351157261E+03  0.00000000000E+00 0.  1.
</event>
<event>
12    1  0.1046899E+000  0.1851379E+03  0.7818608E-02  0.1163116E+00
         21   -1    0    0  503  502  0.00000000000E+00  0.00000000000E+00  0.14380487643E+03  0.14380487643E+03  0.00000000000E+00 0. -1.
         21   -1    0    0  501  503 -0.00000000000E+00 -0.00000000000E+00 -0.23919413932E+03  0.23919413932E+03  0.00000000000E+00 0. -1.
          6    2    1    2  501    0  0.13793943254E+02 -0.66919131625E+02 -0.30679372184E+02  0.18766267253E+03  0.17206862507E+03 0.  0.
         24    2    3    3    0    0 -0.24759992901E+02  0.23603476757E+01  0.25845787050E+02  0.90178130821E+02  0.82737307670E+02 0.  0.
         -6    2    1    2    0  502 -0.13793943254E+02  0.66919131625E+02 -0.64709890704E+02  0.19533634322E+03  0.17117381219E+03 0.  0.
        -24    2    5    5    0    0  0.50767188434E+02  0.50319023851E+02 -0.68829377490E+02  0.12838290063E+03  0.81457807401E+02 0.  0.
          5    1    3    3  501    0  0.38553936154E+02 -0.69279479300E+02 -0.56525159234E+02  0.97484541706E+02  0.47000000000E+01 0. -1.
        -11    1    4    4    0    0  0.96636545024E+01  0.29240773654E+02  0.33863601580E+02  0.45772836642E+02  0.00000000000E+00 0.  1.
         12    1    4    4    0    0 -0.34423647403E+02 -0.26880425978E+02 -0.80178145304E+01  0.44405294179E+02  0.00000000000E+00 0. -1.
         -5    1    5    5    0  502 -0.64561131687E+02  0.16600107774E+02  0.41194867856E+01  0.66953442587E+02  0.47000000000E+01 0.  1.
         13    1    6    6    0    0 -0.14759908790E+02  0.39227536825E+02 -0.26922142158E+02  0.49814217762E+02  0.00000000000E+00 0. -1.
        -14    1    6    6    0    0  0.65527097223E+02  0.11091487025E+02 -0.41907235332E+02  0.78568682871E+02  0.00000000000E+00 0.  1.
</event>
<event>
12    1  0.1046899E+000  0.1716396E+03  0.7818608E-02  0.1177449E+00
         21   -1    0    0  503  502  0.00000000000E+00  0.00000000000E+00  0.44921473759E+03  0.44921473759E+03  0.00000000000E+00 0.  1.
         21   -1    0    0  501  503 -0.00000000000E+00 -0.00000000000E+00 -0.70622431368E+02  0.70622431368E+02  0.00000000000E+00 0.  1.
          6    2    1    2  501    0  0.32894136393E+01  0.84736180336E+01  0.11040887286E+03  0.20408394615E+03  0.17139870310E+03 0.  0.
         24    2    3    3    0    0 -0.45474628737E+02 -0.10997471862E+02  0.11971751335E+03  0.15055081661E+03  0.78386090171E+02 0.  0.
         -6    2    1    2    0  502 -0.32894136393E+01 -0.84736180336E+01  0.26818343336E+03  0.31575322281E+03  0.16641851261E+03 0.  0.
        -24    2    5    5    0    0  0.91120039073E+01  0.46161206186E+02  0.91211550402E+02  0.13006559120E+03  0.79897593929E+02 0.  0.
          5    1    3    3  501    0  0.48764042376E+02  0.19471089896E+02 -0.93086404896E+01  0.53533129540E+02  0.47000000000E+01 0. -1.
        -11    1    4    4    0    0 -0.58698203941E+02 -0.91340801203E+01  0.44673524404E+02  0.74327884056E+02  0.00000000000E+00 0.  1.
         12    1    4    4    0    0  0.13223575203E+02 -0.18633917419E+01  0.75043988945E+02  0.76222932551E+02  0.00000000000E+00 0. -1.
         -5    1    5    5    0  502 -0.12401417547E+02 -0.54634824220E+02  0.17697188296E+03  0.18568763161E+03  0.47000000000E+01 0.  1.
         13    1    6    6    0    0 -0.83617743771E+01  0.16886278961E+02 -0.11342089141E+02  0.21993377957E+02  0.00000000000E+00 0. -1.
        -14    1    6    6    0    0  0.17473778284E+02  0.29274927225E+02  0.10255363954E+03  0.10807221324E+03  0.00000000000E+00 0.  1.
</event>
<event>
12    1  0.1871687E+000  0.2089478E+03  0.7818608E-02  0.1142439E+00
         21   -1    0    0  503  502  0.00000000000E+00  0.00000000000E+00  0.22032028123E+03  0.22032028123E+03  0.00000000000E+00 0. -1.
         21   -1    0    0  501  503 -0.00000000000E+00 -0.00000000000E+00 -0.57653894605E+03  0.57653894605E+03  0.00000000000E+00 0. -1.
          6    2    1    2  501    0  0.11456798564E+03 -0.31327846066E+02  0.14476726329E+03  0.25404609877E+03  0.17168168950E+03 0.  0.
         24    2    3    3    0    0  0.10498702139E+03 -0.82230027453E+02  0.10056633119E+03  0.18579187294E+03  0.81369410761E+02 0.  0.
         -6    2    1    2    0  502 -0.11456798564E+03  0.31327846066E+02 -0.50098592811E+03  0.54281312851E+03  0.17190676265E+03 0.  0.
        -24    2    5    5    0    0 -0.11992940393E+03 -0.29450931175E+02 -0.32617247586E+03  0.35759801667E+03  0.78977453993E+02 0.  0.
          5    1    3    3  501    0  0.95809642574E+01  0.50902181386E+02  0.44200932101E+02  0.68254225837E+02  0.47000000000E+01 0. -1.
        -13    1    4    4    0    0  0.93485358197E+02 -0.38225254545E+02  0.97218109919E+02  0.14018574528E+03  0.00000000000E+00 0.  1.
         14    1    4    4    0    0  0.11501663188E+02 -0.44004772908E+02  0.33482212671E+01  0.45606127663E+02  0.00000000000E+00 0. -1.
         -5    1    5    5    0  502  0.53614182868E+01  0.60778777241E+02 -0.17481345225E+03  0.18521511184E+03  0.47000000000E+01 0.  1.
         11    1    6    6    0    0 -0.77418526945E+01 -0.26171527992E+02 -0.28457771527E+02  0.39430063668E+02  0.00000000000E+00 0. -1.
        -12    1    6    6    0    0 -0.11218755123E+03 -0.32794031828E+01 -0.29771470434E+03  0.31816795300E+03  0.00000000000E+00 0.  1.
</event>
<event>
12    1  0.1046899E+000  0.1740249E+03  0.7818608E-02  0.1174193E+00
         21   -1    0    0  501  502  0.00000000000E+00  0.00000000000E+00  0.85585740901E+02  0.85585740901E+02  0.00000000000E+00 0.  1.
         21   -1    0    0  502  503 -0.00000000000E+00 -0.00000000000E+00 -0.37534810562E+03  0.37534810562E+03  0.00000000000E+00 0.  1.
         -6    2    1    2    0  503  0.10641990669E+02  0.95431601513E+01 -0.20399163954E+03  0.26692023107E+03  0.17155027508E+03 0.  0.
        -24    2    3    3    0    0  0.53672695747E+02  0.30259570263E+02 -0.54197857961E+02  0.10962726165E+03  0.72693389167E+02 0.  0.
          6    2    1    2  501    0 -0.10641990669E+02 -0.95431601513E+01 -0.85770725178E+02  0.19401361545E+03  0.17343685252E+03 0.  0.
         24    2    5    5    0    0  0.44271770712E+02  0.38756648228E+02 -0.38094080439E+02  0.10658624484E+03  0.80295710728E+02 0.  0.
          5    1    5    5  501    0 -0.54913761381E+02 -0.48299808380E+02 -0.47676644738E+02  0.87427370611E+02  0.47000000000E+01 0. -1.
        -11    1    6    6    0    0  0.18689450763E+02 -0.22922900174E+02  0.26646844756E+00  0.29577456409E+02  0.00000000000E+00 0.  1.
         12    1    6    6    0    0  0.25582319949E+02  0.61679548403E+02 -0.38360548887E+02  0.77008788434E+02  0.00000000000E+00 0. -1.
         -5    1    3    3    0  503 -0.43030705078E+02 -0.20716410112E+02 -0.14979378158E+03  0.15729296942E+03  0.47000000000E+01 0.  1.
         13    1    4    4    0    0  0.56692622590E+01 -0.22905208296E+02 -0.15220112440E+02  0.28079190236E+02  0.00000000000E+00 0. -1.
        -14    1    4    4    0    0  0.48003433488E+02  0.53164778559E+02 -0.38977745521E+02  0.81548071416E+02  0.00000000000E+00 0.  1.
</event>
<event>
12    1  0.1046899E+000  0.1922902E+03  0.7818608E-02  0.1158196E+00
         21   -1    0    0  503  502  0.00000000000E+00  0.00000000000E+00  0.18584567826E+03  0.18584567826E+03  0.00000000000E+00 0.  1.
         21   -1    0    0  501  503 -0.00000000000E+00 -0.00000000000E+00 -0.20593046655E+03  0.20593046655E+03  0.00000000000E+00 0.  1.
          6    2    1    2  501    0  0.42878942830E+02  0.71873014264E+02 -0.63134771424E+02  0.20238949551E+03  0.17312184904E+03 0.  0.
         24    2    3    3    0    0 -0.34151232925E+02  0.36630094446E+02 -0.66425282660E+02  0.11748585108E+03  0.82961054103E+02 0.  0.
         -6    2    1    2    0  502 -0.42878942830E+02 -0.71873014264E+02  0.43049983137E+02  0.18938664930E+03  0.16434618330E+03 0.  0.
        -24    2    5    5    0    0 -0.15996942926E+02 -0.10866041323E+03  0.19215712398E+02  0.13775219275E+03  0.80891503997E+02 0.  0.
          5    1    3    3  501    0  0.77030175755E+02  0.35242919818E+02  0.32905112360E+01  0.84903644435E+02  0.47000000000E+01 0. -1.
        -11    1    4    4    0    0  0.13317572476E+02  0.26708051416E+02 -0.61976145619E+02  0.68787501575E+02  0.00000000000E+00 0.  1.
         12    1    4    4    0    0 -0.47468805400E+02  0.99220430292E+01 -0.44491370409E+01  0.48698349504E+02  0.00000000000E+00 0. -1.
         -5    1    5    5    0  502 -0.26881999904E+02  0.36787398962E+02  0.23834270739E+02  0.51634456547E+02  0.47000000000E+01 0.  1.
         11    1    6    6    0    0 -0.44459904099E+02 -0.94861427950E+02  0.14039273183E+02  0.10569992799E+03  0.00000000000E+00 0. -1.
        -12    1    6    6    0    0  0.28462961173E+02 -0.13798985277E+02  0.51764392148E+01  0.32052264762E+02  0.00000000000E+00 0.  1.
</event>
<event>
12    1  0.1046899E+000  0.4327885E+03  0.7818608E-02  0.1033006E+00
         21   -1    0    0  501  502  0.00000000000E+00  0.00000000000E+00  0.10157865516E+04  0.10157865516E+04  0.00000000000E+00 0.  1.
         21   -1    0    0  502  503 -0.00000000000E+00 -0.00000000000E+00 -0.25804788611E+03  0.25804788611E+03  0.00000000000E+00 0. -1.
         -6    2    1    2    0  503 -0.29728416884E+03  0.26361742894E+03  0.38203897956E+02  0.43417013103E+03  0.17079853329E+03 0.  0.
        -24    2    3    3    0    0 -0.28699389767E+03  0.22026495614E+03 -0.91673975219E+01  0.36896693928E+03  0.71905583268E+02 0.  0.
          6    2    1    2  501    0  0.29728416884E+03 -0.26361742894E+03  0.71953476750E+03  0.83966430665E+03  0.17156293405E+03 0.  0.
         24    2    5    5    0    0  0.15973230523E+03 -0.80469422272E+02  0.41496340251E+03  0.45854816438E+03  0.77987539893E+02 0.  0.
          5    1    5    5  501    0  0.13755186361E+03 -0.18314800666E+03  0.30457136500E+03  0.38111614228E+03  0.47000000000E+01 0. -1.
        -11    1    6    6    0    0  0.47411458768E+02 -0.32714997786E+02  0.22882093204E+03  0.23596003145E+03  0.00000000000E+00 0.  1.
         12    1    6    6    0    0  0.11232084646E+03 -0.47754424486E+02  0.18614247047E+03  0.22258813292E+03  0.00000000000E+00 0. -1.
         -5    1    3    3    0  503 -0.10290271176E+02  0.43352472791E+02  0.47371295478E+02  0.65203191741E+02  0.47000000000E+01 0.  1.
         13    1    4    4    0    0 -0.66693380041E+02  0.92493900356E+02 -0.76984552941E+01  0.11429083410E+03  0.00000000000E+00 0. -1.
        -14    1    4    4    0    0 -0.22030051762E+03  0.12777105579E+03 -0.14689422278E+01  0.25467610519E+03  0.00000000000E+00 0.  1.
</event>
<event>
12    1  0.1046899E+000  0.1738022E+03  0.7818608E-02  0.1174333E+00
         21   -1    0    0  503  502  0.00000000000E+00  0.00000000000E+00  0.31115910591E+02  0.31115910591E+02  0.00000000000E+00 0.  1.
         21   -1    0    0  501  503 -0.00000000000E+00 -0.00000000000E+00 -0.10696625262E+04  0.10696625262E+04  0.00000000000E+00 0.  1.
          6    2    1    2  501    0  0.26716860534E+02 -0.49317544118E+00 -0.34690113295E+03  0.38800466085E+03  0.17173580564E+03 0.  0.
         24    2    3    3    0    0  0.15328588844E+02 -0.27302117715E+02 -0.34794520787E+03  0.35848192029E+03  0.80393085677E+02 0.  0.
         -6    2    1    2    0  502 -0.26716860534E+02  0.49317544118E+00 -0.69164548261E+03  0.71277377590E+03  0.17017328853E+03 0.  0.
        -24    2    5    5    0    0  0.13570132150E+02  0.11388959589E+02 -0.16648863967E+03  0.18594025420E+03  0.80879256342E+02 0.  0.
          5    1    3    3  501    0  0.11388271690E+02  0.26808942274E+02  0.10440749179E+01  0.29522740564E+02  0.47000000000E+01 0. -1.
        -11    1    4    4    0    0  0.39348584516E+01 -0.24019496557E+02 -0.23542190589E+02  0.33862280839E+02  0.00000000000E+00 0.  1.
         12    1    4    4    0    0  0.11393730393E+02 -0.32826211585E+01 -0.32440301728E+03  0.32461963945E+03  0.00000000000E+00 0. -1.
         -5    1    5    5    0  502 -0.40286992684E+02 -0.10895784148E+02 -0.52515684294E+03  0.52683352169E+03  0.47000000000E+01 0.  1.
         11    1    6    6    0    0  0.20871437388E+02  0.40579678328E+02 -0.13446939075E+03  0.14200121211E+03  0.00000000000E+00 0. -1.
        -12    1    6    6    0    0 -0.73013052377E+01 -0.29190718738E+02 -0.32019248921E+02  0.43939042093E+02  0.00000000000E+00 0.  1.
</event>
<event>
12    1  0.1046899E+000  0.2142389E+03  0.7818608E-02  0.1140516E+00
         21   -1    0    0  503  502  0.00000000000E+00  0.00000000000E+00  0.16969964970E+03  0.16969964970E+03  0.00000000000E+00 0.  1.
         21   -1    0    0  501  503 -0.00000000000E+00 -0.00000000000E+00 -0.25697079040E+03  0.25697079040E+03  0.00000000000E+00 0.  1.
          6    2    1    2  501    0 -0.10292120633E+03 -0.18748923697E+02 -0.31350854266E+02  0.20525371684E+03  0.17378698272E+03 0.  0.
         24    2    3    3    0    0 -0.85502494742E+02  0.33955199515E+02 -0.68099231149E+02  0.13851789947E+03  0.78013274571E+02 0.  0.
         -6    2    1    2    0  502  0.10292120633E+03  0.18748923697E+02 -0.55920286438E+02  0.22141672326E+03  0.18695986214E+03 0.  0.
        -24    2    5    5    0    0  0.11997155951E+03  0.36860998167E+02 -0.93613387075E+02  0.17601163961E+03  0.80403499696E+02 0.  0.
          5    1    3    3  501    0 -0.17418711587E+02 -0.52704123212E+02  0.36748376884E+02  0.66735817373E+02  0.47000000000E+01 0. -1.
        -11    1    4    4    0    0  0.20070048470E+01  0.16351747056E+02  0.10538713301E+02  0.19556895926E+02  0.00000000000E+00 0.  1.
         12    1    4    4    0    0 -0.87509499589E+02  0.17603452460E+02 -0.78637944451E+02  0.11896100354E+03  0.00000000000E+00 0. -1.
         -5    1    5    5    0  502 -0.17050353178E+02 -0.18112074471E+02  0.37693100638E+02  0.45405083645E+02  0.47000000000E+01 0.  1.
         11    1    6    6    0    0  0.59524388026E+02  0.55414365388E+02 -0.73611428097E+02  0.10969296699E+03  0.00000000000E+00 0. -1.
        -12    1    6    6    0    0  0.60447171481E+02 -0.18553367220E+02 -0.20001958979E+02  0.66318672621E+02  0.00000000000E+00 0.  1.
</event>
<event>
12    1  0.1046899E+000  0.1821053E+03  0.7818608E-02  0.1165894E+00
         21   -1    0    0  503  502  0.00000000000E+00  0.00000000000E+00  0.17966069240E+03  0.17966069240E+03  0.00000000000E+00 0. -1.
         21   -1    0    0  501  503 -0.00000000000E+00 -0.00000000000E+00 -0.85181385426E+03  0.85181385426E+03  0.00000000000E+00 0. -1.
          6    2    1    2  501    0 -0.16712599325E+02 -0.60538150270E+02 -0.79278743015E+03  0.81343362802E+03  0.17093325941E+03 0.  0.
         24    2    3    3    0    0  0.34477222610E+02 -0.18854907274E+02 -0.65200918508E+03  0.65787497380E+03  0.78353795822E+02 0.  0.
         -6    2    1    2    0  502  0.16712599325E+02  0.60538150270E+02  0.12063426829E+03  0.21804091864E+03  0.17042604525E+03 0.  0.
        -24    2    5    5    0    0  0.41260877481E+02  0.34156990543E+02  0.14562477883E+03  0.17393650655E+03  0.78601349160E+02 0.  0.
          5    1    3    3  501    0 -0.51189821935E+02 -0.41683242995E+02 -0.14077824507E+03  0.15555865422E+03  0.47000000000E+01 0. -1.
        -11    1    4    4    0    0  0.12188551060E+02 -0.45528592184E+02 -0.25285858739E+03  0.25721368296E+03  0.00000000000E+00 0.  1.
         12    1    4    4    0    0  0.22288671550E+02  0.26673684909E+02 -0.39915059769E+03  0.40066129085E+03  0.00000000000E+00 0. -1.
         -5    1    5    5    0  502 -0.24548278155E+02  0.26381159727E+02 -0.24990510535E+02  0.44104412089E+02  0.47000000000E+01 0.  1.
         11    1    6    6    0    0  0.56049299890E+02  0.48661370918E+02  0.10930650587E+03  0.13212632312E+03  0.00000000000E+00 0. -1.
        -12    1    6    6    0    0 -0.14788422409E+02 -0.14504380374E+02  0.36318272962E+02  0.41810183428E+02  0.00000000000E+00 0.  1.
</event>
<event>
12    1  0.1046899E+000  0.2949346E+03  0.7818608E-02  0.1087825E+00
         21   -1    0    0  501  502  0.00000000000E+00  0.00000000000E+00  0.78108103349E+03  0.78108103349E+03  0.00000000000E+00 0. -1.
         21   -1    0    0  502  503 -0.00000000000E+00 -0.00000000000E+00 -0.11373470873E+03  0.11373470873E+03  0.00000000000E+00 0. -1.
         -6    2    1    2    0  503  0.23912651100E+03  0.15283010571E+02  0.39931941341E+03  0.49642963770E+03  0.17196317217E+03 0.  0.
        -24    2    3    3    0    0  0.14337812779E+03 -0.48184756178E+02  0.29688514674E+03  0.34244658898E+03  0.79055788500E+02 0.  0.
          6    2    1    2  501    0 -0.23912651100E+03 -0.15283010571E+02  0.26802691135E+03  0.39838610452E+03  0.17163334290E+03 0.  0.
         24    2    5    5    0    0 -0.16151692250E+03  0.49168674658E+02  0.13552378806E+03  0.23178347658E+03  0.82774440885E+02 0.  0.
          5    1    5    5  501    0 -0.77609588500E+02 -0.64451685228E+02  0.13250312328E+03  0.16660262794E+03  0.47000000000E+01 0. -1.
        -11    1    6    6    0    0 -0.12277043913E+03 -0.21756255201E+01  0.99616210503E+02  0.15811610755E+03  0.00000000000E+00 0.  1.
         12    1    6    6    0    0 -0.38746483369E+02  0.51344300178E+02  0.35907577560E+02  0.73667369034E+02  0.00000000000E+00 0. -1.
         -5    1    3    3    0  503  0.95748383215E+02  0.63467766748E+02  0.10243426668E+03  0.15398304872E+03  0.47000000000E+01 0.  1.
         11    1    4    4    0    0  0.11650603897E+03 -0.11098961328E+02  0.25417142632E+03  0.27982129657E+03  0.00000000000E+00 0. -1.
        -12    1    4    4    0    0  0.26872088819E+02 -0.37085794850E+02  0.42713720418E+02  0.62625292408E+02  0.00000000000E+00 0.  1.
</event>
<event>
12    1  0.1046899E+000  0.3471864E+03  0.7818608E-02  0.1063998E+00
         21   -1    0    0  501  502  0.00000000000E+00  0.00000000000E+00  0.75331023350E+03  0.75331023350E+03  0.00000000000E+00 0.  1.
         21   -1    0    0  502  503 -0.00000000000E+00 -0.00000000000E+00 -0.17364879294E+03  0.17364879294E+03  0.00000000000E+00 0. -1.
         -6    2    1    2    0  503 -0.25102036568E+01 -0.30011023994E+03  0.42513282683E+03  0.54888645854E+03  0.17454502767E+03 0.  0.
        -24    2    3    3    0    0 -0.23005220020E+02 -0.30264184453E+03  0.42554457417E+03  0.52770358213E+03  0.72536609915E+02 0.  0.
          6    2    1    2  501    0  0.25102036568E+01  0.30011023994E+03  0.15452861373E+03  0.37807256790E+03  0.17025662072E+03 0.  0.
         24    2    5    5    0    0 -0.33230398602E+02  0.14235625088E+03  0.17795709994E+02  0.16621957954E+03  0.77088908235E+02 0.  0.
          5    1    5    5  501    0  0.35740602259E+02  0.15775398906E+03  0.13673290374E+03  0.21185298836E+03  0.47000000000E+01 0. -1.
        -13    1    6    6    0    0 -0.18153525702E+02  0.54485567984E+02  0.45050863665E+02  0.72991834687E+02  0.00000000000E+00 0.  1.
         14    1    6    6    0    0 -0.15076872900E+02  0.87870682895E+02 -0.27255153671E+02  0.93227744853E+02  0.00000000000E+00 0. -1.
         -5    1    3    3    0  503  0.20495016363E+02  0.25316045865E+01 -0.41174733703E+00  0.21182876418E+02  0.47000000000E+01 0.  1.
         11    1    4    4    0    0  0.11581136770E+02 -0.21112563979E+03  0.25678103868E+03  0.33263292130E+03  0.00000000000E+00 0. -1.
        -12    1    4    4    0    0 -0.34586356789E+02 -0.91516204738E+02  0.16876353549E+03  0.19507066083E+03  0.00000000000E+00 0.  1.
</event>
<event>
12    1  0.1046899E+000  0.2001236E+03  0.7818608E-02  0.1149949E+00
         21   -1    0    0  501  502  0.00000000000E+00  0.00000000000E+00  0.36755165650E+04  0.36755165650E+04  0.00000000000E+00 0. -1.
         21   -1    0    0  502  503 -0.00000000000E+00 -0.00000000000E+00 -0.11612227188E+02  0.11612227188E+02  0.00000000000E+00 0. -1.
         -6    2    1    2    0  503  0.28192148964E+02 -0.95509924413E+02  0.23084896793E+04  0.23170199115E+04  0.17187125363E+03 0.  0.
        -24    2    3    3    0    0 -0.42506541667E+02 -0.86156933666E+02  0.14799297635E+04  0.14853833278E+04  0.83316878341E+02 0.  0.
          6    2    1    2  501    0 -0.28192148964E+02  0.95509924413E+02  0.13554146585E+04  0.13701088807E+04  0.17358716994E+03 0.  0.
         24    2    5    5    0    0  0.36939166247E+02  0.37087073445E+02  0.97740200695E+03  0.98207412392E+03  0.80093374654E+02 0.  0.
          5    1    5    5  501    0 -0.65131315211E+02  0.58422850968E+02  0.37801265153E+03  0.38803475676E+03  0.47000000000E+01 0. -1.
        -13    1    6    6    0    0 -0.18897602855E+02  0.30541743787E+02  0.25940381420E+03  0.26187832352E+03  0.00000000000E+00 0.  1.
         14    1    6    6    0    0  0.55836769102E+02  0.65453296581E+01  0.71799819275E+03  0.72019580040E+03  0.00000000000E+00 0. -1.
         -5    1    3    3    0  503  0.70698690631E+02 -0.93529907478E+01  0.82855991581E+03  0.83163658372E+03  0.47000000000E+01 0.  1.
         13    1    4    4    0    0 -0.29694284545E+02 -0.26560353269E+00  0.70079119111E+03  0.70142007001E+03  0.00000000000E+00 0. -1.
        -14    1    4    4    0    0 -0.12812257122E+02 -0.85891330133E+02  0.77913857239E+03  0.78396325775E+03  0.00000000000E+00 0.  1.
</event>
<event>
12    1  0.1046899E+000  0.2954913E+03  0.7818608E-02  0.1087605E+00
         21   -1    0    0  501  502  0.00000000000E+00  0.00000000000E+00  0.11522681442E+03  0.11522681442E+03  0.00000000000E+00 0.  1.
         21   -1    0    0  502  503 -0.00000000000E+00 -0.00000000000E+00 -0.93033534103E+03  0.93033534103E+03  0.00000000000E+00 0.  1.
         -6    2    1    2    0  503 -0.85522973003E+02 -0.22285041231E+03 -0.18163504116E+03  0.34685209619E+03  0.17417980159E+03 0.  0.
        -24    2    3    3    0    0 -0.54123567892E+02 -0.77408148541E+02 -0.15105703079E+03  0.19487683686E+03  0.78977040544E+02 0.  0.
          6    2    1    2  501    0  0.85522973003E+02  0.22285041231E+03 -0.63347348546E+03  0.69871005926E+03  0.17300463854E+03 0.  0.
         24    2    5    5    0    0  0.18162756839E+02  0.18101389738E+03 -0.54477915162E+03  0.57964508725E+03  0.78154887006E+02 0.  0.
          5    1    5    5  501    0  0.67360216165E+02  0.41836514932E+02 -0.88694333839E+02  0.11906497200E+03  0.47000000000E+01 0. -1.
        -11    1    6    6    0    0 -0.14527763295E+02  0.98925968920E+02 -0.37685408421E+03  0.38989281094E+03  0.00000000000E+00 0.  1.
         12    1    6    6    0    0  0.32690520134E+02  0.82087928455E+02 -0.16792506740E+03  0.18975227632E+03  0.00000000000E+00 0. -1.
         -5    1    3    3    0  503 -0.31399405112E+02 -0.14544226377E+03 -0.30578010369E+02  0.15197525933E+03  0.47000000000E+01 0.  1.
         11    1    4    4    0    0 -0.30193644736E+02 -0.88102984918E+02 -0.95220931904E+02  0.13319466208E+03  0.00000000000E+00 0. -1.
        -12    1    4    4    0    0 -0.23929923155E+02  0.10694836377E+02 -0.55836098884E+02  0.61682174783E+02  0.00000000000E+00 0.  1.
</event>
<event>
12    1  0.1046899E+000  0.1835647E+03  0.7818608E-02  0.1164991E+00
         21   -1    0    0  503  502  0.00000000000E+00  0.00000000000E+00  0.27192839592E+02  0.27192839592E+02  0.00000000000E+00 0.  1.
         21   -1    0    0  501  503 -0.00000000000E+00 -0.00000000000E+00 -0.12338020995E+04  0.12338020995E+04  0.00000000000E+00 0.  1.
          6    2    1    2  501    0 -0.39171384452E+02  0.35520773563E+02 -0.53839449511E+03  0.56802526736E+03  0.17317028982E+03 0.  0.
         24    2    3    3    0    0  0.33028414135E+02  0.51406301068E+02 -0.23094678722E+03  0.25177956543E+03  0.79517589949E+02 0.  0.
         -6    2    1    2    0  502  0.39171384452E+02 -0.35520773563E+02 -0.66821476480E+03  0.69296967174E+03  0.17578359234E+03 0.  0.
        -24    2    5    5    0    0  0.30523093451E+02 -0.81125705067E+01 -0.15363529002E+03  0.17756679205E+03  0.83238754576E+02 0.  0.
          5    1    3    3  501    0 -0.72199798587E+02 -0.15885527505E+02 -0.30744770789E+03  0.31624570193E+03  0.47000000000E+01 0. -1.
        -11    1    4    4    0    0 -0.18724916817E+02  0.40888190127E+02 -0.13451512512E+03  0.14183365428E+03  0.00000000000E+00 0.  1.
         12    1    4    4    0    0  0.51753330952E+02  0.10518110941E+02 -0.96431662107E+02  0.10994591115E+03  0.00000000000E+00 0. -1.
         -5    1    5    5    0  502  0.86482910007E+01 -0.27408203057E+02 -0.51457947478E+03  0.51540287969E+03  0.47000000000E+01 0.  1.
         11    1    6    6    0    0 -0.25346911397E+02 -0.14803095352E+02 -0.31294882170E+02  0.42906493673E+02  0.00000000000E+00 0. -1.
        -12    1    6    6    0    0  0.55870004848E+02  0.66905248450E+01 -0.12234040786E+03  0.13466029838E+03  0.00000000000E+00 0.  1.
</event>
<event>
12    1  0.1046899E+000  0.2526977E+03  0.7818608E-02  0.1113184E+00
         21   -1    0    0  501  502  0.00000000000E+00  0.00000000000E+00  0.23981680003E+03  0.23981680003E+03  0.00000000000E+00 0. -1.
         21   -1    0    0  502  503 -0.00000000000E+00 -0.00000000000E+00 -0.28381396089E+03  0.28381396089E+03  0.00000000000E+00 0. -1.
         -6    2    1    2    0  503  0.12117845997E+03  0.14098819919E+03  0.59604135741E+02  0.25963200328E+03  0.17115558028E+03 0.  0.
        -24    2    3    3    0    0  0.12672800519E+03  0.16723806094E+03  0.49333271867E+02  0.23052129496E+03  0.81717436276E+02 0.  0.
          6    2    1    2  501    0 -0.12117845997E+03 -0.14098819919E+03 -0.10360129660E+03  0.26399875764E+03  0.15620571022E+03 0.  0.
         24    2    5    5    0    0 -0.12486515138E+03 -0.97580222854E+02 -0.12321313931E+03  0.21599294052E+03  0.79738740495E+02 0.  0.
          5    1    5    5  501    0  0.36866914035E+01 -0.43407976331E+02  0.19611842709E+02  0.48005817118E+02  0.47000000000E+01 0. -1.
        -13    1    6    6    0    0 -0.10594472559E+03 -0.78759918236E+02 -0.55489433347E+02  0.14320086178E+03  0.00000000000E+00 0.  1.
         14    1    6    6    0    0 -0.18920425782E+02 -0.18820304618E+02 -0.67723705966E+02  0.72792078741E+02  0.00000000000E+00 0. -1.
         -5    1    3    3    0  503 -0.55495452141E+01 -0.26249861756E+02  0.10270863874E+02  0.29110708322E+02  0.47000000000E+01 0.  1.
         13    1    4    4    0    0 -0.97658260391E+01  0.30281987643E+02  0.64774809511E+01  0.32470415663E+02  0.00000000000E+00 0. -1.
        -14    1    4    4    0    0  0.13649383123E+03  0.13695607330E+03  0.42855790916E+02  0.19805087930E+03  0.00000000000E+00 0.  1.
</event>
<event>
12    1  0.1046899E+000  0.2000845E+03  0.7818608E-02  0.1149813E+00
         21   -1    0    0  501  502  0.00000000000E+00  0.00000000000E+00  0.18918540225E+03  0.18918540225E+03  0.00000000000E+00 0.  1.
         21   -1    0    0  502  503 -0.00000000000E+00 -0.00000000000E+00 -0.22445213645E+03  0.22445213645E+03  0.00000000000E+00 0.  1.
         -6    2    1    2    0  503 -0.87082498537E+02  0.50837165897E+02 -0.68456376142E+02  0.21081902900E+03  0.17201920987E+03 0.  0.
        -24    2    3    3    0    0 -0.62962041540E+02  0.97325064837E+02 -0.72565424187E+02  0.15807535194E+03  0.79282338413E+02 0.  0.
          6    2    1    2  501    0  0.87082498537E+02 -0.50837165897E+02  0.33189641934E+02  0.20281850970E+03  0.17281787106E+03 0.  0.
         24    2    5    5    0    0  0.42231700385E+02 -0.76703066726E+02 -0.28801018752E+02  0.12191380691E+03  0.79790981149E+02 0.  0.
          5    1    5    5  501    0  0.44850798152E+02  0.25865900829E+02  0.61990660686E+02  0.80904702786E+02  0.47000000000E+01 0. -1.
        -13    1    6    6    0    0 -0.93795133221E+01 -0.55556875741E+02 -0.34147026927E+02  0.65882935273E+02  0.00000000000E+00 0.  1.
         14    1    6    6    0    0  0.51611213707E+02 -0.21146190985E+02  0.53460081747E+01  0.56030871641E+02  0.00000000000E+00 0. -1.
         -5    1    3    3    0  503 -0.24120456997E+02 -0.46487898940E+02  0.41090480448E+01  0.52743677056E+02  0.47000000000E+01 0.  1.
         11    1    4    4    0    0 -0.19639051578E+02  0.59542615347E+02 -0.78296708351E+02  0.10030647999E+03  0.00000000000E+00 0. -1.
        -12    1    4    4    0    0 -0.43322989961E+02  0.37782449490E+02  0.57312841642E+01  0.57768871954E+02  0.00000000000E+00 0.  1.
</event>
<event>
12    1  0.1046899E+000  0.1758795E+03  0.7818608E-02  0.1172316E+00
         21   -1    0    0  503  502  0.00000000000E+00  0.00000000000E+00  0.31050904842E+02  0.31050904842E+02  0.00000000000E+00 0. -1.
         21   -1    0    0  501  503 -0.00000000000E+00 -0.00000000000E+00 -0.11636284139E+04  0.11636284139E+04  0.00000000000E+00 0. -1.
          6    2    1    2  501    0 -0.33683275462E+02 -0.12906764433E+02 -0.33529154217E+03  0.37862118189E+03  0.17214073752E+03 0.  0.
         24    2    3    3    0    0  0.45878896316E+02 -0.67901516121E+01 -0.14127033084E+03  0.16877868721E+03  0.79862128654E+02 0.  0.
         -6    2    1    2    0  502  0.33683275462E+02  0.12906764433E+02 -0.79728596685E+03  0.81605813682E+03  0.17024929400E+03 0.  0.
        -24    2    5    5    0    0  0.56318959727E+02  0.44660302288E+01 -0.77922123218E+03  0.78552872748E+03  0.81718310992E+02 0.  0.
          5    1    3    3  501    0 -0.79562171777E+02 -0.61166128204E+01 -0.19402121132E+03  0.20984249468E+03  0.47000000000E+01 0. -1.
        -11    1    4    4    0    0  0.95533427874E+01 -0.40272657486E+02 -0.79994251521E+02  0.90067938667E+02  0.00000000000E+00 0.  1.
         12    1    4    4    0    0  0.36325553528E+02  0.33482505874E+02 -0.61276079323E+02  0.78710748542E+02  0.00000000000E+00 0. -1.
         -5    1    5    5    0  502 -0.22635684265E+02  0.84407342038E+01 -0.18064734670E+02  0.30529409342E+02  0.47000000000E+01 0.  1.
         11    1    6    6    0    0  0.61519694440E+01 -0.47851888263E+01 -0.42442398389E+01  0.88745891147E+01  0.00000000000E+00 0. -1.
        -12    1    6    6    0    0  0.50166990283E+02  0.92512190551E+01 -0.77497699235E+03  0.77665413836E+03  0.00000000000E+00 0.  1.
</event>
<event>
12    1  0.1046899E+000  0.2258798E+03  0.7818608E-02  0.1131513E+00
         21   -1    0    0  503  502  0.00000000000E+00  0.00000000000E+00  0.12717732169E+03  0.12717732169E+03  0.00000000000E+00 0.  1.
         21   -1    0    0  501  503 -0.00000000000E+00 -0.00000000000E+00 -0.56784806095E+03  0.56784806095E+03  0.00000000000E+00 0.  1.
          6    2    1    2  501    0  0.84752145320E+01 -0.12860583610E+03 -0.25505830287E+02  0.22731530662E+03  0.18550043370E+03 0.  0.
         24    2    3    3    0    0  0.12685925844E+02 -0.82133911673E+02  0.61433913335E+02  0.12853282400E+03  0.76417595996E+02 0.  0.
         -6    2    1    2    0  502 -0.84752145320E+01  0.12860583610E+03 -0.41516490897E+03  0.46771007602E+03  0.17256744545E+03 0.  0.
        -24    2    5    5    0    0  0.50270483326E+02  0.47715984918E+02 -0.28453126702E+03  0.30314561008E+03  0.78328042788E+02 0.  0.
          5    1    3    3  501    0 -0.42107113125E+01 -0.46471924431E+02 -0.86939743622E+02  0.98782482613E+02  0.47000000000E+01 0. -1.
        -13    1    4    4    0    0  0.31098417301E+02 -0.26990700121E+02 -0.35606156581E+01  0.41331433988E+02  0.00000000000E+00 0.  1.
         14    1    4    4    0    0 -0.18412491456E+02 -0.55143211552E+02  0.64994528993E+02  0.87201390017E+02  0.00000000000E+00 0. -1.
         -5    1    5    5    0  502 -0.58745697857E+02  0.80889851185E+02 -0.13063364195E+03  0.16456446594E+03  0.47000000000E+01 0.  1.
         13    1    6    6    0    0  0.54307578575E+02  0.65733850233E+02 -0.24731058966E+03  0.26159659768E+03  0.00000000000E+00 0. -1.
        -14    1    6    6    0    0 -0.40370952498E+01 -0.18017865314E+02 -0.37220677363E+02  0.41549012406E+02  0.00000000000E+00 0.  1.
</event>
<event>
12    1  0.1046899E+000  0.2013379E+03  0.7818608E-02  0.1151159E+00
         21   -1    0    0  501  502  0.00000000000E+00  0.00000000000E+00  0.10147389006E+03  0.10147389006E+03  0.00000000000E+00 0.  1.
         21   -1    0    0  502  503 -0.00000000000E+00 -0.00000000000E+00 -0.51278803292E+03  0.51278803292E+03  0.00000000000E+00 0.  1.
         -6    2    1    2    0  503  0.49755070001E+02 -0.63575791154E+02 -0.51893810925E+02  0.20791806341E+03  0.18444377265E+03 0.  0.
        -24    2    3    3    0    0  0.38267318991E+02 -0.91742236923E+02 -0.92273631346E+02  0.15714467483E+03  0.79366239978E+02 0.  0.
          6    2    1    2  501    0 -0.49755070001E+02  0.63575791154E+02 -0.35942033194E+03  0.40634385957E+03  0.17150775198E+03 0.  0.
         24    2    5    5    0    0 -0.79647001869E+02  0.93465700971E+02 -0.28705354213E+03  0.32240354407E+03  0.80404147986E+02 0.  0.
          5    1    5    5  501    0  0.29891931867E+02 -0.29889909817E+02 -0.72366789803E+02  0.83940315499E+02  0.47000000000E+01 0. -1.
        -13    1    6    6    0    0  0.82549021129E+01  0.23968149301E+02 -0.18420069228E+02  0.31335515636E+02  0.00000000000E+00 0.  1.
         14    1    6    6    0    0 -0.87901903981E+02  0.69497551671E+02 -0.26863347290E+03  0.29106802843E+03  0.00000000000E+00 0. -1.
         -5    1    3    3    0  503  0.11487751011E+02  0.28166445768E+02  0.40379820421E+02  0.50773388579E+02  0.47000000000E+01 0.  1.
         13    1    4    4    0    0  0.62841248764E+02 -0.65383123534E+02 -0.59742854543E+02  0.10859642747E+03  0.00000000000E+00 0. -1.
        -14    1    4    4    0    0 -0.24573929773E+02 -0.26359113389E+02 -0.32530776803E+02  0.48548247368E+02  0.00000000000E+00 0.  1.
</event>
<event>
12    1  0.1046899E+000  0.1799325E+03  0.7818608E-02  0.1168181E+00
         21   -1    0    0  501  502  0.00000000000E+00  0.00000000000E+00  0.10679511078E+04  0.10679511078E+04  0.00000000000E+00 0. -1.
         21   -1    0    0  502  503 -0.00000000000E+00 -0.00000000000E+00 -0.38078240716E+02  0.38078240716E+02  0.00000000000E+00 0. -1.
         -6    2    1    2    0  503 -0.41976684822E+01 -0.49177963250E+02  0.26325178843E+03  0.31886863258E+03  0.17303065694E+03 0.  0.
        -24    2    3    3    0    0  0.19015472241E+02 -0.62547888051E+02  0.73997209684E+02  0.12766980840E+03  0.80933098616E+02 0.  0.
          6    2    1    2  501    0  0.41976684822E+01  0.49177963250E+02  0.76662107868E+03  0.78716071596E+03  0.17169164799E+03 0.  0.
         24    2    5    5    0    0  0.54004851552E+02  0.79205859503E+00  0.25548788557E+03  0.27131075487E+03  0.73609202482E+02 0.  0.
          5    1    5    5  501    0 -0.49807183070E+02  0.48385904655E+02  0.51113319311E+03  0.51584996109E+03  0.47000000000E+01 0. -1.
        -11    1    6    6    0    0  0.17600997366E+02  0.59447104342E+01  0.65900377671E+01  0.19712008731E+02  0.00000000000E+00 0.  1.
         12    1    6    6    0    0  0.36403854186E+02 -0.51526518392E+01  0.24889784780E+03  0.25159874614E+03  0.00000000000E+00 0. -1.
         -5    1    3    3    0  503 -0.23213140723E+02  0.13369924801E+02  0.18925457875E+03  0.19119882418E+03  0.47000000000E+01 0.  1.
         11    1    4    4    0    0 -0.24242696475E+02  0.38862356086E+01  0.21021950189E+02  0.32322338241E+02  0.00000000000E+00 0. -1.
        -12    1    4    4    0    0  0.43258168716E+02 -0.66434123659E+02  0.52975259494E+02  0.95347470158E+02  0.00000000000E+00 0.  1.
</event>
<event>
12    1  0.1046899E+000  0.1959751E+03  0.7818608E-02  0.1153575E+00
         21   -1    0    0  501  502  0.00000000000E+00  0.00000000000E+00  0.51187620170E+03  0.51187620170E+03  0.00000000000E+00 0.  1.
         21   -1    0    0  502  503 -0.00000000000E+00 -0.00000000000E+00 -0.11458193665E+03  0.11458193665E+03  0.00000000000E+00 0.  1.
         -6    2    1    2    0  503  0.78656808745E+02 -0.41910406378E+02  0.38488178695E+03  0.43190304765E+03  0.17453617652E+03 0.  0.
        -24    2    3    3    0    0  0.11142001268E+03 -0.21882959824E+02  0.20177274694E+03  0.24475194111E+03  0.79359864601E+02 0.  0.
          6    2    1    2  501    0 -0.78656808745E+02  0.41910406378E+02  0.12412478096E+02  0.19455509071E+03  0.17249416797E+03 0.  0.
         24    2    5    5    0    0 -0.67688529375E+02  0.37649301741E+02 -0.58687486723E+02  0.12233490542E+03  0.74312859296E+02 0.  0.
          5    1    5    5  501    0 -0.10968279370E+02  0.42611046363E+01  0.71099964820E+02  0.72220185284E+02  0.47000000000E+01 0. -1.
        -11    1    6    6    0    0  0.84022939811E+01 -0.60013244262E-02 -0.32382351509E+02  0.33454674852E+02  0.00000000000E+00 0.  1.
         12    1    6    6    0    0 -0.76090823356E+02  0.37655303066E+02 -0.26305135214E+02  0.88880230572E+02  0.00000000000E+00 0. -1.
         -5    1    3    3    0  503 -0.32763203932E+02 -0.20027446554E+02  0.18310904001E+03  0.18715110654E+03  0.47000000000E+01 0.  1.
         11    1    4    4    0    0  0.58499651263E+02 -0.49111374820E+02  0.89350360487E+02  0.11754838686E+03  0.00000000000E+00 0. -1.
        -12    1    4    4    0    0  0.52920361414E+02  0.27228414996E+02  0.11242238646E+03  0.12720355424E+03  0.00000000000E+00 0.  1.
</event>
<event>
12    1  0.1046899E+000  0.1888694E+03  0.7818608E-02  0.1159636E+00
         21   -1    0    0  503  502  0.00000000000E+00  0.00000000000E+00  0.36390927815E+04  0.36390927815E+04  0.00000000000E+00 0. -1.
         21   -1    0    0  501  503 -0.00000000000E+00 -0.00000000000E+00 -0.11300886632E+02  0.11300886632E+02  0.00000000000E+00 0. -1.
          6    2    1    2  501    0  0.27102169544E+02  0.72500492440E+02  0.11444424953E+04  0.11599225279E+04  0.17228115534E+03 0.  0.
         24    2    3    3    0    0  0.11219682658E+02  0.96102555440E+01  0.23958591263E+03  0.25273183095E+03  0.79080532060E+02 0.  0.
         -6    2    1    2    0  502 -0.27102169544E+02 -0.72500492440E+02  0.24833493995E+04  0.24904711402E+04  0.17155585511E+03 0.  0.
        -24    2    5    5    0    0 -0.16256499078E+02  0.28894325286E+02  0.11082917252E+04  0.11116295122E+04  0.79438456814E+02 0.  0.
          5    1    3    3  501    0  0.15882486887E+02  0.62890236896E+02  0.90485658271E+03  0.90719069691E+03  0.47000000000E+01 0. -1.
        -11    1    4    4    0    0  0.24895497384E+02  0.38683678529E+02  0.11019807425E+03  0.11941452317E+03  0.00000000000E+00 0.  1.
         12    1    4    4    0    0 -0.13675814727E+02 -0.29073422985E+02  0.12938783838E+03  0.13331730778E+03  0.00000000000E+00 0. -1.
         -5    1    5    5    0  502 -0.10845670466E+02 -0.10139481773E+03  0.13750576743E+04  0.13788416280E+04  0.47000000000E+01 0.  1.
         13    1    6    6    0    0 -0.20050698045E+02 -0.14082681681E+02  0.79539442965E+03  0.79577173306E+03  0.00000000000E+00 0. -1.
        -14    1    6    6    0    0  0.37941989668E+01  0.42977006967E+02  0.31289729555E+03  0.31585777913E+03  0.00000000000E+00 0.  1.
</event>
<event>
12    1  0.1046899E+000  0.1962718E+03  0.7818608E-02  0.1152993E+00
         21   -1    0    0  501  502  0.00000000000E+00  0.00000000000E+00  0.44801925266E+02  0.44801925266E+02  0.00000000000E+00 0. -1.
         21   -1    0    0  502  503 -0.00000000000E+00 -0.00000000000E+00 -0.14711403318E+04  0.14711403318E+04  0.00000000000E+00 0. -1.
         -6    2    1    2    0  503  0.71305930124E+02  0.61749476926E+02 -0.22434877619E+03  0.29808553230E+03  0.17211937026E+03 0.  0.
        -24    2    3    3    0    0 -0.16874374166E+02  0.62879409550E+02 -0.15201160917E+03  0.18392862911E+03  0.80521094360E+02 0.  0.
          6    2    1    2  501    0 -0.71305930124E+02 -0.61749476926E+02 -0.12019896303E+04  0.12178567248E+04  0.17175097389E+03 0.  0.
         24    2    5    5    0    0  0.15245283416E+02 -0.80499769229E+01 -0.36045807523E+03  0.37017034578E+03  0.82455079293E+02 0.  0.
          5    1    5    5  501    0 -0.86551213540E+02 -0.53699500003E+02 -0.84153155510E+03  0.84768637898E+03  0.47000000000E+01 0. -1.
        -11    1    6    6    0    0 -0.25136643043E+02  0.17311260687E+02 -0.21346848223E+03  0.21563933657E+03  0.00000000000E+00 0.  1.
         12    1    6    6    0    0  0.40381926458E+02 -0.25361237609E+02 -0.14698959300E+03  0.15453100921E+03  0.00000000000E+00 0. -1.
         -5    1    3    3    0  503  0.88180304291E+02 -0.11299326241E+01 -0.72337167024E+02  0.11415690319E+03  0.47000000000E+01 0.  1.
         13    1    4    4    0    0  0.23919227307E+02  0.48756247376E+02 -0.52854564139E+02  0.75781963840E+02  0.00000000000E+00 0. -1.
        -14    1    4    4    0    0 -0.40793601473E+02  0.14123162174E+02 -0.99157045030E+02  0.10814666527E+03  0.00000000000E+00 0.  1.
</event>
<event>
12    1  0.1046899E+000  0.1753785E+03  0.7818608E-02  0.1172660E+00
         21   -1    0    0  503  502  0.00000000000E+00  0.00000000000E+00  0.82151395313E+02  0.82151395313E+02  0.00000000000E+00 0.  1.
         21   -1    0    0  501  503 -0.00000000000E+00 -0.00000000000E+00 -0.39289523968E+03  0.39289523968E+03  0.00000000000E+00 0.  1.
          6    2    1    2  501    0 -0.27965816051E+02 -0.22263369177E+02 -0.10083740912E+03  0.20230124330E+03  0.17169701653E+03 0.  0.
         24    2    3    3    0    0  0.36657084862E+02 -0.33866413278E+02 -0.13522706485E+02  0.92954559525E+02  0.77246428571E+02 0.  0.
         -6    2    1    2    0  502  0.27965816051E+02  0.22263369177E+02 -0.20990643524E+03  0.27274539169E+03  0.17044527761E+03 0.  0.
        -24    2    5    5    0    0 -0.25180857532E+02  0.67028888022E+02 -0.13863112236E+03  0.17309208861E+03  0.74935543202E+02 0.  0.
          5    1    3    3  501    0 -0.64622900913E+02  0.11603044101E+02 -0.87314702639E+02  0.10934668377E+03  0.47000000000E+01 0. -1.
        -11    1    4    4    0    0  0.17880682216E+02 -0.53328044490E+02 -0.27393514748E+02  0.62561999455E+02  0.00000000000E+00 0.  1.
         12    1    4    4    0    0  0.18776402646E+02  0.19461631212E+02  0.13870808262E+02  0.30392560070E+02  0.00000000000E+00 0. -1.
         -5    1    5    5    0  502  0.53146673583E+02 -0.44765518845E+02 -0.71275312875E+02  0.99653303085E+02  0.47000000000E+01 0.  1.
         11    1    6    6    0    0  0.95764872056E+01  0.16547482025E+02 -0.97318624480E+02  0.99178843204E+02  0.00000000000E+00 0. -1.
        -12    1    6    6    0    0 -0.34757344738E+02  0.50481405996E+02 -0.41312497884E+02  0.73913245403E+02  0.00000000000E+00 0.  1.
</event>
<event>
12    1  0.1046899E+000  0.3381342E+03  0.7818608E-02  0.1068228E+00
         21   -1    0    0  503  502  0.00000000000E+00  0.00000000000E+00  0.13924820622E+04  0.13924820622E+04  0.00000000000E+00 0.  1.
         21   -1    0    0  501  503 -0.00000000000E+00 -0.00000000000E+00 -0.90863647500E+02  0.90863647500E+02  0.00000000000E+00 0.  1.
          6    2    1    2  501    0 -0.21966560502E+01 -0.29164813844E+03  0.40771730792E+03  0.52968686237E+03  0.17108859412E+03 0.  0.
         24    2    3    3    0    0 -0.59426206439E+02 -0.17638909107E+03  0.29824113751E+03  0.36066913748E+03  0.80559699419E+02 0.  0.
         -6    2    1    2    0  502  0.21966560502E+01  0.29164813844E+03  0.89390110680E+03  0.95365884735E+03  0.15919342462E+03 0.  0.
        -24    2    5    5    0    0 -0.39266379857E+02  0.12254689844E+03  0.31832749856E+03  0.35230913111E+03  0.78928680612E+02 0.  0.
          5    1    3    3  501    0  0.57229550388E+02 -0.11525904737E+03  0.10947617041E+03  0.16901772489E+03  0.47000000000E+01 0. -1.
        -11    1    4    4    0    0  0.42415774461E+00 -0.94655320202E+02  0.19086546904E+03  0.21304796836E+03  0.00000000000E+00 0.  1.
         12    1    4    4    0    0 -0.59850364183E+02 -0.81733770866E+02  0.10737566847E+03  0.14762116912E+03  0.00000000000E+00 0. -1.
         -5    1    5    5    0  502  0.41463035907E+02  0.16910124000E+03  0.57557360825E+03  0.60134971624E+03  0.47000000000E+01 0.  1.
         13    1    6    6    0    0  0.76383179178E+01 -0.86369038864E+01  0.28184855262E+02  0.30452029087E+02  0.00000000000E+00 0. -1.
        -14    1    6    6    0    0 -0.46904697775E+02  0.13118380232E+03  0.29014264329E+03  0.32185710202E+03  0.00000000000E+00 0.  1.
</event>
<event>
12    1  0.1046899E+000  0.1913250E+03  0.7818608E-02  0.1157680E+00
         21   -1    0    0  501  502  0.00000000000E+00  0.00000000000E+00  0.17447729988E+03  0.17447729988E+03  0.00000000000E+00 0.  1.
         21   -1    0    0  502  503 -0.00000000000E+00 -0.00000000000E+00 -0.21960953627E+03  0.21960953627E+03  0.00000000000E+00 0.  1.
         -6    2    1    2    0  503  0.80148856450E+02  0.23561986134E+02 -0.68135881765E+02  0.20138389286E+03  0.17009987518E+03 0.  0.
        -24    2    3    3    0    0  0.27883136968E+02  0.64763891953E+02 -0.80033191451E+02  0.13361267143E+03  0.80468647338E+02 0.  0.
          6    2    1    2  501    0 -0.80148856450E+02 -0.23561986134E+02  0.23003645377E+02  0.19270294329E+03  0.17212277673E+03 0.  0.
         24    2    5    5    0    0 -0.25799963097E+02  0.53406599275E+02  0.35418831819E+02  0.97549424159E+02  0.68873024940E+02 0.  0.
          5    1    5    5  501    0 -0.54348893354E+02 -0.76968585409E+02 -0.12415186442E+02  0.95153519131E+02  0.47000000000E+01 0. -1.
        -11    1    6    6    0    0  0.22322175646E+02  0.13500402170E+02  0.82481336466E+00  0.26100205007E+02  0.00000000000E+00 0.  1.
         12    1    6    6    0    0 -0.48122138743E+02  0.39906197105E+02  0.34594018454E+02  0.71449219152E+02  0.00000000000E+00 0. -1.
         -5    1    3    3    0  503  0.52265719482E+02 -0.41201905819E+02  0.11897309686E+02  0.67771221428E+02  0.47000000000E+01 0.  1.
         11    1    4    4    0    0  0.13145285527E+02  0.55357317935E+02 -0.56205433154E+01  0.57173610063E+02  0.00000000000E+00 0. -1.
        -12    1    4    4    0    0  0.14737851442E+02  0.94065740182E+01 -0.74412648136E+02  0.76439061366E+02  0.00000000000E+00 0.  1.
</event>
<event>
12    1  0.1046899E+000  0.2026174E+03  0.7818608E-02  0.1149928E+00
         21   -1    0    0  501  502  0.00000000000E+00  0.00000000000E+00  0.10801928608E+03  0.10801928608E+03  0.00000000000E+00 0.  1.
         21   -1    0    0  502  503 -0.00000000000E+00 -0.00000000000E+00 -0.10085271661E+04  0.10085271661E+04  0.00000000000E+00 0.  1.
         -6    2    1    2    0  503  0.78362505031E+01 -0.82774608063E+02 -0.90258544137E+03  0.92504827274E+03  0.18477225266E+03 0.  0.
        -24    2    3    3    0    0 -0.37424299987E+02 -0.10930397924E+03 -0.76449034488E+03  0.77724884567E+03  0.79513159774E+02 0.  0.
          6    2    1    2  501    0 -0.78362505031E+01  0.82774608063E+02  0.20775613093E+01  0.19149817949E+03  0.17249404026E+03 0.  0.
         24    2    5    5    0    0  0.52585963454E+02  0.62600090051E+02 -0.33950128963E+02  0.11816374294E+03  0.78268793676E+02 0.  0.
          5    1    5    5  501    0 -0.60422213957E+02  0.20174518013E+02  0.36027690272E+02  0.73334436541E+02  0.47000000000E+01 0. -1.
        -13    1    6    6    0    0  0.29237667653E+02 -0.14456551980E+02 -0.82221699156E+01  0.33636842644E+02  0.00000000000E+00 0.  1.
         14    1    6    6    0    0  0.23348295801E+02  0.77056642030E+02 -0.25727959048E+02  0.84526900301E+02  0.00000000000E+00 0. -1.
         -5    1    3    3    0  503  0.45260550490E+02  0.26529371173E+02 -0.13809509650E+03  0.14779942707E+03  0.47000000000E+01 0.  1.
         13    1    4    4    0    0 -0.34297136370E+02 -0.50768674126E+02 -0.18677447528E+03  0.19656667177E+03  0.00000000000E+00 0. -1.
        -14    1    4    4    0    0 -0.31271636173E+01 -0.58535305110E+02 -0.57771586960E+03  0.58068217389E+03  0.00000000000E+00 0.  1.
</event>
<event>
12    1  0.1046899E+000  0.2540329E+03  0.7818608E-02  0.1110807E+00
         21   -1    0    0  503  502  0.00000000000E+00  0.00000000000E+00  0.17827309373E+03  0.17827309373E+03  0.00000000000E+00 0.  1.
         21   -1    0    0  501  503 -0.00000000000E+00 -0.00000000000E+00 -0.81128935319E+03  0.81128935319E+03  0.00000000000E+00 0.  1.
          6    2    1    2  501    0 -0.17782671156E+03  0.56968445400E+02  0.51835577232E+02  0.25911411909E+03  0.17200423405E+03 0.  0.
         24    2    3    3    0    0 -0.35272910839E+02 -0.15622451243E+02 -0.60096989344E+01  0.88940118878E+02  0.79912383538E+02 0.  0.
         -6    2    1    2    0  502  0.17782671156E+03 -0.56968445400E+02 -0.68485183669E+03  0.73044832784E+03  0.17223524117E+03 0.  0.
        -24    2    5    5    0    0  0.13725799339E+03  0.10371539003E+02 -0.30519142791E+03  0.34270535835E+03  0.73197195281E+02 0.  0.
          5    1    3    3  501    0 -0.14255380072E+03  0.72590896643E+02  0.57845276167E+02  0.17017400021E+03  0.47000000000E+01 0. -1.
        -11    1    4    4    0    0  0.14581343534E+02 -0.53419086552E+01 -0.29146637040E+02  0.33025414730E+02  0.00000000000E+00 0.  1.
         12    1    4    4    0    0 -0.49854254374E+02 -0.10280542587E+02  0.23136938106E+02  0.55914704148E+02  0.00000000000E+00 0. -1.
         -5    1    5    5    0  502  0.40568718168E+02 -0.67339984403E+02 -0.37966040878E+03  0.38774296949E+03  0.47000000000E+01 0.  1.
         11    1    6    6    0    0  0.40567075139E+02 -0.75314718088E+01 -0.17357341605E+03  0.17841003731E+03  0.00000000000E+00 0. -1.
        -12    1    6    6    0    0  0.96690918248E+02  0.17903010812E+02 -0.13161801186E+03  0.16429532104E+03  0.00000000000E+00 0.  1.
</event>
<event>
12    1  0.1046899E+000  0.2105044E+03  0.7818608E-02  0.1141354E+00
         21   -1    0    0  501  502  0.00000000000E+00  0.00000000000E+00  0.24637202392E+02  0.24637202392E+02  0.00000000000E+00 0. -1.
         21   -1    0    0  502  503 -0.00000000000E+00 -0.00000000000E+00 -0.26314351176E+04  0.26314351176E+04  0.00000000000E+00 0. -1.
         -6    2    1    2    0  503 -0.87812350001E+01 -0.12138992676E+03 -0.55067247749E+03  0.58919933731E+03  0.17059618171E+03 0.  0.
        -24    2    3    3    0    0 -0.10578741054E+02 -0.12057548725E+03 -0.56008097623E+03  0.57849867432E+03  0.79496279001E+02 0.  0.
          6    2    1    2  501    0  0.87812350001E+01  0.12138992676E+03 -0.20561254377E+04  0.20668729827E+04  0.17175414551E+03 0.  0.
         24    2    5    5    0    0  0.13284250797E+02  0.39028779021E+02 -0.47871201927E+03  0.48729746422E+03  0.81202859156E+02 0.  0.
          5    1    5    5  501    0 -0.45030157966E+01  0.82361147743E+02 -0.15774134184E+04  0.15795755184E+04  0.47000000000E+01 0. -1.
        -13    1    6    6    0    0 -0.16212234766E+02  0.53269934202E+02 -0.35416107218E+03  0.35851162812E+03  0.00000000000E+00 0.  1.
         14    1    6    6    0    0  0.29496485563E+02 -0.14241155181E+02 -0.12455094709E+03  0.12878583611E+03  0.00000000000E+00 0. -1.
         -5    1    3    3    0  503  0.17975060539E+01 -0.81443951860E+00  0.94084987406E+01  0.10700662984E+02  0.47000000000E+01 0.  1.
         13    1    4    4    0    0 -0.73660239899E+01  0.10950466555E+02 -0.55487706494E+02  0.57035573103E+02  0.00000000000E+00 0. -1.
        -14    1    4    4    0    0 -0.32127170642E+01 -0.13152595380E+03 -0.50459326973E+03  0.52146310122E+03  0.00000000000E+00 0.  1.
</event>
<event>
12    1  0.1046899E+000  0.3006866E+03  0.7818608E-02  0.1084994E+00
         21   -1    0    0  503  502  0.00000000000E+00  0.00000000000E+00  0.10661521218E+04  0.10661521218E+04  0.00000000000E+00 0. -1.
         21   -1    0    0  501  503 -0.00000000000E+00 -0.00000000000E+00 -0.94172020462E+02  0.94172020462E+02  0.00000000000E+00 0.  1.
          6    2    1    2  501    0 -0.34515321642E+02 -0.24512120813E+03  0.67164217315E+03  0.73587744690E+03  0.17069473922E+03 0.  0.
         24    2    3    3    0    0  0.43192100058E+02 -0.10902107516E+03  0.37609893721E+03  0.40131865701E+03  0.76518635367E+02 0.  0.
         -6    2    1    2    0  502  0.34515321642E+02  0.24512120813E+03  0.30033792814E+03  0.42444669531E+03  0.16934111132E+03 0.  0.
        -24    2    5    5    0    0  0.99187719314E+01  0.25728993551E+03  0.28648634784E+03  0.39334967840E+03  0.79706016395E+02 0.  0.
          5    1    3    3  501    0 -0.77707421699E+02 -0.13610013297E+03  0.29554323595E+03  0.33455878990E+03  0.47000000000E+01 0. -1.
        -13    1    4    4    0    0  0.12678902987E+02 -0.59818496304E+02  0.86143056030E+02  0.10563916501E+03  0.00000000000E+00 0.  1.
         14    1    4    4    0    0  0.30513197070E+02 -0.49202578854E+02  0.28995588118E+03  0.29567949200E+03  0.00000000000E+00 0. -1.
         -5    1    5    5    0  502  0.24596549710E+02 -0.12168727387E+02  0.13851580299E+02  0.31097016909E+02  0.47000000000E+01 0.  1.
         13    1    6    6    0    0 -0.21773494592E+02  0.20401810283E+03  0.19660956559E+03  0.28417035846E+03  0.00000000000E+00 0. -1.
        -14    1    6    6    0    0  0.31692266523E+02  0.53271832685E+02  0.89876782248E+02  0.10917931994E+03  0.00000000000E+00 0.  1.
</event>
<event>
12    1  0.1046899E+000  0.2100499E+03  0.7818608E-02  0.1141751E+00
         21   -1    0    0  501  502  0.00000000000E+00  0.00000000000E+00  0.77806941785E+02  0.77806941785E+02  0.00000000000E+00 0. -1.
         21   -1    0    0  502  503 -0.00000000000E+00 -0.00000000000E+00 -0.62318280673E+03  0.62318280673E+03  0.00000000000E+00 0. -1.
         -6    2    1    2    0  503 -0.11144184966E+03  0.44639888071E+02 -0.38002757783E+03  0.43366780185E+03  0.17098186155E+03 0.  0.
        -24    2    3    3    0    0 -0.15673922097E+01  0.29960217642E+02 -0.85112437449E+02  0.11857270643E+03  0.76910911730E+02 0.  0.
          6    2    1    2  501    0  0.11144184966E+03 -0.44639888071E+02 -0.16534828711E+03  0.26732194667E+03  0.17236287785E+03 0.  0.
         24    2    5    5    0    0  0.97451245152E+01  0.21793110675E+02 -0.58654674082E+02  0.10557775269E+03  0.84477120843E+02 0.  0.
          5    1    5    5  501    0  0.10169672514E+03 -0.66432998746E+02 -0.10669361303E+03  0.16174419399E+03  0.47000000000E+01 0. -1.
        -11    1    6    6    0    0  0.34068703718E+02 -0.91517710148E+01 -0.55927152013E+02  0.66123201812E+02  0.00000000000E+00 0.  1.
         12    1    6    6    0    0 -0.24323579202E+02  0.30944881690E+02 -0.27275220690E+01  0.39454550874E+02  0.00000000000E+00 0. -1.
         -5    1    3    3    0  503 -0.10987445745E+03  0.14679670428E+02 -0.29491514039E+03  0.31509509541E+03  0.47000000000E+01 0.  1.
         11    1    4    4    0    0 -0.18398931976E+02  0.48104146859E+02 -0.33798970532E+02  0.61602760100E+02  0.00000000000E+00 0. -1.
        -12    1    4    4    0    0  0.16831539766E+02 -0.18143929217E+02 -0.51313466916E+02  0.56969946334E+02  0.00000000000E+00 0.  1.
</event>
<event>
12    1  0.1046899E+000  0.1928520E+03  0.7818608E-02  0.1159153E+00
         21   -1    0    0  501  502  0.00000000000E+00  0.00000000000E+00  0.27117176410E+03  0.27117176410E+03  0.00000000000E+00 0. -1.
         21   -1    0    0  502  503 -0.00000000000E+00 -0.00000000000E+00 -0.14084451716E+03  0.14084451716E+03  0.00000000000E+00 0. -1.
         -6    2    1    2    0  503  0.32175822866E+02 -0.33658235086E+02  0.12670392298E+03  0.21913019928E+03  0.17261517828E+03 0.  0.
        -24    2    3    3    0    0  0.73042848257E+02  0.16364607992E+02  0.10167480513E+03  0.14969717159E+03  0.80426482623E+02 0.  0.
          6    2    1    2  501    0 -0.32175822866E+02  0.33658235086E+02  0.36233239603E+01  0.19288608197E+03  0.18714633787E+03 0.  0.
         24    2    5    5    0    0  0.22750899433E+02 -0.51523850210E+01  0.62135897847E+02  0.10361671232E+03  0.79570112319E+02 0.  0.
          5    1    5    5  501    0 -0.54926722300E+02  0.38810620107E+02 -0.58512573886E+02  0.89269369654E+02  0.47000000000E+01 0. -1.
        -11    1    6    6    0    0 -0.33575604604E+01  0.34658013022E+02  0.20744313569E+02  0.40531193226E+02  0.00000000000E+00 0.  1.
         12    1    6    6    0    0  0.26108459894E+02 -0.39810398043E+02  0.41391584277E+02  0.63085519094E+02  0.00000000000E+00 0. -1.
         -5    1    3    3    0  503 -0.40867025391E+02 -0.50022843078E+02  0.25029117847E+02  0.69433027689E+02  0.47000000000E+01 0.  1.
         11    1    4    4    0    0  0.67925618764E+02  0.43433124363E+02  0.63540481523E+02  0.10265339141E+03  0.00000000000E+00 0. -1.
        -12    1    4    4    0    0  0.51172294932E+01 -0.27068516371E+02  0.38134323611E+02  0.47043780178E+02  0.00000000000E+00 0.  1.
</event>
<event>
12    1  0.1046899E+000  0.2241274E+03  0.7818608E-02  0.1131284E+00
         21   -1    0    0  501  502  0.00000000000E+00  0.00000000000E+00  0.21036440361E+03  0.21036440361E+03  0.00000000000E+00 0.  1.
         21   -1    0    0  502  503 -0.00000000000E+00 -0.00000000000E+00 -0.23628752602E+03  0.23628752602E+03  0.00000000000E+00 0.  1.
         -6    2    1    2    0  503 -0.61989900457E+02 -0.12507897163E+03 -0.16541744083E+02  0.22473697849E+03  0.17534418526E+03 0.  0.
        -24    2    3    3    0    0 -0.10055523073E+03 -0.67801022319E+02  0.17583880813E+02  0.14757029883E+03  0.82215978847E+02 0.  0.
          6    2    1    2  501    0  0.61989900457E+02  0.12507897163E+03 -0.93813783249E+01  0.22191495114E+03  0.17225196190E+03 0.  0.
         24    2    5    5    0    0  0.76253021110E+02  0.12678895604E+03  0.37390225516E+02  0.17276178661E+03  0.80985451457E+02 0.  0.
          5    1    5    5  501    0 -0.14263120653E+02 -0.17099844108E+01 -0.46771603841E+02  0.49153164530E+02  0.47000000000E+01 0. -1.
        -13    1    6    6    0    0  0.14090020062E+02  0.12843309850E+02  0.38495387014E+02  0.42957817620E+02  0.00000000000E+00 0.  1.
         14    1    6    6    0    0  0.62163001048E+02  0.11394564619E+03 -0.11051614981E+01  0.12980396899E+03  0.00000000000E+00 0. -1.
         -5    1    3    3    0  503  0.38565330272E+02 -0.57277949307E+02 -0.34125624896E+02  0.77166679664E+02  0.47000000000E+01 0.  1.
         13    1    4    4    0    0 -0.72790320605E+02 -0.94727385772E+01  0.34032539575E+02  0.80909686070E+02  0.00000000000E+00 0. -1.
        -14    1    4    4    0    0 -0.27764910124E+02 -0.58328283742E+02 -0.16448658762E+02  0.66660612760E+02  0.00000000000E+00 0.  1.
</event>
<event>
12    1  0.1046899E+000  0.1899530E+03  0.7818608E-02  0.1161406E+00
         21   -1    0    0  503  502  0.00000000000E+00  0.00000000000E+00  0.26904918921E+02  0.26904918921E+02  0.00000000000E+00 0. -1.
         21   -1    0    0  501  503 -0.00000000000E+00 -0.00000000000E+00 -0.12606185291E+04  0.12606185291E+04  0.00000000000E+00 0. -1.
          6    2    1    2  501    0  0.29194865791E+02  0.53834962268E+02 -0.55283737983E+03  0.58064682008E+03  0.16664638547E+03 0.  0.
         24    2    3    3    0    0  0.20391633081E+02  0.28532233876E+02 -0.13298525212E+03  0.15991457256E+03  0.81594645443E+02 0.  0.
         -6    2    1    2    0  502 -0.29194865791E+02 -0.53834962268E+02 -0.68087623037E+03  0.70687662795E+03  0.17980985154E+03 0.  0.
        -24    2    5    5    0    0 -0.58603878912E+02 -0.75305629869E+02 -0.30756774761E+03  0.33176705340E+03  0.79787880273E+02 0.  0.
          5    1    3    3  501    0  0.88032327100E+01  0.25302728392E+02 -0.41985212771E+03  0.42073224753E+03  0.47000000000E+01 0. -1.
        -13    1    4    4    0    0  0.80371207773E+01  0.52855213246E+02 -0.11613371208E+03  0.12784876988E+03  0.00000000000E+00 0.  1.
         14    1    4    4    0    0  0.12354512304E+02 -0.24322979370E+02 -0.16851540037E+02  0.32065802677E+02  0.00000000000E+00 0. -1.
         -5    1    5    5    0  502  0.29409013121E+02  0.21470667601E+02 -0.37330848276E+03  0.37510957455E+03  0.47000000000E+01 0.  1.
         11    1    6    6    0    0 -0.62561306006E+02 -0.64557978584E+02 -0.30743930308E+03  0.32031324463E+03  0.00000000000E+00 0. -1.
        -12    1    6    6    0    0  0.39574270940E+01 -0.10747651285E+02 -0.12844453142E+00  0.11453808770E+02  0.00000000000E+00 0.  1.
</event>
<event>
12    1  0.1046899E+000  0.1722648E+03  0.7818608E-02  0.1175707E+00
         21   -1    0    0  501  502  0.00000000000E+00  0.00000000000E+00  0.17766118513E+03  0.17766118513E+03  0.00000000000E+00 0. -1.
         21   -1    0    0  502  503 -0.00000000000E+00 -0.00000000000E+00 -0.18817694094E+03  0.18817694094E+03  0.00000000000E+00 0. -1.
         -6    2    1    2    0  503  0.15468554998E+02 -0.10756557821E+02 -0.67652995010E+02  0.18434480997E+03  0.17044383679E+03 0.  0.
        -24    2    3    3    0    0 -0.30583337111E+02  0.20119993673E+02 -0.88333774000E+02  0.12498217173E+03  0.80483122257E+02 0.  0.
          6    2    1    2  501    0 -0.15468554998E+02  0.10756557821E+02  0.57137239199E+02  0.18149331610E+03  0.17123136382E+03 0.  0.
         24    2    5    5    0    0 -0.36853510893E+02 -0.44584391659E+02  0.69254052283E+02  0.12075746023E+03  0.80251424908E+02 0.  0.
          5    1    5    5  501    0  0.21384955895E+02  0.55340949480E+02 -0.12116813085E+02  0.60735855862E+02  0.47000000000E+01 0. -1.
        -11    1    6    6    0    0  0.78546814381E+01 -0.50452346705E+01 -0.14902640020E+02  0.17585195277E+02  0.00000000000E+00 0.  1.
         12    1    6    6    0    0 -0.44708192331E+02 -0.39539156989E+02  0.84156692303E+02  0.10317226496E+03  0.00000000000E+00 0. -1.
         -5    1    3    3    0  503  0.46051892109E+02 -0.30876551493E+02  0.20680778989E+02  0.59362638238E+02  0.47000000000E+01 0.  1.
         13    1    4    4    0    0 -0.39042674552E+02  0.24601235652E+02 -0.11505421408E+02  0.47559709351E+02  0.00000000000E+00 0. -1.
        -14    1    4    4    0    0  0.84593374406E+01 -0.44812419790E+01 -0.76828352592E+02  0.77422462384E+02  0.00000000000E+00 0.  1.
</event>
<event>
12    1  0.1046899E+000  0.3284034E+03  0.7818608E-02  0.1072092E+00
         21   -1    0    0  501  502  0.00000000000E+00  0.00000000000E+00  0.49948766050E+03  0.49948766050E+03  0.00000000000E+00 0.  1.
         21   -1    0    0  502  503 -0.00000000000E+00 -0.00000000000E+00 -0.39844329338E+03  0.39844329338E+03  0.00000000000E+00 0.  1.
         -6    2    1    2    0  503 -0.19107240830E+03 -0.19960391333E+03 -0.25464466770E+03  0.41381990167E+03  0.17335690582E+03 0.  0.
        -24    2    3    3    0    0 -0.15905753612E+03 -0.88443446643E+02 -0.21251157283E+03  0.29061726745E+03  0.78585523493E+02 0.  0.
          6    2    1    2  501    0  0.19107240830E+03  0.19960391333E+03  0.35568903483E+03  0.48411105221E+03  0.17747798158E+03 0.  0.
         24    2    5    5    0    0  0.80726691897E+02  0.14400321085E+03  0.29612377823E+03  0.34686046009E+03  0.73274574161E+02 0.  0.
          5    1    5    5  501    0  0.11034571640E+03  0.55600702477E+02  0.59565256601E+02  0.13725059213E+03  0.47000000000E+01 0. -1.
        -11    1    6    6    0    0 -0.61781246766E+01 -0.13445571332E+01  0.72721532083E+00  0.63644246030E+01  0.00000000000E+00 0.  1.
         12    1    6    6    0    0  0.86904816573E+02  0.14534776799E+03  0.29539656291E+03  0.34049603548E+03  0.00000000000E+00 0. -1.
         -5    1    3    3    0  503 -0.32014872180E+02 -0.11116046669E+03 -0.42133094871E+02  0.12320263422E+03  0.47000000000E+01 0.  1.
         13    1    4    4    0    0 -0.73343010740E+02 -0.83379641256E+02 -0.10302936606E+03  0.15148073168E+03  0.00000000000E+00 0. -1.
        -14    1    4    4    0    0 -0.85714525380E+02 -0.50638053870E+01 -0.10948220677E+03  0.13913653577E+03  0.00000000000E+00 0.  1.
</event>
<event>
12    1  0.1046899E+000  0.2178981E+03  0.7818608E-02  0.1135726E+00
         21   -1    0    0  503  502  0.00000000000E+00  0.00000000000E+00  0.24946548992E+04  0.24946548992E+04  0.00000000000E+00 0.  1.
         21   -1    0    0  501  503 -0.00000000000E+00 -0.00000000000E+00 -0.22931183789E+02  0.22931183789E+02  0.00000000000E+00 0.  1.
          6    2    1    2  501    0  0.37666674294E+02  0.12680939840E+03  0.17596927744E+04  0.17729602500E+04  0.17137673674E+03 0.  0.
         24    2    3    3    0    0  0.87558944220E+02  0.93979322792E+02  0.10598449376E+04  0.10705528631E+04  0.79457278734E+02 0.  0.
         -6    2    1    2    0  502 -0.37666674294E+02 -0.12680939840E+03  0.71203094099E+03  0.74462583298E+03  0.17314782222E+03 0.  0.
        -24    2    5    5    0    0 -0.84728718036E+02 -0.10357362108E+03  0.61508671240E+03  0.63428540174E+03  0.77973434256E+02 0.  0.
          5    1    3    3  501    0 -0.49892269925E+02  0.32830075603E+02  0.69984783681E+03  0.70240738688E+03  0.47000000000E+01 0. -1.
        -13    1    4    4    0    0  0.29171444093E+02 -0.43985008747E+01  0.11165342747E+03  0.11548509785E+03  0.00000000000E+00 0.  1.
         14    1    4    4    0    0  0.58387500127E+02  0.98377823667E+02  0.94819151016E+03  0.95506776530E+03  0.00000000000E+00 0. -1.
         -5    1    5    5    0  502  0.47062043741E+02 -0.23235777313E+02  0.96944228597E+02  0.11034043124E+03  0.47000000000E+01 0.  1.
         11    1    6    6    0    0 -0.70423207255E+02 -0.11568970280E+03  0.55789115374E+03  0.57409587604E+03  0.00000000000E+00 0. -1.
        -12    1    6    6    0    0 -0.14305510781E+02  0.12116081721E+02  0.57195558651E+02  0.60189525703E+02  0.00000000000E+00 0.  1.
</event>
<event>
12    1  0.1046899E+000  0.1970058E+03  0.7818608E-02  0.1153699E+00
         21   -1    0    0  503  502  0.00000000000E+00  0.00000000000E+00  0.25322362553E+03  0.25322362553E+03  0.00000000000E+00 0. -1.
         21   -1    0    0  501  503 -0.00000000000E+00 -0.00000000000E+00 -0.27608128572E+03  0.27608128572E+03  0.00000000000E+00 0.  1.
          6    2    1    2  501    0  0.54963741904E+02 -0.63502375266E+02  0.16850267479E+03  0.25923817495E+03  0.17820694530E+03 0.  0.
         24    2    3    3    0    0  0.35751919688E+02  0.33465742738E+02  0.71307157036E+02  0.12052635608E+03  0.83926969252E+02 0.  0.
         -6    2    1    2    0  502 -0.54963741904E+02  0.63502375266E+02 -0.19136033499E+03  0.27006673630E+03  0.17106636040E+03 0.  0.
        -24    2    5    5    0    0 -0.19088634875E+02  0.10666528902E+03 -0.80832386938E+02  0.14601603002E+03  0.55181032819E+02 0.  0.
          5    1    3    3  501    0  0.19211822216E+02 -0.96968118005E+02  0.97195517757E+02  0.13871181887E+03  0.47000000000E+01 0. -1.
        -11    1    4    4    0    0 -0.72326111822E+01  0.13119169908E+02 -0.15493480030E+02  0.21551594072E+02  0.00000000000E+00 0.  1.
         12    1    4    4    0    0  0.42984530870E+02  0.20346572830E+02  0.86800637067E+02  0.98974762011E+02  0.00000000000E+00 0. -1.
         -5    1    5    5    0  502 -0.35875107028E+02 -0.43162913753E+02 -0.11052794805E+03  0.12405070628E+03  0.47000000000E+01 0.  1.
         11    1    6    6    0    0 -0.36688130779E+02  0.48959168511E+02 -0.43515343555E+02  0.75077321783E+02  0.00000000000E+00 0. -1.
        -12    1    6    6    0    0  0.17599495903E+02  0.57706120508E+02 -0.37317043383E+02  0.70938708242E+02  0.00000000000E+00 0.  1.
</event>
<event>
12    1  0.1046899E+000  0.2735712E+03  0.7818608E-02  0.1099373E+00
         21   -1    0    0  503  502  0.00000000000E+00  0.00000000000E+00  0.11330758547E+04  0.11330758547E+04  0.00000000000E+00 0.  1.
         21   -1    0    0  501  503 -0.00000000000E+00 -0.00000000000E+00 -0.65961306442E+02  0.65961306442E+02  0.00000000000E+00 0.  1.
          6    2    1    2  501    0  0.39891375522E+02 -0.20926560198E+03  0.50927993543E+03  0.57810659386E+03  0.17163265195E+03 0.  0.
         24    2    3    3    0    0  0.70620732792E+02 -0.16344337717E+03  0.47356308611E+03  0.51221461400E+03  0.80004929976E+02 0.  0.
         -6    2    1    2    0  502 -0.39891375522E+02  0.20926560198E+03  0.55783461279E+03  0.62093056725E+03  0.17027007989E+03 0.  0.
        -24    2    5    5    0    0 -0.14835022552E+02  0.69364189752E+02  0.11585690535E+03  0.15663905339E+03  0.77983984351E+02 0.  0.
          5    1    3    3  501    0 -0.30729357270E+02 -0.45822224810E+02  0.35716849317E+02  0.65891979860E+02  0.47000000000E+01 0. -1.
        -11    1    4    4    0    0  0.52013715013E+02 -0.66467989728E+02  0.30881440818E+03  0.32014021758E+03  0.00000000000E+00 0.  1.
         12    1    4    4    0    0  0.18607017778E+02 -0.96975387444E+02  0.16474867793E+03  0.19207439642E+03  0.00000000000E+00 0. -1.
         -5    1    5    5    0  502 -0.25056352970E+02  0.13990141223E+03  0.44197770745E+03  0.46429151387E+03  0.47000000000E+01 0.  1.
         13    1    6    6    0    0  0.78752914880E+01  0.64520377965E+02  0.11650339941E+03  0.13340892573E+03  0.00000000000E+00 0. -1.
        -14    1    6    6    0    0 -0.22710314040E+02  0.48438117867E+01 -0.64649406811E+00  0.23230127658E+02  0.00000000000E+00 0.  1.
</event>
<event>
12    1  0.1046899E+000  0.2813133E+03  0.7818608E-02  0.1095095E+00
         21   -1    0    0  503  502  0.00000000000E+00  0.00000000000E+00  0.52589797629E+03  0.52589797629E+03  0.00000000000E+00 0. -1.
         21   -1    0    0  501  503 -0.00000000000E+00 -0.00000000000E+00 -0.17638901073E+03  0.17638901073E+03  0.00000000000E+00 0. -1.
          6    2    1    2  501    0  0.21258082679E+03  0.65280883816E+02  0.31032788082E+03  0.41825826938E+03  0.17083437763E+03 0.  0.
         24    2    3    3    0    0  0.80545813671E+02  0.46216611620E+02  0.63815381734E+02  0.13792419480E+03  0.79542927255E+02 0.  0.
         -6    2    1    2    0  502 -0.21258082679E+03 -0.65280883816E+02  0.39181084748E+02  0.28402871764E+03  0.17229321906E+03 0.  0.
        -24    2    5    5    0    0 -0.55435597460E+02 -0.29758818569E+01 -0.31810341222E+02  0.10062095082E+03  0.77657688585E+02 0.  0.
          5    1    3    3  501    0  0.13203501312E+03  0.19064272197E+02  0.24651249908E+03  0.28033407458E+03  0.47000000000E+01 0. -1.
        -13    1    4    4    0    0  0.30767028807E+02  0.62282624692E+02  0.30209748089E+02  0.75751991920E+02  0.00000000000E+00 0.  1.
         14    1    4    4    0    0  0.49778784864E+02 -0.16066013073E+02  0.33605633645E+02  0.62172202882E+02  0.00000000000E+00 0. -1.
         -5    1    5    5    0  502 -0.15714522933E+03 -0.62305001959E+02  0.70991425970E+02  0.18340776682E+03  0.47000000000E+01 0.  1.
         13    1    6    6    0    0 -0.33048544422E+02  0.36916707642E+02 -0.19509663698E+02  0.53251071061E+02  0.00000000000E+00 0. -1.
        -14    1    6    6    0    0 -0.22387053038E+02 -0.39892589499E+02 -0.12300677524E+02  0.47369879758E+02  0.00000000000E+00 0.  1.
</event>
<event>
12    1  0.1046899E+000  0.3864555E+03  0.7818608E-02  0.1048740E+00
         21   -1    0    0  503  502  0.00000000000E+00  0.00000000000E+00  0.50006355988E+02  0.50006355988E+02  0.00000000000E+00 0.  1.
         21   -1    0    0  501  503 -0.00000000000E+00 -0.00000000000E+00 -0.31569626613E+04  0.31569626613E+04  0.00000000000E+00 0. -1.
          6    2    1    2  501    0 -0.28603380849E+03  0.19477085031E+03 -0.11692501795E+04  0.12314600534E+04  0.17203737119E+03 0.  0.
         24    2    3    3    0    0 -0.17097339738E+03  0.39377472920E+02 -0.60506180070E+03  0.63504022078E+03  0.79961311670E+02 0.  0.
         -6    2    1    2    0  502  0.28603380849E+03 -0.19477085031E+03 -0.19377061258E+04  0.19755089639E+04  0.16786784306E+03 0.  0.
        -24    2    5    5    0    0  0.72885168343E+02 -0.61958908966E+02 -0.85281798117E+03  0.86192208767E+03  0.80374262213E+02 0.  0.
          5    1    3    3  501    0 -0.11506041111E+03  0.15539337739E+03 -0.56418837883E+03  0.59641983262E+03  0.47000000000E+01 0. -1.
        -11    1    4    4    0    0 -0.17464878693E+03  0.46297970355E+02 -0.59722530184E+03  0.62395814122E+03  0.00000000000E+00 0.  1.
         12    1    4    4    0    0  0.36753895545E+01 -0.69204974342E+01 -0.78364988585E+01  0.11082079565E+02  0.00000000000E+00 0. -1.
         -5    1    5    5    0  502  0.21314864014E+03 -0.13281194135E+03 -0.10848881446E+04  0.11135868762E+04  0.47000000000E+01 0.  1.
         11    1    6    6    0    0  0.86650622520E+02 -0.45977717907E+02 -0.57523010375E+03  0.58353402059E+03  0.00000000000E+00 0. -1.
        -12    1    6    6    0    0 -0.13765454176E+02 -0.15981191060E+02 -0.27758787743E+03  0.27838806708E+03  0.00000000000E+00 0.  1.
</event>
<event>
12    1  0.1046899E+000  0.2570595E+03  0.7818608E-02  0.1109104E+00
         21   -1    0    0  501  502  0.00000000000E+00  0.00000000000E+00  0.43804401429E+03  0.43804401429E+03  0.00000000000E+00 0. -1.
         21   -1    0    0  502  503 -0.00000000000E+00 -0.00000000000E+00 -0.15015944203E+03  0.15015944203E+03  0.00000000000E+00 0. -1.
         -6    2    1    2    0  503 -0.73629879219E+02  0.17660065325E+03  0.14457710930E+03  0.29389645941E+03  0.16989243209E+03 0.  0.
        -24    2    3    3    0    0  0.10601891301E+02  0.34909005537E+02  0.34438784307E+02  0.95593522402E+02  0.81369852487E+02 0.  0.
          6    2    1    2  501    0  0.73629879219E+02 -0.17660065325E+03  0.14330746296E+03  0.29430699691E+03  0.17166953618E+03 0.  0.
         24    2    5    5    0    0  0.21970407222E+00 -0.11308173977E+03  0.32222556561E+02  0.14670736069E+03  0.87733849730E+02 0.  0.
          5    1    5    5  501    0  0.73410175147E+02 -0.63518913470E+02  0.11108490640E+03  0.14759963622E+03  0.47000000000E+01 0. -1.
        -13    1    6    6    0    0 -0.10775980032E+02 -0.10134342375E+03  0.57297651874E+02  0.11691720230E+03  0.00000000000E+00 0.  1.
         14    1    6    6    0    0  0.10995684104E+02 -0.11738316027E+02 -0.25075095313E+02  0.29790158392E+02  0.00000000000E+00 0. -1.
         -5    1    3    3    0  503 -0.84231770521E+02  0.14169164771E+03  0.11013832499E+03  0.19830293701E+03  0.47000000000E+01 0.  1.
         11    1    4    4    0    0  0.39847802896E+02  0.42295301697E+02  0.28995403164E+02  0.64942076853E+02  0.00000000000E+00 0. -1.
        -12    1    4    4    0    0 -0.29245911595E+02 -0.73862961599E+01  0.54433811435E+01  0.30651445549E+02  0.00000000000E+00 0.  1.
</event>
<event>
12    1  0.1046899E+000  0.1961127E+03  0.7818608E-02  0.1155949E+00
         21   -1    0    0  501  502  0.00000000000E+00  0.00000000000E+00  0.72720112471E+02  0.72720112471E+02  0.00000000000E+00 0. -1.
         21   -1    0    0  502  503 -0.00000000000E+00 -0.00000000000E+00 -0.61006489579E+03  0.61006489579E+03  0.00000000000E+00 0. -1.
         -6    2    1    2    0  503 -0.92259037737E+02  0.18513247798E+02 -0.42443291139E+03  0.46755051702E+03  0.17206312594E+03 0.  0.
        -24    2    3    3    0    0  0.17962207313E+02 -0.99026426023E+01 -0.16544071948E+03  0.18461018558E+03  0.79306908497E+02 0.  0.
          6    2    1    2  501    0  0.92259037737E+02 -0.18513247798E+02 -0.11291187194E+03  0.21523449124E+03  0.15723334573E+03 0.  0.
         24    2    5    5    0    0 -0.11714628516E+02 -0.23634555458E+02 -0.21804782231E+02  0.76817213202E+02  0.68772167212E+02 0.  0.
          5    1    5    5  501    0  0.10397366625E+03  0.51213076600E+01 -0.91107089706E+02  0.13841727804E+03  0.47000000000E+01 0. -1.
        -11    1    6    6    0    0  0.89981871466E+01 -0.43402344510E+02 -0.80404895203E+01  0.45048644293E+02  0.00000000000E+00 0.  1.
         12    1    6    6    0    0 -0.20712815662E+02  0.19767789053E+02 -0.13764292711E+02  0.31768568909E+02  0.00000000000E+00 0. -1.
         -5    1    3    3    0  503 -0.11022124505E+03  0.28415890400E+02 -0.25899219191E+03  0.28294033144E+03  0.47000000000E+01 0.  1.
         11    1    4    4    0    0  0.28353546780E+02 -0.10245113678E+02 -0.17043150956E+03  0.17307739719E+03  0.00000000000E+00 0. -1.
        -12    1    4    4    0    0 -0.10391339466E+02  0.34247107531E+00  0.49907900775E+01  0.11532788385E+02  0.00000000000E+00 0.  1.
</event>
<event>
12    1  0.1046899E+000  0.2726563E+03  0.7818608E-02  0.1100074E+00
         21   -1    0    0  503  502  0.00000000000E+00  0.00000000000E+00  0.14496130335E+03  0.14496130335E+03  0.00000000000E+00 0.  1.
         21   -1    0    0  501  503 -0.00000000000E+00 -0.00000000000E+00 -0.54990069186E+03  0.54990069186E+03  0.00000000000E+00 0.  1.
          6    2    1    2  501    0  0.14443760634E+03 -0.15187728696E+03 -0.29820111670E+03  0.40406111722E+03  0.17439193797E+03 0.  0.
         24    2    3    3    0    0  0.92980864859E+02 -0.82724386644E+02 -0.27898094124E+03  0.31562229650E+03  0.79361849132E+02 0.  0.
         -6    2    1    2    0  502 -0.14443760634E+03  0.15187728696E+03 -0.10673827181E+03  0.29080087799E+03  0.17100631436E+03 0.  0.
        -24    2    5    5    0    0 -0.10204992224E+03  0.39490871288E+02 -0.10328338566E+03  0.17054511543E+03  0.80277413373E+02 0.  0.
          5    1    3    3  501    0  0.51456741480E+02 -0.69152900318E+02 -0.19220175463E+02  0.88438820723E+02  0.47000000000E+01 0. -1.
        -11    1    4    4    0    0  0.10612595550E+03 -0.76332695491E+02 -0.23054620355E+03  0.26503009415E+03  0.00000000000E+00 0.  1.
         12    1    4    4    0    0 -0.13145090645E+02 -0.63916911538E+01 -0.48434737689E+02  0.50592202352E+02  0.00000000000E+00 0. -1.
         -5    1    5    5    0  502 -0.42387684098E+02  0.11238641567E+03 -0.34548861498E+01  0.12025576256E+03  0.47000000000E+01 0.  1.
         11    1    6    6    0    0 -0.97738456995E+02  0.99017270008E+01 -0.51927660304E+02  0.11111854966E+03  0.00000000000E+00 0. -1.
        -12    1    6    6    0    0 -0.43114652465E+01  0.29589144287E+02 -0.51355725356E+02  0.59426565769E+02  0.00000000000E+00 0.  1.
</event>
<event>
12    1  0.1046899E+000  0.3907018E+03  0.7818608E-02  0.1047109E+00
         21   -1    0    0  503  502  0.00000000000E+00  0.00000000000E+00  0.91914095271E+02  0.91914095271E+02  0.00000000000E+00 0.  1.
         21   -1    0    0  501  503 -0.00000000000E+00 -0.00000000000E+00 -0.16793965964E+04  0.16793965964E+04  0.00000000000E+00 0.  1.
          6    2    1    2  501    0  0.26234084442E+03 -0.23146596216E+03 -0.89336471282E+03  0.97478860277E+03  0.17237488125E+03 0.  0.
         24    2    3    3    0    0  0.22901555338E+03 -0.11411381989E+03 -0.60910853723E+03  0.66542512128E+03  0.79418475946E+02 0.  0.
         -6    2    1    2    0  502 -0.26234084442E+03  0.23146596216E+03 -0.69411778833E+03  0.79652208893E+03  0.17392160239E+03 0.  0.
        -24    2    5    5    0    0 -0.26439204828E+03  0.23078802136E+03 -0.70077186784E+03  0.78809393283E+03  0.82731917720E+02 0.  0.
          5    1    3    3  501    0  0.33325291035E+02 -0.11735214227E+03 -0.28425617559E+03  0.30936348149E+03  0.47000000000E+01 0. -1.
        -13    1    4    4    0    0  0.78349305859E+01  0.43211766077E+01 -0.72614934260E+02  0.73164112665E+02  0.00000000000E+00 0.  1.
         14    1    4    4    0    0  0.22118062280E+03 -0.11843499650E+03 -0.53649360297E+03  0.59226100861E+03  0.00000000000E+00 0. -1.
         -5    1    5    5    0  502  0.20512038608E+01  0.67794080431E+00  0.66540795114E+01  0.84281560947E+01  0.47000000000E+01 0.  1.
         11    1    6    6    0    0 -0.87581100726E+02  0.88523732190E+02 -0.16901188966E+03  0.20993313033E+03  0.00000000000E+00 0. -1.
        -12    1    6    6    0    0 -0.17681094755E+03  0.14226428917E+03 -0.53175997819E+03  0.57816080250E+03  0.00000000000E+00 0.  1.
</event>
<event>
12    1  0.1046899E+000  0.2383715E+03  0.7818608E-02  0.1121124E+00
         21   -1    0    0  501  502  0.00000000000E+00  0.00000000000E+00  0.29243430652E+03  0.29243430652E+03  0.00000000000E+00 0.  1.
         21   -1    0    0  502  503 -0.00000000000E+00 -0.00000000000E+00 -0.20409068338E+03  0.20409068338E+03  0.00000000000E+00 0.  1.
         -6    2    1    2    0  503  0.75444427315E+02  0.14657222433E+03 -0.13217606951E+02  0.23873770631E+03  0.17217929238E+03 0.  0.
        -24    2    3    3    0    0  0.18439640217E+02  0.11134381437E+03 -0.66238098754E+02  0.15315821595E+03  0.79576931680E+02 0.  0.
          6    2    1    2  501    0 -0.75444427315E+02 -0.14657222433E+03  0.10156123009E+03  0.25778728359E+03  0.17018907593E+03 0.  0.
         24    2    5    5    0    0 -0.36246737870E+02 -0.11735867631E+03  0.13440700414E+03  0.19870407854E+03  0.79568732263E+02 0.  0.
          5    1    5    5  501    0 -0.39197689445E+02 -0.29213548014E+02 -0.32845774053E+02  0.59083205047E+02  0.47000000000E+01 0. -1.
        -11    1    6    6    0    0 -0.42759576768E+02 -0.29643035313E+02  0.23333960233E+02  0.57022492476E+02  0.00000000000E+00 0.  1.
         12    1    6    6    0    0  0.65128388988E+01 -0.87715641000E+02  0.11107304391E+03  0.14168158606E+03  0.00000000000E+00 0. -1.
         -5    1    3    3    0  503  0.57004787098E+02  0.35228409958E+02  0.53020491803E+02  0.85579490366E+02  0.47000000000E+01 0.  1.
         11    1    4    4    0    0  0.32672322551E+02  0.11751528986E+03 -0.63111708951E+02  0.13733321455E+03  0.00000000000E+00 0. -1.
        -12    1    4    4    0    0 -0.14232682335E+02 -0.61714754864E+01 -0.31263898028E+01  0.15825001400E+02  0.00000000000E+00 0.  1.
</event>
<event>
12    1  0.1046899E+000  0.8982689E+03  0.7818608E-02  0.9427871E-01
         21   -1    0    0  503  502  0.00000000000E+00  0.00000000000E+00  0.37978505047E+03  0.37978505047E+03  0.00000000000E+00 0.  1.
         21   -1    0    0  501  503 -0.00000000000E+00 -0.00000000000E+00 -0.21698587036E+04  0.21698587036E+04  0.00000000000E+00 0.  1.
          6    2    1    2  501    0  0.78692797282E+03 -0.39677549789E+03 -0.10808598762E+04  0.14051476959E+04  0.17174267176E+03 0.  0.
         24    2    3    3    0    0  0.41621921972E+03 -0.24590089318E+03 -0.50032522490E+03  0.70000182640E+03  0.77275728170E+02 0.  0.
         -6    2    1    2    0  502 -0.78692797282E+03  0.39677549789E+03 -0.70921377699E+03  0.11444960582E+04  0.17378324311E+03 0.  0.
        -24    2    5    5    0    0 -0.53578488122E+03  0.19875552808E+03 -0.42510398575E+03  0.71668158393E+03  0.79686229384E+02 0.  0.
          5    1    3    3  501    0  0.37070875310E+03 -0.15087460471E+03 -0.58053465129E+03  0.70514586953E+03  0.47000000000E+01 0. -1.
        -11    1    4    4    0    0  0.11020278233E+03 -0.94692469043E+02 -0.18565819351E+03  0.23575470672E+03  0.00000000000E+00 0.  1.
         12    1    4    4    0    0  0.30601643739E+03 -0.15120842413E+03 -0.31466703139E+03  0.46424711968E+03  0.00000000000E+00 0. -1.
         -5    1    5    5    0  502 -0.25114309160E+03  0.19801996981E+03 -0.28410979124E+03  0.42781447425E+03  0.47000000000E+01 0.  1.
         11    1    6    6    0    0 -0.25101230874E+03  0.12584227928E+03 -0.23926980030E+03  0.36890851946E+03  0.00000000000E+00 0. -1.
        -12    1    6    6    0    0 -0.28477257249E+03  0.72913248805E+02 -0.18583418544E+03  0.34777306447E+03  0.00000000000E+00 0.  1.
</event>
<event>
12    1  0.1046899E+000  0.1852307E+03  0.7818608E-02  0.1163636E+00
         21   -1    0    0  501  502  0.00000000000E+00  0.00000000000E+00  0.99526491835E+02  0.99526491835E+02  0.00000000000E+00 0. -1.
         21   -1    0    0  502  503 -0.00000000000E+00 -0.00000000000E+00 -0.79349916097E+03  0.79349916097E+03  0.00000000000E+00 0. -1.
         -6    2    1    2    0  503 -0.62254517830E+02 -0.82979851624E+01 -0.10222583912E+02  0.18551252927E+03  0.17425818703E+03 0.  0.
        -24    2    3    3    0    0 -0.47968151166E+02 -0.74421953178E+02 -0.68370699560E+01  0.11761531929E+03  0.77117100339E+02 0.  0.
          6    2    1    2  501    0  0.62254517830E+02  0.82979851624E+01 -0.68375008522E+03  0.70751312353E+03  0.17063457850E+03 0.  0.
         24    2    5    5    0    0  0.42663794327E+02 -0.56033023149E+02 -0.49413381394E+03  0.50627024686E+03  0.84743364010E+02 0.  0.
          5    1    5    5  501    0  0.19590723503E+02  0.64331008311E+02 -0.18961627128E+03  0.20124287667E+03  0.47000000000E+01 0. -1.
        -13    1    6    6    0    0  0.47858290679E+02 -0.24957811837E+01 -0.13770666100E+03  0.14580730226E+03  0.00000000000E+00 0.  1.
         14    1    6    6    0    0 -0.51944963518E+01 -0.53537241965E+02 -0.35642715294E+03  0.36046294459E+03  0.00000000000E+00 0. -1.
         -5    1    3    3    0  503 -0.14286366664E+02  0.66123968016E+02 -0.33855139558E+01  0.67897209982E+02  0.47000000000E+01 0.  1.
         13    1    4    4    0    0 -0.50973315153E+02 -0.25503486236E+02 -0.28855971877E+02  0.63885630472E+02  0.00000000000E+00 0. -1.
        -14    1    4    4    0    0  0.30051639864E+01 -0.48918466943E+02  0.22018901921E+02  0.53729688817E+02  0.00000000000E+00 0.  1.
</event>
<event>
12    1  0.1046899E+000  0.1899953E+03  0.7818608E-02  0.1159677E+00
         21   -1    0    0  501  502  0.00000000000E+00  0.00000000000E+00  0.43880621543E+03  0.43880621543E+03  0.00000000000E+00 0. -1.
         21   -1    0    0  502  503 -0.00000000000E+00 -0.00000000000E+00 -0.15278676299E+03  0.15278676299E+03  0.00000000000E+00 0. -1.
         -6    2    1    2    0  503 -0.67175218275E+02  0.37240610466E+02  0.34612006837E+03  0.39231855779E+03  0.16797433148E+03 0.  0.
        -24    2    3    3    0    0 -0.22004466038E+02  0.52731238791E+02  0.32359392528E+03  0.33931031743E+03  0.84579447660E+02 0.  0.
          6    2    1    2  501    0  0.67175218275E+02 -0.37240610466E+02 -0.60100615942E+02  0.19927442063E+03  0.17377812769E+03 0.  0.
         24    2    5    5    0    0  0.73443975201E+02 -0.81542402136E+02 -0.14122619495E+02  0.13494703753E+03  0.77253308784E+02 0.  0.
          5    1    5    5  501    0 -0.62687569258E+01  0.44301791670E+02 -0.45977996447E+02  0.64327383095E+02  0.47000000000E+01 0. -1.
        -13    1    6    6    0    0  0.49069986846E+01 -0.25666000140E+02  0.26868919642E+02  0.37480141969E+02  0.00000000000E+00 0.  1.
         14    1    6    6    0    0  0.68536976516E+02 -0.55876401996E+02 -0.40991539137E+02  0.97466895563E+02  0.00000000000E+00 0. -1.
         -5    1    3    3    0  503 -0.45170752237E+02 -0.15490628325E+02  0.22526143098E+02  0.53008240363E+02  0.47000000000E+01 0.  1.
         11    1    4    4    0    0  0.20023796356E+02 -0.56401927509E+01  0.14953685475E+03  0.15097693573E+03  0.00000000000E+00 0. -1.
        -12    1    4    4    0    0 -0.42028262395E+02  0.58371431542E+02  0.17405707053E+03  0.18833338170E+03  0.00000000000E+00 0.  1.
</event>
<event>
12    1  0.1046899E+000  0.2253938E+03  0.7818608E-02  0.1130105E+00
         21   -1    0    0  503  502  0.00000000000E+00  0.00000000000E+00  0.18234382986E+03  0.18234382986E+03  0.00000000000E+00 0. -1.
         21   -1    0    0  501  503 -0.00000000000E+00 -0.00000000000E+00 -0.37862493026E+03  0.37862493026E+03  0.00000000000E+00 0.  1.
          6    2    1    2  501    0 -0.42790499168E+02  0.13952741024E+03  0.47064851911E+02  0.22927669683E+03  0.17045168934E+03 0.  0.
         24    2    3    3    0    0 -0.78716982868E+02  0.44554421868E+02  0.10735858005E+02  0.12133010565E+03  0.80151581330E+02 0.  0.
         -6    2    1    2    0  502  0.42790499168E+02 -0.13952741024E+03 -0.24334595231E+03  0.33169206329E+03  0.17176567560E+03 0.  0.
        -24    2    5    5    0    0  0.45305857450E+02 -0.13181848947E+03 -0.98834950772E+02  0.18687744368E+03  0.75670975786E+02 0.  0.
          5    1    3    3  501    0  0.35926483700E+02  0.94972988368E+02  0.36328993906E+02  0.10794659119E+03  0.47000000000E+01 0. -1.
        -13    1    4    4    0    0 -0.49930954897E+02 -0.47584300846E+01  0.33004040470E+02  0.60041732163E+02  0.00000000000E+00 0.  1.
         14    1    4    4    0    0 -0.28786027971E+02  0.49312851953E+02 -0.22268182466E+02  0.61288373484E+02  0.00000000000E+00 0. -1.
         -5    1    5    5    0  502 -0.25153582823E+01 -0.77089207684E+01 -0.14451100154E+03  0.14481461961E+03  0.47000000000E+01 0.  1.
         13    1    6    6    0    0  0.14358611569E+02  0.47432445915E+01  0.60834313565E+00  0.15134007296E+02  0.00000000000E+00 0. -1.
        -14    1    6    6    0    0  0.30947245881E+02 -0.13656173406E+03 -0.99443293908E+02  0.17174343638E+03  0.00000000000E+00 0.  1.
</event>
<event>
12    1  0.1046899E+000  0.2857080E+03  0.7818608E-02  0.1093375E+00
         21   -1    0    0  503  502  0.00000000000E+00  0.00000000000E+00  0.69550977043E+03  0.69550977043E+03  0.00000000000E+00 0. -1.
         21   -1    0    0  501  503 -0.00000000000E+00 -0.00000000000E+00 -0.13763652655E+03  0.13763652655E+03  0.00000000000E+00 0.  1.
          6    2    1    2  501    0 -0.20190624947E+02  0.22725336098E+03  0.44535774610E+03  0.52608144071E+03  0.16237736551E+03 0.  0.
         24    2    3    3    0    0 -0.13900534034E+02  0.19425201092E+03  0.44477554949E+03  0.49215382212E+03  0.80392951242E+02 0.  0.
         -6    2    1    2    0  502  0.20190624947E+02 -0.22725336098E+03  0.11251549777E+03  0.30706485627E+03  0.17198063061E+03 0.  0.
        -24    2    5    5    0    0 -0.42053959037E+01 -0.23592175483E+03  0.72596818128E+02  0.25925379197E+03  0.79154727525E+02 0.  0.
          5    1    3    3  501    0 -0.62900909135E+01  0.33001350068E+02  0.58219660819E+00  0.33927618586E+02  0.47000000000E+01 0. -1.
        -13    1    4    4    0    0 -0.36311723073E+01  0.45290746566E+02  0.20272053063E+03  0.20774997154E+03  0.00000000000E+00 0.  1.
         14    1    4    4    0    0 -0.10269361727E+02  0.14896126435E+03  0.24205501886E+03  0.28440385058E+03  0.00000000000E+00 0. -1.
         -5    1    5    5    0  502  0.24396020851E+02  0.86683938499E+01  0.39918679646E+02  0.47811064305E+02  0.47000000000E+01 0.  1.
         13    1    6    6    0    0  0.84068395627E+01 -0.12494271657E+03  0.77824438684E+02  0.14743812476E+03  0.00000000000E+00 0. -1.
        -14    1    6    6    0    0 -0.12612235466E+02 -0.11097903826E+03 -0.52276205566E+01  0.11181566721E+03  0.00000000000E+00 0.  1.
</event>
<event>
12    1  0.1046899E+000  0.2083058E+03  0.7818608E-02  0.1143881E+00
         21   -1    0    0  503  502  0.00000000000E+00  0.00000000000E+00  0.55171492010E+02  0.55171492010E+02  0.00000000000E+00 0.  1.
         21   -1    0    0  501  503 -0.00000000000E+00 -0.00000000000E+00 -0.93229894240E+03  0.93229894240E+03  0.00000000000E+00 0.  1.
          6    2    1    2  501    0 -0.11181218507E+03  0.32508253400E+02 -0.22748722964E+03  0.30525072093E+03  0.16693954506E+03 0.  0.
         24    2    3    3    0    0 -0.23483563993E+02  0.47475284091E+02 -0.55038744665E+02  0.11086315116E+03  0.80349203439E+02 0.  0.
         -6    2    1    2    0  502  0.11181218507E+03 -0.32508253400E+02 -0.64964022074E+03  0.68221971348E+03  0.17272107510E+03 0.  0.
        -24    2    5    5    0    0  0.64145102862E+02  0.36879478294E+02 -0.48699167707E+03  0.49901641985E+03  0.79886191600E+02 0.  0.
          5    1    3    3  501    0 -0.88328621077E+02 -0.14967030691E+02 -0.17244848498E+03  0.19438756977E+03  0.47000000000E+01 0. -1.
        -11    1    4    4    0    0  0.54826570930E+01 -0.18174390438E+02 -0.28732197259E+02  0.34437002714E+02  0.00000000000E+00 0.  1.
         12    1    4    4    0    0 -0.28966221086E+02  0.65649674529E+02 -0.26306547407E+02  0.76426148446E+02  0.00000000000E+00 0. -1.
         -5    1    5    5    0  502  0.47667082208E+02 -0.69387731694E+02 -0.16264854367E+03  0.18320329363E+03  0.47000000000E+01 0.  1.
         13    1    6    6    0    0  0.34781102926E+02 -0.19393035724E+02 -0.27037048822E+03  0.27328742352E+03  0.00000000000E+00 0. -1.
        -14    1    6    6    0    0  0.29363999936E+02  0.56272514018E+02 -0.21662118885E+03  0.22572899633E+03  0.00000000000E+00 0.  1.
</event>
<event>
12    1  0.1046899E+000  0.2586122E+03  0.7818608E-02  0.1108451E+00
         21   -1    0    0  501  502  0.00000000000E+00  0.00000000000E+00  0.87398064165E+03  0.87398064165E+03  0.00000000000E+00 0.  1.
         21   -1    0    0  502  503 -0.00000000000E+00 -0.00000000000E+00 -0.98810844524E+02  0.98810844524E+02  0.00000000000E+00 0.  1.
         -6    2    1    2    0  503 -0.55861064697E+02  0.18469061764E+03  0.62148392551E+03  0.67195990418E+03  0.16750152348E+03 0.  0.
        -24    2    3    3    0    0 -0.90642996945E+01  0.21716136489E+02  0.25247195023E+03  0.26582871033E+03  0.79806424983E+02 0.  0.
          6    2    1    2  501    0  0.55861064697E+02 -0.18469061764E+03  0.15368587162E+03  0.30083158200E+03  0.17218946193E+03 0.  0.
         24    2    5    5    0    0  0.45887885156E+02 -0.30493903939E+02  0.90872447065E+02  0.13396724449E+03  0.81571102604E+02 0.  0.
          5    1    5    5  501    0  0.99731795411E+01 -0.15419671370E+03  0.62813424554E+02  0.16686433750E+03  0.47000000000E+01 0. -1.
        -11    1    6    6    0    0 -0.21908212222E+02 -0.14169795277E+02  0.39559633017E+02  0.47389001102E+02  0.00000000000E+00 0.  1.
         12    1    6    6    0    0  0.67796097378E+02 -0.16324108662E+02  0.51312814047E+02  0.86578243392E+02  0.00000000000E+00 0. -1.
         -5    1    3    3    0  503 -0.46796765002E+02  0.16297448115E+03  0.36901197528E+03  0.40613119385E+03  0.47000000000E+01 0.  1.
         13    1    4    4    0    0  0.24908537292E+01  0.47354048337E+02  0.20701271417E+03  0.21237437245E+03  0.00000000000E+00 0. -1.
        -14    1    4    4    0    0 -0.11555153424E+02 -0.25637911848E+02  0.45459236058E+02  0.53454337874E+02  0.00000000000E+00 0.  1.
</event>
<event>
12    1  0.1046899E+000  0.2158768E+03  0.7818608E-02  0.1137113E+00
         21   -1    0    0  501  502  0.00000000000E+00  0.00000000000E+00  0.26485300605E+03  0.26485300605E+03  0.00000000000E+00 0.  1.
         21   -1    0    0  502  503 -0.00000000000E+00 -0.00000000000E+00 -0.18512653324E+03  0.18512653324E+03  0.00000000000E+00 0.  1.
         -6    2    1    2    0  503  0.12340361552E+02 -0.13025035669E+03 -0.11617781858E+02  0.21557268303E+03  0.17093615437E+03 0.  0.
        -24    2    3    3    0    0 -0.28907984494E+02 -0.14714922562E+03 -0.10971946269E+02  0.17074518114E+03  0.80900971007E+02 0.  0.
          6    2    1    2  501    0 -0.12340361552E+02  0.13025035669E+03  0.91344254667E+02  0.23440685626E+03  0.17171302065E+03 0.  0.
         24    2    5    5    0    0 -0.35643062871E+02  0.54812155364E+02  0.11308936001E+03  0.15237711949E+03  0.78452424373E+02 0.  0.
          5    1    5    5  501    0  0.23302701319E+02  0.75438201331E+02 -0.21745105342E+02  0.82029736774E+02  0.47000000000E+01 0. -1.
        -11    1    6    6    0    0 -0.53409544425E+02  0.10829196978E+02  0.55772848567E+02  0.77977314522E+02  0.00000000000E+00 0.  1.
         12    1    6    6    0    0  0.17766481553E+02  0.43982958386E+02  0.57316511442E+02  0.74399804966E+02  0.00000000000E+00 0. -1.
         -5    1    3    3    0  503  0.41248346045E+02  0.16898868924E+02 -0.64583558960E+00  0.44827501893E+02  0.47000000000E+01 0.  1.
         13    1    4    4    0    0 -0.94031968181E+01 -0.94416098422E+02  0.31832821955E+02  0.10008070896E+03  0.00000000000E+00 0. -1.
        -14    1    4    4    0    0 -0.19504787675E+02 -0.52733127196E+02 -0.42804768224E+02  0.70664472183E+02  0.00000000000E+00 0.  1.
</event>
<event>
12    1  0.1046899E+000  0.1878777E+03  0.7818608E-02  0.1160483E+00
         21   -1    0    0  501  502  0.00000000000E+00  0.00000000000E+00  0.15416882809E+03  0.15416882809E+03  0.00000000000E+00 0. -1.
         21   -1    0    0  502  503 -0.00000000000E+00 -0.00000000000E+00 -0.22845791964E+03  0.22845791964E+03  0.00000000000E+00 0. -1.
         -6    2    1    2    0  503  0.64857240183E+02 -0.37957903693E+02 -0.36897663684E+02  0.19106435206E+03  0.17174657197E+03 0.  0.
        -24    2    3    3    0    0  0.23459079576E+02 -0.60202545843E+02  0.32304152326E+02  0.10728122043E+03  0.79315994976E+02 0.  0.
          6    2    1    2  501    0 -0.64857240183E+02  0.37957903693E+02 -0.37391427862E+02  0.19156239567E+03  0.17219398508E+03 0.  0.
         24    2    5    5    0    0 -0.15108465882E+02  0.85942783394E+02 -0.19606186090E+02  0.12003691734E+03  0.80062670662E+02 0.  0.
          5    1    5    5  501    0 -0.49748774302E+02 -0.47984879700E+02 -0.17785241772E+02  0.71525478323E+02  0.47000000000E+01 0. -1.
        -13    1    6    6    0    0 -0.41544756220E+02  0.73023129869E+02  0.11611222966E+01  0.84021976115E+02  0.00000000000E+00 0.  1.
         14    1    6    6    0    0  0.26436290339E+02  0.12919653524E+02 -0.20767308387E+02  0.36014941228E+02  0.00000000000E+00 0. -1.
         -5    1    3    3    0  503  0.41398160607E+02  0.22244642150E+02 -0.69201816010E+02  0.83783131626E+02  0.47000000000E+01 0.  1.
         13    1    4    4    0    0  0.21078604657E+01  0.60454046493E+01 -0.19494251307E+02  0.20518670209E+02  0.00000000000E+00 0. -1.
        -14    1    4    4    0    0  0.21351219111E+02 -0.66247950492E+02  0.51798403633E+02  0.86762550221E+02  0.00000000000E+00 0.  1.
</event>
<event>
12    1  0.1046899E+000  0.1914616E+03  0.7818608E-02  0.1157803E+00
         21   -1    0    0  503  502  0.00000000000E+00  0.00000000000E+00  0.70363798867E+02  0.70363798867E+02  0.00000000000E+00 0.  1.
         21   -1    0    0  501  503 -0.00000000000E+00 -0.00000000000E+00 -0.52420583695E+03  0.52420583695E+03  0.00000000000E+00 0.  1.
          6    2    1    2  501    0 -0.75749846348E+02  0.66537988662E+01 -0.26847937973E+03  0.32807976864E+03  0.17254809472E+03 0.  0.
         24    2    3    3    0    0 -0.55458303130E+02  0.37347893429E+02 -0.64848776884E+02  0.12109815935E+03  0.77388059841E+02 0.  0.
         -6    2    1    2    0  502  0.75749846348E+02 -0.66537988662E+01 -0.18536265835E+03  0.26648986717E+03  0.17571346543E+03 0.  0.
        -24    2    5    5    0    0  0.35552698822E+02 -0.56743994957E+02 -0.48978127085E+02  0.11566656399E+03  0.80597901563E+02 0.  0.
          5    1    3    3  501    0 -0.20291543218E+02 -0.30694094563E+02 -0.20363060285E+03  0.20698160929E+03  0.47000000000E+01 0. -1.
        -11    1    4    4    0    0 -0.34513159072E+02 -0.60252732200E+01 -0.63956886314E+02  0.72924244072E+02  0.00000000000E+00 0.  1.
         12    1    4    4    0    0 -0.20945144059E+02  0.43373166649E+02 -0.89189056965E+00  0.48173915282E+02  0.00000000000E+00 0. -1.
         -5    1    5    5    0  502  0.40197147526E+02  0.50090196090E+02 -0.13638453126E+03  0.15082330318E+03  0.47000000000E+01 0.  1.
         13    1    6    6    0    0  0.51036452909E+02 -0.57166560140E+01 -0.21446694467E+02  0.55653934139E+02  0.00000000000E+00 0. -1.
        -14    1    6    6    0    0 -0.15483754087E+02 -0.51027338943E+02 -0.27531432618E+02  0.60012629856E+02  0.00000000000E+00 0.  1.
</event>
<event>
12    1  0.1046899E+000  0.1770225E+03  0.7818608E-02  0.1171306E+00
         21   -1    0    0  503  502  0.00000000000E+00  0.00000000000E+00  0.19218864048E+02  0.19218864048E+02  0.00000000000E+00 0.  1.
         21   -1    0    0  501  503 -0.00000000000E+00 -0.00000000000E+00 -0.16541704492E+04  0.16541704492E+04  0.00000000000E+00 0.  1.
          6    2    1    2  501    0 -0.33253523817E+02 -0.12060945488E+00 -0.67352649454E+03  0.69580292061E+03  0.17145831589E+03 0.  0.
         24    2    3    3    0    0  0.43354801658E+02 -0.24971697778E+02 -0.35998736088E+03  0.37205102416E+03  0.79547721921E+02 0.  0.
         -6    2    1    2    0  502  0.33253523817E+02  0.12060945488E+00 -0.96142509060E+03  0.97758639263E+03  0.17387104078E+03 0.  0.
        -24    2    5    5    0    0  0.66523580767E+02 -0.38226330898E+02 -0.81697301648E+03  0.82440063532E+03  0.79403140306E+02 0.  0.
          5    1    3    3  501    0 -0.76608325475E+02  0.24851088324E+02 -0.31353913365E+03  0.32375189645E+03  0.47000000000E+01 0. -1.
        -11    1    4    4    0    0 -0.68352310003E+01 -0.29721718228E+02 -0.23961087509E+03  0.24154393468E+03  0.00000000000E+00 0.  1.
         12    1    4    4    0    0  0.50190032658E+02  0.47500204494E+01 -0.12037648579E+03  0.13050708948E+03  0.00000000000E+00 0. -1.
         -5    1    5    5    0  502 -0.33270056950E+02  0.38346940353E+02 -0.14445207412E+03  0.15318575731E+03  0.47000000000E+01 0.  1.
         13    1    6    6    0    0  0.81507465191E+02 -0.16843261722E+02 -0.56863605667E+03  0.57469481230E+03  0.00000000000E+00 0. -1.
        -14    1    6    6    0    0 -0.14983884424E+02 -0.21383069176E+02 -0.24833695982E+03  0.24970582302E+03  0.00000000000E+00 0.  1.
</event>
<event>
12    1  0.1046899E+000  0.1738013E+03  0.7818608E-02  0.1174237E+00
         21   -1    0    0  501  502  0.00000000000E+00  0.00000000000E+00  0.20900807876E+03  0.20900807876E+03  0.00000000000E+00 0. -1.
         21   -1    0    0  502  503 -0.00000000000E+00 -0.00000000000E+00 -0.15848230937E+03  0.15848230937E+03  0.00000000000E+00 0. -1.
         -6    2    1    2    0  503  0.12202883389E+01 -0.24500774611E+02  0.81724994313E+02  0.19205690716E+03  0.17206133741E+03 0.  0.
        -24    2    3    3    0    0  0.23852875846E+02 -0.52144569054E+02  0.10854382860E+03  0.14713749865E+03  0.81115134303E+02 0.  0.
          6    2    1    2  501    0 -0.12202883389E+01  0.24500774611E+02 -0.31199224926E+02  0.17543348097E+03  0.17088515895E+03 0.  0.
         24    2    5    5    0    0 -0.29263055149E+02 -0.69100912287E+00  0.40076589295E+02  0.94666195318E+02  0.80614835088E+02 0.  0.
          5    1    5    5  501    0  0.28042766810E+02  0.25191783734E+02 -0.71275814221E+02  0.80767285648E+02  0.47000000000E+01 0. -1.
        -13    1    6    6    0    0  0.72144502422E+01 -0.15523132137E+02 -0.17779831241E+02  0.24680727757E+02  0.00000000000E+00 0.  1.
         14    1    6    6    0    0 -0.36477505391E+02  0.14832123015E+02  0.57856420535E+02  0.69985467562E+02  0.00000000000E+00 0. -1.
         -5    1    3    3    0  503 -0.22632587507E+02  0.27643794443E+02 -0.26818834288E+02  0.44919408512E+02  0.47000000000E+01 0.  1.
         13    1    4    4    0    0  0.49252021260E+02 -0.51196284967E+02  0.62858667424E+02  0.94857963624E+02  0.00000000000E+00 0. -1.
        -14    1    4    4    0    0 -0.25399145414E+02 -0.94828408667E+00  0.45685161177E+02  0.52279535024E+02  0.00000000000E+00 0.  1.
</event>
<event>
12    1  0.1046899E+000  0.2369661E+03  0.7818608E-02  0.1122068E+00
         21   -1    0    0  501  502  0.00000000000E+00  0.00000000000E+00  0.79509532605E+03  0.79509532605E+03  0.00000000000E+00 0.  1.
         21   -1    0    0  502  503 -0.00000000000E+00 -0.00000000000E+00 -0.84065304167E+02  0.84065304167E+02  0.00000000000E+00 0.  1.
         -6    2    1    2    0  503 -0.54225133390E+01 -0.16400856413E+03  0.53310502912E+03  0.58283273809E+03  0.16901128884E+03 0.  0.
        -24    2    3    3    0    0 -0.41300380480E+02 -0.13236973564E+03  0.25369883085E+03  0.29932233184E+03  0.77480921673E+02 0.  0.
          6    2    1    2  501    0  0.54225133390E+01  0.16400856413E+03  0.17792499276E+03  0.29632789213E+03  0.17095234378E+03 0.  0.
         24    2    5    5    0    0 -0.41154044909E+02  0.16685798704E+03  0.15194904751E+03  0.24271506977E+03  0.79289651294E+02 0.  0.
          5    1    5    5  501    0  0.46576558248E+02 -0.28494229132E+01  0.25975945257E+02  0.53612822358E+02  0.47000000000E+01 0. -1.
        -13    1    6    6    0    0 -0.42564144804E+02  0.29306434966E+02  0.39552832782E+02  0.65076878647E+02  0.00000000000E+00 0.  1.
         14    1    6    6    0    0  0.14100998952E+01  0.13755155208E+03  0.11239621472E+03  0.17763819112E+03  0.00000000000E+00 0. -1.
         -5    1    3    3    0  503  0.35877867141E+02 -0.31638828491E+02  0.27940619827E+03  0.28351040624E+03  0.47000000000E+01 0.  1.
         13    1    4    4    0    0 -0.14543062952E+02 -0.10554635647E+03  0.12053364990E+03  0.16087229346E+03  0.00000000000E+00 0. -1.
        -14    1    4    4    0    0 -0.26757317528E+02 -0.26823379171E+02  0.13316518095E+03  0.13845003838E+03  0.00000000000E+00 0.  1.
</event>
<event>
12    1  0.1046899E+000  0.1827427E+03  0.7818608E-02  0.1165414E+00
         21   -1    0    0  503  502  0.00000000000E+00  0.00000000000E+00  0.79794043538E+03  0.79794043538E+03  0.00000000000E+00 0. -1.
         21   -1    0    0  501  503 -0.00000000000E+00 -0.00000000000E+00 -0.70928814072E+02  0.70928814072E+02  0.00000000000E+00 0. -1.
          6    2    1    2  501    0 -0.43312930079E+02  0.36095255169E+02  0.64217143646E+03  0.66739282530E+03  0.17277196563E+03 0.  0.
         24    2    3    3    0    0 -0.35364947793E+02 -0.30354101851E+01  0.60904223915E+03  0.61529663439E+03  0.79985035952E+02 0.  0.
         -6    2    1    2    0  502  0.43312930079E+02 -0.36095255169E+02  0.84840184847E+02  0.20147642414E+03  0.17382754432E+03 0.  0.
        -24    2    5    5    0    0  0.20464291459E+02  0.10136630135E+01 -0.24816477513E+02  0.83384063276E+02  0.76923531605E+02 0.  0.
          5    1    3    3  501    0 -0.79479822850E+01  0.39130665354E+02  0.33129197306E+02  0.52096190912E+02  0.47000000000E+01 0. -1.
        -11    1    4    4    0    0 -0.39776996050E+02  0.23807566188E+02  0.52314140082E+03  0.52519133168E+03  0.00000000000E+00 0.  1.
         12    1    4    4    0    0  0.44120482562E+01 -0.26842976373E+02  0.85900838331E+02  0.90105302710E+02  0.00000000000E+00 0. -1.
         -5    1    5    5    0  502  0.22848638620E+02 -0.37108918183E+02  0.10965666236E+03  0.11809236087E+03  0.47000000000E+01 0.  1.
         13    1    6    6    0    0 -0.21964286331E+02  0.87964904451E+01  0.12129556694E+02  0.26588235439E+02  0.00000000000E+00 0. -1.
        -14    1    6    6    0    0  0.42428577789E+02 -0.77828274316E+01 -0.36946034207E+02  0.56795827837E+02  0.00000000000E+00 0.  1.
</event>
<event>
12    1  0.1046899E+000  0.7151125E+03  0.7818608E-02  0.9692071E-01
         21   -1    0    0  503  502  0.00000000000E+00  0.00000000000E+00  0.27949638583E+04  0.27949638583E+04  0.00000000000E+00 0.  1.
         21   -1    0    0  501  503 -0.00000000000E+00 -0.00000000000E+00 -0.20003455326E+03  0.20003455326E+03  0.00000000000E+00 0. -1.
          6    2    1    2  501    0  0.19175223537E+03 -0.66717858648E+03  0.85805531940E+03  0.11169802334E+04  0.17172572478E+03 0.  0.
         24    2    3    3    0    0  0.18020271539E+03 -0.67165053652E+03  0.85129760843E+03  0.11021092412E+04  0.79685002846E+02 0.  0.
         -6    2    1    2    0  502 -0.19175223537E+03  0.66717858648E+03  0.17368739857E+04  0.18780181782E+04  0.16829987998E+03 0.  0.
        -24    2    5    5    0    0 -0.21607923709E+03  0.59164616446E+03  0.15248608745E+04  0.16515924750E+04  0.76299384938E+02 0.  0.
          5    1    3    3  501    0  0.11549519980E+02  0.44719500455E+01  0.67577109715E+01  0.14870992117E+02  0.47000000000E+01 0. -1.
        -11    1    4    4    0    0  0.11928367304E+03 -0.41748128459E+03  0.47030605879E+03  0.64008359342E+03  0.00000000000E+00 0.  1.
         12    1    4    4    0    0  0.60919042349E+02 -0.25416925193E+03  0.38099154964E+03  0.46202564782E+03  0.00000000000E+00 0. -1.
         -5    1    5    5    0  502  0.24327001719E+02  0.75532422018E+02  0.21201311117E+03  0.22642570326E+03  0.47000000000E+01 0.  1.
         13    1    6    6    0    0 -0.27998683926E+02  0.47270304300E+02  0.89868195953E+02  0.10533138475E+03  0.00000000000E+00 0. -1.
        -14    1    6    6    0    0 -0.18808055316E+03  0.54437586016E+03  0.14349926786E+04  0.15462610902E+04  0.00000000000E+00 0.  1.
</event>
<event>
12    1  0.1046899E+000  0.1838474E+03  0.7818608E-02  0.1164680E+00
         21   -1    0    0  503  502  0.00000000000E+00  0.00000000000E+00  0.10382490414E+04  0.10382490414E+04  0.00000000000E+00 0. -1.
         21   -1    0    0  501  503 -0.00000000000E+00 -0.00000000000E+00 -0.60460612406E+02  0.60460612406E+02  0.00000000000E+00 0. -1.
          6    2    1    2  501    0  0.40708522913E+02  0.44954313011E+02  0.86648222309E+03  0.88577158555E+03  0.17355628693E+03 0.  0.
         24    2    3    3    0    0  0.52839613202E+02  0.59277413133E+02  0.85667499819E+03  0.86407858647E+03  0.80211686437E+02 0.  0.
         -6    2    1    2    0  502 -0.40708522913E+02 -0.44954313011E+02  0.11130620595E+03  0.21293806830E+03  0.17110077544E+03 0.  0.
        -24    2    5    5    0    0 -0.31841760943E+02  0.44637903041E+02  0.50710042614E+02  0.10431316483E+03  0.72823676138E+02 0.  0.
          5    1    3    3  501    0 -0.12131090288E+02 -0.14323100122E+02  0.98072249023E+01  0.21692999077E+02  0.47000000000E+01 0. -1.
        -13    1    4    4    0    0  0.32748611796E+01 -0.13421811548E+02  0.31509079626E+03  0.31539353136E+03  0.00000000000E+00 0.  1.
         14    1    4    4    0    0  0.49564752022E+02  0.72699224681E+02  0.54158420193E+03  0.54868505511E+03  0.00000000000E+00 0. -1.
         -5    1    5    5    0  502 -0.88667619705E+01 -0.89592216052E+02  0.60596163332E+02  0.10862490348E+03  0.47000000000E+01 0.  1.
         11    1    6    6    0    0 -0.92711661430E+01  0.33712908793E+01 -0.18304996005E+02  0.20794061715E+02  0.00000000000E+00 0. -1.
        -12    1    6    6    0    0 -0.22570594800E+02  0.41266612161E+02  0.69015038620E+02  0.83519103112E+02  0.00000000000E+00 0.  1.
</event>
<event>
12    1  0.1046899E+000  0.2171236E+03  0.7818608E-02  0.1136248E+00
         21   -1    0    0  501  502  0.00000000000E+00  0.00000000000E+00  0.10944855563E+04  0.10944855563E+04  0.00000000000E+00 0. -1.
         21   -1    0    0  502  503 -0.00000000000E+00 -0.00000000000E+00 -0.57845006277E+02  0.57845006277E+02  0.00000000000E+00 0. -1.
         -6    2    1    2    0  503 -0.67825206576E+02 -0.11169394160E+03  0.22415213905E+03  0.31133110104E+03  0.17206707355E+03 0.  0.
        -24    2    3    3    0    0 -0.38664081405E+02 -0.48891281009E+01  0.16266977883E+03  0.18460379528E+03  0.78091545782E+02 0.  0.
          6    2    1    2  501    0  0.67825206576E+02  0.11169394160E+03  0.81248841094E+03  0.84099946150E+03  0.17339804235E+03 0.  0.
         24    2    5    5    0    0  0.38663473416E+02  0.14671049434E+03  0.65610607886E+03  0.67804520585E+03  0.79065043724E+02 0.  0.
          5    1    5    5  501    0  0.29161733160E+02 -0.35016552733E+02  0.15638233208E+03  0.16295425564E+03  0.47000000000E+01 0. -1.
        -11    1    6    6    0    0 -0.25442283856E+01  0.77158331746E+02  0.19180175301E+03  0.20675539585E+03  0.00000000000E+00 0.  1.
         12    1    6    6    0    0  0.41207701802E+02  0.69552162589E+02  0.46430432585E+03  0.47128981000E+03  0.00000000000E+00 0. -1.
         -5    1    3    3    0  503 -0.29161125171E+02 -0.10680481350E+03  0.61482360224E+02  0.12672730577E+03  0.47000000000E+01 0.  1.
         13    1    4    4    0    0 -0.36541639186E+02 -0.31264913638E+02  0.14504650566E+03  0.15281123985E+03  0.00000000000E+00 0. -1.
        -14    1    4    4    0    0 -0.21224422182E+01  0.26375785538E+02  0.17623273167E+02  0.31792555431E+02  0.00000000000E+00 0.  1.
</event>
<event>
12    1  0.1046899E+000  0.3478493E+03  0.7818608E-02  0.1063518E+00
         21   -1    0    0  501  502  0.00000000000E+00  0.00000000000E+00  0.44519473989E+03  0.44519473989E+03  0.00000000000E+00 0.  1.
         21   -1    0    0  502  503 -0.00000000000E+00 -0.00000000000E+00 -0.28818992084E+03  0.28818992084E+03  0.00000000000E+00 0. -1.
         -6    2    1    2    0  503 -0.25705163066E+03  0.15941073676E+03  0.16629532871E+03  0.38541128601E+03  0.17146544613E+03 0.  0.
        -24    2    3    3    0    0 -0.16725247325E+03  0.90827690887E+02  0.30864198765E+02  0.20897091702E+03  0.80580308723E+02 0.  0.
          6    2    1    2  501    0  0.25705163066E+03 -0.15941073676E+03 -0.92905096634E+01  0.34797337472E+03  0.17179008157E+03 0.  0.
         24    2    5    5    0    0  0.78148893072E+02 -0.98048197556E+02 -0.44200088006E+02  0.15558751403E+03  0.80827768798E+02 0.  0.
          5    1    5    5  501    0  0.17890273759E+03 -0.61362539200E+02  0.34909578343E+02  0.19238586069E+03  0.47000000000E+01 0. -1.
        -13    1    6    6    0    0  0.61787906201E+02 -0.30148652750E+02  0.68286227442E+01  0.69089193829E+02  0.00000000000E+00 0.  1.
         14    1    6    6    0    0  0.16360986872E+02 -0.67899544806E+02 -0.51028710750E+02  0.86498320198E+02  0.00000000000E+00 0. -1.
         -5    1    3    3    0  503 -0.89799157407E+02  0.68583045869E+02  0.13543112994E+03  0.17644036899E+03  0.47000000000E+01 0.  1.
         11    1    4    4    0    0 -0.31600958682E+02  0.22364296009E+02 -0.26105011733E+02  0.46693189688E+02  0.00000000000E+00 0. -1.
        -12    1    4    4    0    0 -0.13565151457E+03  0.68463394878E+02  0.56969210498E+02  0.16227772733E+03  0.00000000000E+00 0.  1.
</event>
<event>
12    1  0.1046899E+000  0.2087616E+03  0.7818608E-02  0.1143041E+00
         21   -1    0    0  501  502  0.00000000000E+00  0.00000000000E+00  0.69795834184E+02  0.69795834184E+02  0.00000000000E+00 0. -1.
         21   -1    0    0  502  503 -0.00000000000E+00 -0.00000000000E+00 -0.62623574626E+03  0.62623574626E+03  0.00000000000E+00 0. -1.
         -6    2    1    2    0  503 -0.11602382965E+03  0.99822794677E+01 -0.32180011139E+03  0.38358402320E+03  0.17326343010E+03 0.  0.
        -24    2    3    3    0    0 -0.46601475386E+02  0.23766219602E+02 -0.68779232497E+02  0.12080823391E+03  0.84424616409E+02 0.  0.
          6    2    1    2  501    0  0.11602382965E+03 -0.99822794677E+01 -0.23463980069E+03  0.31244755725E+03  0.17031284454E+03 0.  0.
         24    2    5    5    0    0 -0.79953600194E+01  0.92109472038E+01 -0.89059180433E+02  0.12018485585E+03  0.79775275782E+02 0.  0.
          5    1    5    5  501    0  0.12401918967E+03 -0.19193226672E+02 -0.14558062026E+03  0.19226270140E+03  0.47000000000E+01 0. -1.
        -11    1    6    6    0    0  0.24552538078E+02  0.14641814057E+02 -0.38944954840E+01  0.28850943486E+02  0.00000000000E+00 0.  1.
         12    1    6    6    0    0 -0.32547898097E+02 -0.54308668531E+01 -0.85164684949E+02  0.91333912364E+02  0.00000000000E+00 0. -1.
         -5    1    3    3    0  503 -0.69422354264E+02 -0.13783940134E+02 -0.25302087889E+03  0.26277578928E+03  0.47000000000E+01 0.  1.
         13    1    4    4    0    0 -0.64942756804E+02 -0.10790840407E+01 -0.60669608370E+02  0.88879285908E+02  0.00000000000E+00 0. -1.
        -14    1    4    4    0    0  0.18341281419E+02  0.24845303643E+02 -0.81096241270E+01  0.31928948004E+02  0.00000000000E+00 0.  1.
</event>
<event>
12    1  0.1046899E+000  0.2627246E+03  0.7818608E-02  0.1106223E+00
         21   -1    0    0  503  502  0.00000000000E+00  0.00000000000E+00  0.16239401218E+03  0.16239401218E+03  0.00000000000E+00 0.  1.
         21   -1    0    0  501  503 -0.00000000000E+00 -0.00000000000E+00 -0.45852834884E+03  0.45852834884E+03  0.00000000000E+00 0.  1.
          6    2    1    2  501    0  0.17365747003E+03  0.84587362426E+02 -0.24221042450E+03  0.35733752936E+03  0.17807942434E+03 0.  0.
         24    2    3    3    0    0  0.10480816535E+03  0.23998022084E+02 -0.22815657914E+03  0.26443491644E+03  0.79433896037E+02 0.  0.
         -6    2    1    2    0  502 -0.17365747003E+03 -0.84587362426E+02 -0.53923912162E+02  0.26358483166E+03  0.17104746826E+03 0.  0.
        -24    2    5    5    0    0 -0.17094934201E+03 -0.69594875447E+02 -0.92939953764E+02  0.22143687649E+03  0.79557092964E+02 0.  0.
          5    1    3    3  501    0  0.68849304683E+02  0.60589340342E+02 -0.14053845357E+02  0.92902612922E+02  0.47000000000E+01 0. -1.
        -11    1    4    4    0    0  0.57363093729E+02 -0.95025066451E+00 -0.43060573812E+02  0.71733120074E+02  0.00000000000E+00 0.  1.
         12    1    4    4    0    0  0.47445071622E+02  0.24948272749E+02 -0.18509600533E+03  0.19270179637E+03  0.00000000000E+00 0. -1.
         -5    1    5    5    0  502 -0.27081280249E+01 -0.14992486980E+02  0.39016041603E+02  0.42147955177E+02  0.47000000000E+01 0.  1.
         11    1    6    6    0    0  0.62251568740E+01  0.53383993712E+01 -0.11159239035E+01  0.82762535069E+01  0.00000000000E+00 0. -1.
        -12    1    6    6    0    0 -0.17717449888E+03 -0.74933274818E+02 -0.91824029861E+02  0.21316062298E+03  0.00000000000E+00 0.  1.
</event>
<event>
12    1  0.1046899E+000  0.1837921E+03  0.7818608E-02  0.1164944E+00
         21   -1    0    0  503  502  0.00000000000E+00  0.00000000000E+00  0.92339258006E+03  0.92339258006E+03  0.00000000000E+00 0. -1.
         21   -1    0    0  501  503 -0.00000000000E+00 -0.00000000000E+00 -0.42345987244E+02  0.42345987244E+02  0.00000000000E+00 0. -1.
          6    2    1    2  501    0  0.48665014481E+02 -0.46746096025E+02  0.62493599015E+03  0.65050504602E+03  0.16750624463E+03 0.  0.
         24    2    3    3    0    0 -0.20432622331E+01  0.26524527091E+02  0.39491528657E+03  0.40378348714E+03  0.79845447384E+02 0.  0.
         -6    2    1    2    0  502 -0.48665014481E+02  0.46746096025E+02  0.25611060266E+03  0.31523352128E+03  0.17095628392E+03 0.  0.
        -24    2    5    5    0    0  0.29877858080E+02  0.57004156115E+02  0.16419908769E+03  0.19380853533E+03  0.80363223875E+02 0.  0.
          5    1    3    3  501    0  0.50708276714E+02 -0.73270623115E+02  0.23002070358E+03  0.24672155888E+03  0.47000000000E+01 0. -1.
        -11    1    4    4    0    0 -0.40463330875E+02  0.19288723986E+02  0.22605027838E+03  0.23045186998E+03  0.00000000000E+00 0.  1.
         12    1    4    4    0    0  0.38420068642E+02  0.72358031047E+01  0.16886500819E+03  0.17333161717E+03  0.00000000000E+00 0. -1.
         -5    1    5    5    0  502 -0.78542872562E+02 -0.10258060090E+02  0.91911514971E+02  0.12142498594E+03  0.47000000000E+01 0.  1.
         13    1    6    6    0    0  0.16919982134E+02 -0.13780302946E+02  0.10753658060E+02  0.24327427040E+02  0.00000000000E+00 0. -1.
        -14    1    6    6    0    0  0.12957875946E+02  0.70784459061E+02  0.15344542963E+03  0.16948110829E+03  0.00000000000E+00 0.  1.
</event>
<event>
12    1  0.1046899E+000  0.2359883E+03  0.7818608E-02  0.1122497E+00
         21   -1    0    0  503  502  0.00000000000E+00  0.00000000000E+00  0.28433893674E+02  0.28433893674E+02  0.00000000000E+00 0.  1.
         21   -1    0    0  501  503 -0.00000000000E+00 -0.00000000000E+00 -0.20485408800E+04  0.20485408800E+04  0.00000000000E+00 0.  1.
          6    2    1    2  501    0 -0.91037396780E+02 -0.13279617193E+03 -0.79233411301E+03  0.82673081875E+03  0.17253367540E+03 0.  0.
         24    2    3    3    0    0 -0.30512386884E+02 -0.10000475030E+03 -0.26982323071E+03  0.29968407863E+03  0.77935969334E+02 0.  0.
         -6    2    1    2    0  502  0.91037396780E+02  0.13279617193E+03 -0.12277728733E+04  0.12502439549E+04  0.17251402108E+03 0.  0.
        -24    2    5    5    0    0  0.50805158234E+02  0.15859672536E+03 -0.87983895825E+03  0.89901126733E+03  0.79815919083E+02 0.  0.
          5    1    3    3  501    0 -0.60525009896E+02 -0.32791421629E+02 -0.52251088230E+03  0.52704674012E+03  0.47000000000E+01 0. -1.
        -11    1    4    4    0    0 -0.61293218304E+01 -0.47580304878E+02 -0.21401529184E+03  0.21932623905E+03  0.00000000000E+00 0.  1.
         12    1    4    4    0    0 -0.24383065053E+02 -0.52424445426E+02 -0.55807938875E+02  0.80357839574E+02  0.00000000000E+00 0. -1.
         -5    1    5    5    0  502  0.40232238546E+02 -0.25800553427E+02 -0.34793391505E+03  0.35123268757E+03  0.47000000000E+01 0.  1.
         13    1    6    6    0    0  0.17168636174E+02  0.14655048392E+03 -0.74814911974E+03  0.76256075939E+03  0.00000000000E+00 0. -1.
        -14    1    6    6    0    0  0.33636522059E+02  0.12046241442E+02 -0.13168983851E+03  0.13645050794E+03  0.00000000000E+00 0.  1.
</event>
<event>
12    1  0.1046899E+000  0.2671259E+03  0.7818608E-02  0.1103689E+00
         21   -1    0    0  501  502  0.00000000000E+00  0.00000000000E+00  0.11911728836E+03  0.11911728836E+03  0.00000000000E+00 0.  1.
         21   -1    0    0  502  503 -0.00000000000E+00 -0.00000000000E+00 -0.78952991370E+03  0.78952991370E+03  0.00000000000E+00 0.  1.
         -6    2    1    2    0  503  0.94792381310E+02  0.17350332013E+03 -0.56739563374E+03  0.62713158794E+03  0.17963080403E+03 0.  0.
        -24    2    3    3    0    0  0.13121065809E+03  0.12871355517E+03 -0.36223391036E+03  0.41395129647E+03  0.79742422583E+02 0.  0.
          6    2    1    2  501    0 -0.94792381310E+02 -0.17350332013E+03 -0.10301699160E+03  0.28151561412E+03  0.17189980450E+03 0.  0.
         24    2    5    5    0    0  0.13563072388E+02 -0.35842532932E+02 -0.36203476621E+02  0.93958869480E+02  0.77774888846E+02 0.  0.
          5    1    5    5  501    0 -0.10835545370E+03 -0.13766078719E+03 -0.66813514977E+02  0.18755674464E+03  0.47000000000E+01 0. -1.
        -11    1    6    6    0    0 -0.46516535904E+01  0.14284470634E+00  0.22366266374E+02  0.22845309306E+02  0.00000000000E+00 0.  1.
         12    1    6    6    0    0  0.18214725978E+02 -0.35985377638E+02 -0.58569742995E+02  0.71113560175E+02  0.00000000000E+00 0. -1.
         -5    1    3    3    0  503 -0.36418276777E+02  0.44789764954E+02 -0.20516172338E+03  0.21318029146E+03  0.47000000000E+01 0.  1.
         13    1    4    4    0    0  0.46033289338E+02  0.10053206778E+03 -0.19464266973E+03  0.22385604584E+03  0.00000000000E+00 0. -1.
        -14    1    4    4    0    0  0.85177368748E+02  0.28181487390E+02 -0.16759124063E+03  0.19009525063E+03  0.00000000000E+00 0.  1.
</event>
<event>
12    1  0.1046899E+000  0.2278990E+03  0.7818608E-02  0.1128163E+00
         21   -1    0    0  503  502  0.00000000000E+00  0.00000000000E+00  0.30279374139E+03  0.30279374139E+03  0.00000000000E+00 0. -1.
         21   -1    0    0  501  503 -0.00000000000E+00 -0.00000000000E+00 -0.40081323035E+03  0.40081323035E+03  0.00000000000E+00 0. -1.
          6    2    1    2  501    0 -0.26603404102E+02  0.14636537960E+03  0.21716870794E+03  0.31465769609E+03  0.17238518656E+03 0.  0.
         24    2    3    3    0    0 -0.71111704144E+02  0.49865897423E+02  0.14222997561E+03  0.18453835688E+03  0.79256274247E+02 0.  0.
         -6    2    1    2    0  502  0.26603404102E+02 -0.14636537960E+03 -0.31518819690E+03  0.38894927564E+03  0.17264812221E+03 0.  0.
        -24    2    5    5    0    0 -0.22005662173E+02 -0.45693442057E+02 -0.63270860831E+02  0.11330074119E+03  0.79131007257E+02 0.  0.
          5    1    3    3  501    0  0.44508300042E+02  0.96499482176E+02  0.74938732333E+02  0.13011933921E+03  0.47000000000E+01 0. -1.
        -11    1    4    4    0    0 -0.46340245457E+02  0.66776255428E+02  0.73644000268E+02  0.10968101665E+03  0.00000000000E+00 0.  1.
         12    1    4    4    0    0 -0.24771458688E+02 -0.16910358005E+02  0.68585975338E+02  0.74857340231E+02  0.00000000000E+00 0. -1.
         -5    1    5    5    0  502  0.48609066275E+02 -0.10067193754E+03 -0.25191733607E+03  0.27564853445E+03  0.47000000000E+01 0.  1.
         13    1    6    6    0    0 -0.36911273568E+02  0.25698285902E+01 -0.69520766718E+01  0.37648074392E+02  0.00000000000E+00 0. -1.
        -14    1    6    6    0    0  0.14905611395E+02 -0.48263270647E+02 -0.56318784159E+02  0.75652666799E+02  0.00000000000E+00 0.  1.
</event>
<event>
12    1  0.1046899E+000  0.2025376E+03  0.7818608E-02  0.1147695E+00
         21   -1    0    0  503  502  0.00000000000E+00  0.00000000000E+00  0.67033198814E+02  0.67033198814E+02  0.00000000000E+00 0.  1.
         21   -1    0    0  501  503 -0.00000000000E+00 -0.00000000000E+00 -0.96303008260E+03  0.96303008260E+03  0.00000000000E+00 0.  1.
          6    2    1    2  501    0 -0.99563841792E+02  0.37992528467E+02 -0.13625083618E+03  0.24378371610E+03  0.17178422239E+03 0.  0.
         24    2    3    3    0    0 -0.19885852810E+02 -0.22097914103E+02 -0.10626965828E+03  0.13947453987E+03  0.85300305114E+02 0.  0.
         -6    2    1    2    0  502  0.99563841792E+02 -0.37992528467E+02 -0.75974604761E+03  0.78627956532E+03  0.17223561527E+03 0.  0.
        -24    2    5    5    0    0  0.75377228153E+02  0.36156595595E+02 -0.55663651870E+03  0.56865912599E+03  0.80870029647E+02 0.  0.
          5    1    3    3  501    0 -0.79677988981E+02  0.60090442569E+02 -0.29981177902E+02  0.10430917622E+03  0.47000000000E+01 0. -1.
        -11    1    4    4    0    0 -0.36727813976E+02  0.22133160474E+02 -0.46906164978E+02  0.63553107123E+02  0.00000000000E+00 0.  1.
         12    1    4    4    0    0  0.16841961165E+02 -0.44231074577E+02 -0.59363493297E+02  0.75921432748E+02  0.00000000000E+00 0. -1.
         -5    1    5    5    0  502  0.24186613638E+02 -0.74149124062E+02 -0.20310952891E+03  0.21762043932E+03  0.47000000000E+01 0.  1.
         11    1    6    6    0    0  0.57388345411E+02  0.82966071725E+01 -0.49742459359E+03  0.50079285357E+03  0.00000000000E+00 0. -1.
        -12    1    6    6    0    0  0.17988882742E+02  0.27859988423E+02 -0.59211925113E+02  0.67866272425E+02  0.00000000000E+00 0.  1.
</event>
<event>
12    1  0.1046899E+000  0.1769759E+03  0.7818608E-02  0.1171417E+00
         21   -1    0    0  501  502  0.00000000000E+00  0.00000000000E+00  0.85994314878E+02  0.85994314878E+02  0.00000000000E+00 0. -1.
         21   -1    0    0  502  503 -0.00000000000E+00 -0.00000000000E+00 -0.41947100886E+03  0.41947100886E+03  0.00000000000E+00 0. -1.
         -6    2    1    2    0  503  0.26921922721E+02  0.10471679079E+02 -0.71713062398E+02  0.19095344068E+03  0.17460242611E+03 0.  0.
        -24    2    3    3    0    0 -0.85742661690E+01  0.69807750274E+02 -0.54475246813E+02  0.11953928903E+03  0.79846409231E+02 0.  0.
          6    2    1    2  501    0 -0.26921922721E+02 -0.10471679079E+02 -0.26176363158E+03  0.31451188305E+03  0.17193917464E+03 0.  0.
         24    2    5    5    0    0 -0.70691255915E+02 -0.43194834543E+02 -0.18514938464E+03  0.22028666208E+03  0.85923637412E+02 0.  0.
          5    1    5    5  501    0  0.43769333194E+02  0.32723155464E+02 -0.76614246945E+02  0.94225220969E+02  0.47000000000E+01 0. -1.
        -11    1    6    6    0    0  0.26840977428E+01 -0.25504133686E+02 -0.11299450369E+03  0.11586812797E+03  0.00000000000E+00 0.  1.
         12    1    6    6    0    0 -0.73375353658E+02 -0.17690700857E+02 -0.72154880947E+02  0.10441853411E+03  0.00000000000E+00 0. -1.
         -5    1    3    3    0  503  0.35496188890E+02 -0.59336071195E+02 -0.17237815584E+02  0.71414151656E+02  0.47000000000E+01 0.  1.
         13    1    4    4    0    0 -0.11401927866E+02 -0.12083516850E+02 -0.29536170123E+02  0.33888061084E+02  0.00000000000E+00 0. -1.
        -14    1    4    4    0    0  0.28276616966E+01  0.81891267125E+02 -0.24939076690E+02  0.85651227943E+02  0.00000000000E+00 0.  1.
</event>
<event>
12    1  0.1046899E+000  0.5436628E+03  0.7818608E-02  0.1003064E+00
         21   -1    0    0  503  502  0.00000000000E+00  0.00000000000E+00  0.18527197962E+04  0.18527197962E+04  0.00000000000E+00 0.  1.
         21   -1    0    0  501  503 -0.00000000000E+00 -0.00000000000E+00 -0.17723244175E+03  0.17723244175E+03  0.00000000000E+00 0. -1.
          6    2    1    2  501    0 -0.59626873020E+01  0.51560213696E+03  0.11637102894E+04  0.12844418351E+04  0.17230227140E+03 0.  0.
         24    2    3    3    0    0  0.18965630324E+02  0.51120601837E+03  0.10999654809E+04  0.12156941988E+04  0.79353875307E+02 0.  0.
         -6    2    1    2    0  502  0.59626873020E+01 -0.51560213696E+03  0.51177706510E+03  0.74551040293E+03  0.16729877234E+03 0.  0.
        -24    2    5    5    0    0  0.25944870896E+02 -0.39168992256E+03  0.30425642312E+03  0.50293993607E+03  0.79262074981E+02 0.  0.
          5    1    3    3  501    0 -0.24928317626E+02  0.43961185931E+01  0.63744808496E+02  0.68747636240E+02  0.47000000000E+01 0. -1.
        -13    1    4    4    0    0 -0.21336562633E+02  0.78547140056E+02  0.13955458699E+03  0.16155613534E+03  0.00000000000E+00 0.  1.
         14    1    4    4    0    0  0.40302192957E+02  0.43265887832E+03  0.96041089391E+03  0.10541380635E+04  0.00000000000E+00 0. -1.
         -5    1    5    5    0  502 -0.19982183594E+02 -0.12391221441E+03  0.20752064198E+03  0.24257046685E+03  0.47000000000E+01 0.  1.
         13    1    6    6    0    0  0.82256071638E+01 -0.27969004548E+03  0.25757384012E+03  0.38031364066E+03  0.00000000000E+00 0. -1.
        -14    1    6    6    0    0  0.17719263732E+02 -0.11199987708E+03  0.46682582994E+02  0.12262629542E+03  0.00000000000E+00 0.  1.
</event>
<event>
12    1  0.1046899E+000  0.4492969E+03  0.7818608E-02  0.1028008E+00
         21   -1    0    0  501  502  0.00000000000E+00  0.00000000000E+00  0.27836010708E+03  0.27836010708E+03  0.00000000000E+00 0. -1.
         21   -1    0    0  502  503 -0.00000000000E+00 -0.00000000000E+00 -0.22566045590E+04  0.22566045590E+04  0.00000000000E+00 0. -1.
         -6    2    1    2    0  503  0.41222359864E+03 -0.43283405079E+02 -0.20334614154E+04  0.20822875323E+04  0.17074627627E+03 0.  0.
        -24    2    3    3    0    0  0.13757994590E+03 -0.60332520126E+02 -0.84375734995E+03  0.86116605528E+03  0.84334184489E+02 0.  0.
          6    2    1    2  501    0 -0.41222359864E+03  0.43283405079E+02  0.55216963521E+02  0.45267713374E+03  0.17339528805E+03 0.  0.
         24    2    5    5    0    0 -0.13563228084E+03 -0.16681033032E+02 -0.20201746455E+02  0.15974614743E+03  0.80226857050E+02 0.  0.
          5    1    5    5  501    0 -0.27659131780E+03  0.59964438111E+02  0.75418709975E+02  0.29293098630E+03  0.47000000000E+01 0. -1.
        -13    1    6    6    0    0 -0.14544277588E+03 -0.99343847423E+01 -0.14369880913E+02  0.14648817882E+03  0.00000000000E+00 0.  1.
         14    1    6    6    0    0  0.98104950430E+01 -0.67466482900E+01 -0.58318655418E+01  0.13257968616E+02  0.00000000000E+00 0. -1.
         -5    1    3    3    0  503  0.27464365274E+03  0.17049115047E+02 -0.11897040655E+04  0.12211214770E+04  0.47000000000E+01 0.  1.
         13    1    4    4    0    0  0.57791427840E+02  0.15972005689E+02 -0.36103124942E+03  0.36597611555E+03  0.00000000000E+00 0. -1.
        -14    1    4    4    0    0  0.79788518064E+02 -0.76304525815E+02 -0.48272610054E+03  0.49518993973E+03  0.00000000000E+00 0.  1.
</event>
<event>
12    1  0.1046899E+000  0.2628102E+03  0.7818608E-02  0.1106543E+00
         21   -1    0    0  503  502  0.00000000000E+00  0.00000000000E+00  0.98275955041E+03  0.98275955041E+03  0.00000000000E+00 0.  1.
         21   -1    0    0  501  503 -0.00000000000E+00 -0.00000000000E+00 -0.75378562683E+02  0.75378562683E+02  0.00000000000E+00 0. -1.
          6    2    1    2  501    0  0.14159172338E+03 -0.12561678042E+03  0.60921654169E+03  0.66068213067E+03  0.17183798027E+03 0.  0.
         24    2    3    3    0    0  0.15489995929E+03 -0.70814407677E+02  0.53576188352E+03  0.56795626584E+03  0.80776521035E+02 0.  0.
         -6    2    1    2    0  502 -0.14159172338E+03  0.12561678042E+03  0.29816444604E+03  0.39745598243E+03  0.18232232292E+03 0.  0.
        -24    2    5    5    0    0 -0.13836499595E+03  0.13619500178E+03  0.31400056427E+03  0.37757676771E+03  0.79208020671E+02 0.  0.
          5    1    3    3  501    0 -0.13308235915E+02 -0.54802372741E+02  0.73454658171E+02  0.92725864829E+02  0.47000000000E+01 0. -1.
        -11    1    4    4    0    0  0.35716476706E+02  0.13960555630E+02  0.16480207199E+03  0.16920486623E+03  0.00000000000E+00 0.  1.
         12    1    4    4    0    0  0.11918348258E+03 -0.84774963306E+02  0.37095981153E+03  0.39875139961E+03  0.00000000000E+00 0. -1.
         -5    1    5    5    0  502 -0.32267274224E+01 -0.10578221362E+02 -0.15836118232E+02  0.19879214715E+02  0.47000000000E+01 0.  1.
         11    1    6    6    0    0  0.52358132873E+01  0.56761795253E+01  0.46308662831E+02  0.46948109738E+02  0.00000000000E+00 0. -1.
        -12    1    6    6    0    0 -0.14360080924E+03  0.13051882225E+03  0.26769190144E+03  0.33062865797E+03  0.00000000000E+00 0.  1.
</event>
<event>
12    1  0.1046899E+000  0.2658242E+03  0.7818608E-02  0.1105124E+00
         21   -1    0    0  503  502  0.00000000000E+00  0.00000000000E+00  0.33642113411E+03  0.33642113411E+03  0.00000000000E+00 0.  1.
         21   -1    0    0  501  503 -0.00000000000E+00 -0.00000000000E+00 -0.20823663057E+03  0.20823663057E+03  0.00000000000E+00 0.  1.
          6    2    1    2  501    0  0.17493731187E+03  0.72179059348E+02  0.20125138975E+02  0.26658492467E+03  0.18668053232E+03 0.  0.
         24    2    3    3    0    0  0.46358687208E+02  0.10294762577E+02 -0.51312134659E+02  0.10693686495E+03  0.80916301856E+02 0.  0.
         -6    2    1    2    0  502 -0.17493731187E+03 -0.72179059348E+02  0.10805936456E+03  0.27807284001E+03  0.17272752643E+03 0.  0.
        -24    2    5    5    0    0 -0.16904248745E+03 -0.86255594333E+02  0.42408993558E+02  0.21050835965E+03  0.80621688353E+02 0.  0.
          5    1    3    3  501    0  0.12857862466E+03  0.61884296771E+02  0.71437273633E+02  0.15964805971E+03  0.47000000000E+01 0. -1.
        -13    1    4    4    0    0 -0.63670557385E+01 -0.26354509123E+02 -0.45256474507E+01  0.27487834304E+02  0.00000000000E+00 0.  1.
         14    1    4    4    0    0  0.52725742946E+02  0.36649271700E+02 -0.46786487208E+02  0.79449030646E+02  0.00000000000E+00 0. -1.
         -5    1    5    5    0  502 -0.58948244227E+01  0.14076534985E+02  0.65650371006E+02  0.67564480354E+02  0.47000000000E+01 0.  1.
         11    1    6    6    0    0 -0.17041203788E+03 -0.85541116726E+02  0.54505297040E+02  0.19831382380E+03  0.00000000000E+00 0. -1.
        -12    1    6    6    0    0  0.13695504355E+01 -0.71447760694E+00 -0.12096303482E+02  0.12194535849E+02  0.00000000000E+00 0.  1.
</event>
<event>
12    1  0.1046899E+000  0.2517851E+03  0.7818608E-02  0.1112892E+00
         21   -1    0    0  503  502  0.00000000000E+00  0.00000000000E+00  0.58885124073E+03  0.58885124073E+03  0.00000000000E+00 0.  1.
         21   -1    0    0  501  503 -0.00000000000E+00 -0.00000000000E+00 -0.12630176487E+03  0.12630176487E+03  0.00000000000E+00 0.  1.
          6    2    1    2  501    0 -0.10018341063E+03 -0.14598704042E+03  0.85282919099E+02  0.26158295148E+03  0.17263699627E+03 0.  0.
         24    2    3    3    0    0  0.30429158810E+01 -0.59826961605E+02  0.78401133439E+02  0.12686590490E+03  0.79747698583E+02 0.  0.
         -6    2    1    2    0  502  0.10018341063E+03  0.14598704042E+03  0.37726655676E+03  0.45357005412E+03  0.17901622105E+03 0.  0.
        -24    2    5    5    0    0  0.29015766249E+02  0.97078141345E+02  0.99258093036E+02  0.16242110612E+03  0.79135115223E+02 0.  0.
          5    1    3    3  501    0 -0.10322632651E+03 -0.86160078819E+02  0.68817856596E+01  0.13471704659E+03  0.47000000000E+01 0. -1.
        -13    1    4    4    0    0 -0.19427372161E+02  0.13091143248E+02  0.19272418358E+02  0.30335242376E+02  0.00000000000E+00 0.  1.
         14    1    4    4    0    0  0.22470288042E+02 -0.72918104852E+02  0.59128715081E+02  0.96530662523E+02  0.00000000000E+00 0. -1.
         -5    1    5    5    0  502  0.71167644379E+02  0.48908899078E+02  0.27800846373E+03  0.29114894800E+03  0.47000000000E+01 0.  1.
         11    1    6    6    0    0 -0.11403461303E+02  0.10934218125E+02  0.55466997404E+02  0.57673077400E+02  0.00000000000E+00 0. -1.
        -12    1    6    6    0    0  0.40419227552E+02  0.86143923220E+02  0.43791095632E+02  0.10474802872E+03  0.00000000000E+00 0.  1.
</event>
<event>
12    1  0.1046899E+000  0.1902584E+03  0.7818608E-02  0.1158602E+00
         21   -1    0    0  501  502  0.00000000000E+00  0.00000000000E+00  0.27741492175E+03  0.27741492175E+03  0.00000000000E+00 0. -1.
         21   -1    0    0  502  503 -0.00000000000E+00 -0.00000000000E+00 -0.13050584720E+03  0.13050584720E+03  0.00000000000E+00 0. -1.
         -6    2    1    2    0  503  0.21299114123E+02 -0.74484991290E+02  0.54619978414E+02  0.19794339404E+03  0.17377162891E+03 0.  0.
        -24    2    3    3    0    0  0.37933187017E+02 -0.47897428635E+02  0.95184226298E+02  0.14645418085E+03  0.93036013481E+02 0.  0.
          6    2    1    2  501    0 -0.21299114123E+02  0.74484991290E+02  0.92289096139E+02  0.20997737490E+03  0.17196381746E+03 0.  0.
         24    2    5    5    0    0  0.29651037468E+01  0.14638815496E+02  0.11579288743E+03  0.14109461051E+03  0.79225056485E+02 0.  0.
          5    1    5    5  501    0 -0.24264217869E+02  0.59846175793E+02 -0.23503791291E+02  0.68882764397E+02  0.47000000000E+01 0. -1.
        -11    1    6    6    0    0  0.51587067985E+01  0.36922841830E+02  0.19189819481E+02  0.41930390844E+02  0.00000000000E+00 0.  1.
         12    1    6    6    0    0 -0.21936030516E+01 -0.22284026334E+02  0.96603067948E+02  0.99164219661E+02  0.00000000000E+00 0. -1.
         -5    1    3    3    0  503 -0.16634072895E+02 -0.26587562655E+02 -0.40564247884E+02  0.51489213195E+02  0.47000000000E+01 0.  1.
         11    1    4    4    0    0 -0.26289426616E+02 -0.29125812189E+02  0.14963476337E+02  0.41992291097E+02  0.00000000000E+00 0. -1.
        -12    1    4    4    0    0  0.64222613633E+02 -0.18771616445E+02  0.80220749961E+02  0.10446188975E+03  0.00000000000E+00 0.  1.
</event>
<event>
12    1  0.1046899E+000  0.3069844E+03  0.7818608E-02  0.1081871E+00
         21   -1    0    0  503  502  0.00000000000E+00  0.00000000000E+00  0.33822946173E+03  0.33822946173E+03  0.00000000000E+00 0. -1.
         21   -1    0    0  501  503 -0.00000000000E+00 -0.00000000000E+00 -0.29612136455E+03  0.29612136455E+03  0.00000000000E+00 0. -1.
          6    2    1    2  501    0 -0.22339282223E+03  0.11995385877E+03  0.99327987665E+02  0.32265377845E+03  0.17304950262E+03 0.  0.
         24    2    3    3    0    0 -0.12366787201E+03  0.23400510284E+01  0.18720897168E+02  0.14859152951E+03  0.80185735921E+02 0.  0.
         -6    2    1    2    0  502  0.22339282223E+03 -0.11995385877E+03 -0.57219890482E+02  0.31169704783E+03  0.17201061741E+03 0.  0.
        -24    2    5    5    0    0  0.72370114056E+02 -0.71437521590E-01 -0.50512342697E+02  0.11870291708E+03  0.79381655599E+02 0.  0.
          5    1    3    3  501    0 -0.99724950218E+02  0.11761380774E+03  0.80607090497E+02  0.17406224894E+03  0.47000000000E+01 0. -1.
        -11    1    4    4    0    0 -0.13067299947E+03 -0.73110818388E+01  0.27559762655E+02  0.13374761765E+03  0.00000000000E+00 0.  1.
         12    1    4    4    0    0  0.70051274602E+01  0.96511328672E+01 -0.88388654875E+01  0.14843911865E+02  0.00000000000E+00 0. -1.
         -5    1    5    5    0  502  0.15102270817E+03 -0.11988242124E+03 -0.67075477849E+01  0.19299413075E+03  0.47000000000E+01 0.  1.
         13    1    6    6    0    0  0.58563582146E+02  0.11875589549E+02 -0.69974544429E+02  0.92017170403E+02  0.00000000000E+00 0. -1.
        -14    1    6    6    0    0  0.13806531911E+02 -0.11947027071E+02  0.19462201732E+02  0.26685746673E+02  0.00000000000E+00 0.  1.
</event>
<event>
12    1  0.1046899E+000  0.3965780E+03  0.7818608E-02  0.1045005E+00
         21   -1    0    0  501  502  0.00000000000E+00  0.00000000000E+00  0.11277098464E+04  0.11277098464E+04  0.00000000000E+00 0. -1.
         21   -1    0    0  502  503 -0.00000000000E+00 -0.00000000000E+00 -0.25573005085E+03  0.25573005085E+03  0.00000000000E+00 0. -1.
         -6    2    1    2    0  503 -0.59498545822E+02  0.35243332969E+03 -0.30575759930E+02  0.39775497773E+03  0.17182786847E+03 0.  0.
        -24    2    3    3    0    0  0.48938535498E+02  0.14231832146E+03 -0.62038179117E+01  0.16000931773E+03  0.53990828160E+02 0.  0.
          6    2    1    2  501    0  0.59498545822E+02 -0.35243332969E+03  0.90255555553E+03  0.98568491957E+03  0.17093537086E+03 0.  0.
         24    2    5    5    0    0  0.71880458449E+02 -0.34984442154E+03  0.89992316153E+03  0.97193596674E+03  0.85087644147E+02 0.  0.
          5    1    5    5  501    0 -0.12381912627E+02 -0.25889081552E+01  0.26323939957E+01  0.13748952828E+02  0.47000000000E+01 0. -1.
        -11    1    6    6    0    0  0.73435722330E+02 -0.35075584095E+03  0.85613572172E+03  0.92811143689E+03  0.00000000000E+00 0.  1.
         12    1    6    6    0    0 -0.15552638814E+01  0.91141941763E+00  0.43787439813E+02  0.43824529849E+02  0.00000000000E+00 0. -1.
         -5    1    3    3    0  503 -0.10843708132E+03  0.21011500823E+03 -0.24371942018E+02  0.23774566000E+03  0.47000000000E+01 0.  1.
         13    1    4    4    0    0  0.15414909129E+02  0.10128641428E+02 -0.14383366540E+02  0.23389955829E+02  0.00000000000E+00 0. -1.
        -14    1    4    4    0    0  0.33523626369E+02  0.13218968003E+03  0.81795486285E+01  0.13661936191E+03  0.00000000000E+00 0.  1.
</event>
<event>
12    1  0.1046899E+000  0.5095261E+03  0.7818608E-02  0.1011325E+00
         21   -1    0    0  501  502  0.00000000000E+00  0.00000000000E+00  0.65720050818E+03  0.65720050818E+03  0.00000000000E+00 0. -1.
         21   -1    0    0  502  503 -0.00000000000E+00 -0.00000000000E+00 -0.39578952573E+03  0.39578952573E+03  0.00000000000E+00 0. -1.
         -6    2    1    2    0  503  0.44059332433E+03 -0.18729499718E+03  0.10722325316E+03  0.52064547750E+03  0.17427849500E+03 0.  0.
        -24    2    3    3    0    0  0.42696096220E+03 -0.14090095273E+03  0.76057784044E+02  0.46292524602E+03  0.79788816025E+02 0.  0.
          6    2    1    2  501    0 -0.44059332433E+03  0.18729499718E+03  0.15418772929E+03  0.53234455641E+03  0.17439890329E+03 0.  0.
         24    2    5    5    0    0 -0.20161803493E+03  0.10034950872E+03  0.81932380142E+01  0.23907814445E+03  0.79820887568E+02 0.  0.
          5    1    5    5  501    0 -0.23897528940E+03  0.86945488455E+02  0.14599449128E+03  0.29326641197E+03  0.47000000000E+01 0. -1.
        -11    1    6    6    0    0 -0.20752855508E+03  0.89886558679E+02  0.11988525122E+02  0.22647609000E+03  0.00000000000E+00 0.  1.
         12    1    6    6    0    0  0.59105201513E+01  0.10462950046E+02 -0.37952871083E+01  0.12602054449E+02  0.00000000000E+00 0. -1.
         -5    1    3    3    0  503  0.13632362123E+02 -0.46394044451E+02  0.31165469114E+02  0.57720231485E+02  0.47000000000E+01 0.  1.
         11    1    4    4    0    0  0.27838120051E+02  0.21191410087E+01 -0.11171938372E+02  0.30070980921E+02  0.00000000000E+00 0. -1.
        -12    1    4    4    0    0  0.39912284215E+03 -0.14302009374E+03  0.87229722416E+02  0.43285426510E+03  0.00000000000E+00 0.  1.
</event>
<event>
12    1  0.1046899E+000  0.2981280E+03  0.7818608E-02  0.1086198E+00
         21   -1    0    0  501  502  0.00000000000E+00  0.00000000000E+00  0.14422769905E+04  0.14422769905E+04  0.00000000000E+00 0. -1.
         21   -1    0    0  502  503 -0.00000000000E+00 -0.00000000000E+00 -0.76234692461E+02  0.76234692461E+02  0.00000000000E+00 0. -1.
         -6    2    1    2    0  503 -0.12457269679E+03  0.20932683041E+03  0.10156012553E+04  0.10584147032E+04  0.17163826887E+03 0.  0.
        -24    2    3    3    0    0  0.15782876124E+02  0.54577758937E+02  0.33600285171E+03  0.34741326704E+03  0.67603482245E+02 0.  0.
          6    2    1    2  501    0  0.12457269679E+03 -0.20932683041E+03  0.35044104270E+03  0.46009697978E+03  0.17188434391E+03 0.  0.
         24    2    5    5    0    0  0.82052130897E+02 -0.22099557175E+03  0.32330671701E+03  0.40811121559E+03  0.80348840109E+02 0.  0.
          5    1    5    5  501    0  0.42520565891E+02  0.11668741338E+02  0.27134325691E+02  0.51985764194E+02  0.47000000000E+01 0. -1.
        -11    1    6    6    0    0  0.61151091018E+02 -0.56902337058E+02  0.10295937950E+03  0.13258192080E+03  0.00000000000E+00 0.  1.
         12    1    6    6    0    0  0.20901039878E+02 -0.16409323469E+03  0.22034733751E+03  0.27552929479E+03  0.00000000000E+00 0. -1.
         -5    1    3    3    0  503 -0.14035557291E+03  0.15474907147E+03  0.67959840363E+03  0.71100143614E+03  0.47000000000E+01 0.  1.
         11    1    4    4    0    0  0.88241061652E+01  0.14070103969E+02  0.26387292805E+03  0.26439507339E+03  0.00000000000E+00 0. -1.
        -12    1    4    4    0    0  0.69587699585E+01  0.40507654969E+02  0.72129923660E+02  0.83018193654E+02  0.00000000000E+00 0.  1.
</event>
<event>
12    1  0.1046899E+000  0.2367333E+03  0.7818608E-02  0.1122114E+00
         21   -1    0    0  503  502  0.00000000000E+00  0.00000000000E+00  0.69420890721E+02  0.69420890721E+02  0.00000000000E+00 0. -1.
         21   -1    0    0  501  503 -0.00000000000E+00 -0.00000000000E+00 -0.88293905740E+03  0.88293905740E+03  0.00000000000E+00 0. -1.
          6    2    1    2  501    0  0.14477399550E+03  0.72878199835E+02 -0.54786282483E+03  0.59652936302E+03  0.17153094277E+03 0.  0.
         24    2    3    3    0    0  0.11212145668E+03  0.47529195358E+02 -0.53266822147E+03  0.55223798360E+03  0.80006942886E+02 0.  0.
         -6    2    1    2    0  502 -0.14477399550E+03 -0.72878199835E+02 -0.26565534185E+03  0.35583058510E+03  0.17254536463E+03 0.  0.
        -24    2    5    5    0    0 -0.34939492249E+02 -0.36729442644E+02 -0.42181030903E+02  0.10416968547E+03  0.80636616542E+02 0.  0.
          5    1    3    3  501    0  0.32652538823E+02  0.25349004476E+02 -0.15194603362E+02  0.44291379419E+02  0.47000000000E+01 0. -1.
        -11    1    4    4    0    0 -0.76821321420E+01  0.11741669096E+02 -0.12608553595E+03  0.12686388108E+03  0.00000000000E+00 0.  1.
         12    1    4    4    0    0  0.11980358882E+03  0.35787526263E+02 -0.40658268552E+03  0.42537410252E+03  0.00000000000E+00 0. -1.
         -5    1    5    5    0  502 -0.10983450325E+03 -0.36148757191E+02 -0.22347431094E+03  0.25166089963E+03  0.47000000000E+01 0.  1.
         13    1    6    6    0    0  0.16217707954E+02 -0.16638587277E+02 -0.43363525294E+02  0.49196056384E+02  0.00000000000E+00 0. -1.
        -14    1    6    6    0    0 -0.51157200203E+02 -0.20090855367E+02  0.11824943902E+01  0.54973629086E+02  0.00000000000E+00 0.  1.
</event>
<event>
12    1  0.1046899E+000  0.2538577E+03  0.7818608E-02  0.1111123E+00
         21   -1    0    0  503  502  0.00000000000E+00  0.00000000000E+00  0.27578795140E+03  0.27578795140E+03  0.00000000000E+00 0. -1.
         21   -1    0    0  501  503 -0.00000000000E+00 -0.00000000000E+00 -0.30158809528E+03  0.30158809528E+03  0.00000000000E+00 0. -1.
          6    2    1    2  501    0 -0.18192691216E+03  0.41907436200E+02  0.12544424646E+03  0.28316068653E+03  0.17201767597E+03 0.  0.
         24    2    3    3    0    0 -0.80532123125E+02  0.31540810694E+01  0.13294586849E+03  0.17425205458E+03  0.78700721066E+02 0.  0.
         -6    2    1    2    0  502  0.18192691216E+03 -0.41907436200E+02 -0.15124439034E+03  0.29421536015E+03  0.16980629540E+03 0.  0.
        -24    2    5    5    0    0  0.50282061088E+02 -0.38536842422E+02 -0.89926047973E+01  0.10030974340E+03  0.77251561718E+02 0.  0.
          5    1    3    3  501    0 -0.10139478904E+03  0.38753355130E+02 -0.75016220276E+01  0.10890863194E+03  0.47000000000E+01 0. -1.
        -13    1    4    4    0    0 -0.74154886753E+02  0.21708315281E+02  0.57547029489E+02  0.96342403877E+02  0.00000000000E+00 0.  1.
         14    1    4    4    0    0 -0.63772363716E+01 -0.18554234211E+02  0.75398839000E+02  0.77909650708E+02  0.00000000000E+00 0. -1.
         -5    1    5    5    0  502  0.13164485108E+03 -0.33705937772E+01 -0.14225178554E+03  0.19390561675E+03  0.47000000000E+01 0.  1.
         11    1    6    6    0    0  0.69353578995E+02 -0.39982276962E+02 -0.12003324790E+02  0.80948015395E+02  0.00000000000E+00 0. -1.
        -12    1    6    6    0    0 -0.19071517907E+02  0.14454345395E+01  0.30107199922E+01  0.19361728000E+02  0.00000000000E+00 0.  1.
</event>
<event>
12    1  0.1109987E+000  0.2458587E+03  0.7818608E-02  0.1116170E+00
         21   -1    0    0  501  502  0.00000000000E+00  0.00000000000E+00  0.22868491604E+03  0.22868491604E+03  0.00000000000E+00 0. -1.
         21   -1    0    0  502  503 -0.00000000000E+00 -0.00000000000E+00 -0.65340896134E+03  0.65340896134E+03  0.00000000000E+00 0. -1.
         -6    2    1    2    0  503  0.12712534366E+03  0.11851315008E+03  0.12885356140E+03  0.27637555864E+03  0.17197089692E+03 0.  0.
        -24    2    3    3    0    0  0.25390827032E+02  0.10307322589E+03  0.36777470733E+02  0.13821478416E+03  0.80510621756E+02 0.  0.
          6    2    1    2  501    0 -0.12712534366E+03 -0.11851315008E+03 -0.55357760670E+03  0.60571831875E+03  0.17389736998E+03 0.  0.
         24    2    5    5    0    0 -0.57575042291E+02 -0.39857235818E+02 -0.43434030888E+03  0.44677298078E+03  0.77788866164E+02 0.  0.
          5    1    5    5  501    0 -0.69550301369E+02 -0.78655914262E+02 -0.11923729782E+03  0.15894533796E+03  0.47000000000E+01 0. -1.
        -11    1    6    6    0    0 -0.38932946899E+02 -0.63523933340E+02 -0.30424878892E+03  0.31323855130E+03  0.00000000000E+00 0.  1.
         12    1    6    6    0    0 -0.18642095392E+02  0.23666697522E+02 -0.13009151996E+03  0.13353442949E+03  0.00000000000E+00 0. -1.
         -5    1    3    3    0  503  0.10173451663E+03  0.15439924191E+02  0.92076090663E+02  0.13816077448E+03  0.47000000000E+01 0.  1.
         13    1    4    4    0    0  0.57854228100E+01 -0.12634891624E+02 -0.31542426400E+01  0.14249942108E+02  0.00000000000E+00 0. -1.
        -14    1    4    4    0    0  0.19605404222E+02  0.11570811751E+03  0.39931713373E+02  0.12396484206E+03  0.00000000000E+00 0.  1.
</event>
<event>
12    1  0.1046899E+000  0.4595758E+03  0.7818608E-02  0.1025093E+00
         21   -1    0    0  501  502  0.00000000000E+00  0.00000000000E+00  0.24818362859E+03  0.24818362859E+03  0.00000000000E+00 0. -1.
         21   -1    0    0  502  503 -0.00000000000E+00 -0.00000000000E+00 -0.87040618221E+03  0.87040618221E+03  0.00000000000E+00 0. -1.
         -6    2    1    2    0  503  0.41151421959E+03 -0.99177260759E+02 -0.21704710034E+03  0.50590960606E+03  0.17220628259E+03 0.  0.
        -24    2    3    3    0    0  0.18704074238E+03 -0.25728805671E+02 -0.16723776026E+03  0.26448450819E+03  0.79607636959E+02 0.  0.
          6    2    1    2  501    0 -0.41151421959E+03  0.99177260759E+02 -0.40517545329E+03  0.61268020474E+03  0.17896872175E+03 0.  0.
         24    2    5    5    0    0 -0.42517140194E+03  0.10198179565E+03 -0.39736264245E+03  0.59602145152E+03  0.78571581304E+02 0.  0.
          5    1    5    5  501    0  0.13657182352E+02 -0.28045348874E+01 -0.78128108387E+01  0.16658753223E+02  0.47000000000E+01 0. -1.
        -13    1    6    6    0    0 -0.14564316661E+03  0.66587807308E+02 -0.17390054821E+03  0.23640488305E+03  0.00000000000E+00 0.  1.
         14    1    6    6    0    0 -0.27952823533E+03  0.35393988339E+02 -0.22346209424E+03  0.35961656847E+03  0.00000000000E+00 0. -1.
         -5    1    3    3    0  503  0.22447347721E+03 -0.73448455089E+02 -0.49809340079E+02  0.24142509788E+03  0.47000000000E+01 0.  1.
         11    1    4    4    0    0  0.18194437234E+03 -0.59324766536E+01 -0.16123836927E+03  0.24318051038E+03  0.00000000000E+00 0. -1.
        -12    1    4    4    0    0  0.50963700378E+01 -0.19796329017E+02 -0.59993909940E+01  0.21303997804E+02  0.00000000000E+00 0.  1.
</event>
<event>
12    1  0.1046899E+000  0.2614645E+03  0.7818608E-02  0.1106516E+00
         21   -1    0    0  503  502  0.00000000000E+00  0.00000000000E+00  0.51499270968E+02  0.51499270968E+02  0.00000000000E+00 0. -1.
         21   -1    0    0  501  503 -0.00000000000E+00 -0.00000000000E+00 -0.13330258704E+04  0.13330258704E+04  0.00000000000E+00 0. -1.
          6    2    1    2  501    0 -0.18749365920E+03  0.61933244369E+02 -0.71379684295E+03  0.76017735453E+03  0.17138867622E+03 0.  0.
         24    2    3    3    0    0 -0.50073442692E+02  0.38714429261E+02 -0.45326799811E+03  0.46467642683E+03  0.80412355035E+02 0.  0.
         -6    2    1    2    0  502  0.18749365920E+03 -0.61933244369E+02 -0.56772975643E+03  0.62434778679E+03  0.16882974718E+03 0.  0.
        -24    2    5    5    0    0  0.35418272329E+02 -0.21669091297E+02 -0.12526252693E+03  0.15472297431E+03  0.80774343661E+02 0.  0.
          5    1    3    3  501    0 -0.13742021650E+03  0.23218815108E+02 -0.26052884484E+03  0.29550092771E+03  0.47000000000E+01 0. -1.
        -11    1    4    4    0    0 -0.62326798422E+02  0.54148969257E+02 -0.35928816362E+03  0.36865258061E+03  0.00000000000E+00 0.  1.
         12    1    4    4    0    0  0.12253355730E+02 -0.15434539996E+02 -0.93979834493E+02  0.96023846220E+02  0.00000000000E+00 0. -1.
         -5    1    5    5    0  502  0.15207538687E+03 -0.40264153073E+02 -0.44246722950E+03  0.46962481248E+03  0.47000000000E+01 0.  1.
         13    1    6    6    0    0  0.48400795445E+02 -0.19145195455E+01 -0.30924704529E+02  0.57468597817E+02  0.00000000000E+00 0. -1.
        -14    1    6    6    0    0 -0.12982523116E+02 -0.19754571751E+02 -0.94337822405E+02  0.97254376496E+02  0.00000000000E+00 0.  1.
</event>
<event>
12    1  0.1046899E+000  0.2004306E+03  0.7818608E-02  0.1150005E+00
         21   -1    0    0  503  502  0.00000000000E+00  0.00000000000E+00  0.10487651007E+03  0.10487651007E+03  0.00000000000E+00 0.  1.
         21   -1    0    0  501  503 -0.00000000000E+00 -0.00000000000E+00 -0.37860888632E+03  0.37860888632E+03  0.00000000000E+00 0.  1.
          6    2    1    2  501    0  0.96871844126E+02 -0.35145993419E+02 -0.12420631278E+03  0.23579573630E+03  0.17190993597E+03 0.  0.
         24    2    3    3    0    0  0.26691116634E+02  0.44077191254E+02 -0.64863495663E+02  0.11436547877E+03  0.78847797488E+02 0.  0.
         -6    2    1    2    0  502 -0.96871844126E+02  0.35145993419E+02 -0.14952606348E+03  0.24768966009E+03  0.16844206427E+03 0.  0.
        -24    2    5    5    0    0 -0.68666423578E+02 -0.26131760443E+02 -0.37332069081E+02  0.11669312866E+03  0.82617530006E+02 0.  0.
          5    1    3    3  501    0  0.70180727492E+02 -0.79223184673E+02 -0.59342817112E+02  0.12143025753E+03  0.47000000000E+01 0. -1.
        -13    1    4    4    0    0 -0.25374853181E+02 -0.18260202838E+00 -0.12579691085E+02  0.28322520108E+02  0.00000000000E+00 0.  1.
         14    1    4    4    0    0  0.52065969815E+02  0.44259793283E+02 -0.52283804578E+02  0.86042958662E+02  0.00000000000E+00 0. -1.
         -5    1    5    5    0  502 -0.28205420549E+02  0.61277753862E+02 -0.11219399439E+03  0.13099653142E+03  0.47000000000E+01 0.  1.
         13    1    6    6    0    0 -0.74020331888E+02  0.76977197422E+01 -0.15322675332E+02  0.75980581739E+02  0.00000000000E+00 0. -1.
        -14    1    6    6    0    0  0.53539083099E+01 -0.33829480185E+02 -0.22009393749E+02  0.40712546924E+02  0.00000000000E+00 0.  1.
</event>
<event>
12    1  0.1046899E+000  0.2012154E+03  0.7818608E-02  0.1148865E+00
         21   -1    0    0  501  502  0.00000000000E+00  0.00000000000E+00  0.50268041307E+03  0.50268041307E+03  0.00000000000E+00 0. -1.
         21   -1    0    0  502  503 -0.00000000000E+00 -0.00000000000E+00 -0.86319072746E+02  0.86319072746E+02  0.00000000000E+00 0. -1.
         -6    2    1    2    0  503 -0.98012766514E+02 -0.31047155835E+02  0.28585136643E+03  0.34916516132E+03  0.17214783734E+03 0.  0.
        -24    2    3    3    0    0 -0.85401692829E+02  0.43100562327E+02  0.18729707670E+03  0.22510081788E+03  0.80243851221E+02 0.  0.
          6    2    1    2  501    0  0.98012766514E+02  0.31047155835E+02  0.13050997389E+03  0.23983432450E+03  0.17296595514E+03 0.  0.
         24    2    5    5    0    0  0.75023689551E+02 -0.47326569933E+02  0.61705538077E+02  0.13293680845E+03  0.77435543485E+02 0.  0.
          5    1    5    5  501    0  0.22989076963E+02  0.78373725768E+02  0.68804435816E+02  0.10689751605E+03  0.47000000000E+01 0. -1.
        -13    1    6    6    0    0  0.37440974987E+02  0.15283414938E+02  0.39698370888E+02  0.56668951211E+02  0.00000000000E+00 0.  1.
         14    1    6    6    0    0  0.37582714565E+02 -0.62609984870E+02  0.22007167188E+02  0.76267857235E+02  0.00000000000E+00 0. -1.
         -5    1    3    3    0  503 -0.12611073685E+02 -0.74147718163E+02  0.98554289729E+02  0.12406434344E+03  0.47000000000E+01 0.  1.
         13    1    4    4    0    0 -0.20466950243E+02  0.74886897512E+01 -0.19478394602E+01  0.21880827338E+02  0.00000000000E+00 0. -1.
        -14    1    4    4    0    0 -0.64934742586E+02  0.35611872576E+02  0.18924491616E+03  0.20321999055E+03  0.00000000000E+00 0.  1.
</event>
<event>
12    1  0.1046899E+000  0.2077505E+03  0.7818608E-02  0.1143514E+00
         21   -1    0    0  501  502  0.00000000000E+00  0.00000000000E+00  0.10987585355E+03  0.10987585355E+03  0.00000000000E+00 0.  1.
         21   -1    0    0  502  503 -0.00000000000E+00 -0.00000000000E+00 -0.39136142983E+03  0.39136142983E+03  0.00000000000E+00 0.  1.
         -6    2    1    2    0  503  0.75172550475E+02 -0.87788357147E+02 -0.14040361269E+03  0.25011102612E+03  0.17171092840E+03 0.  0.
        -24    2    3    3    0    0  0.11780155021E+03 -0.48061139386E+02 -0.86525513884E+02  0.17060993819E+03  0.73715724957E+02 0.  0.
          6    2    1    2  501    0 -0.75172550475E+02  0.87788357147E+02 -0.14108196359E+03  0.25112625726E+03  0.17263420473E+03 0.  0.
         24    2    5    5    0    0  0.22188815104E+02  0.24798615200E+02 -0.89210854891E+02  0.12400566485E+03  0.79445034164E+02 0.  0.
          5    1    5    5  501    0 -0.97361365579E+02  0.62989741947E+02 -0.51871108699E+02  0.12712059241E+03  0.47000000000E+01 0. -1.
        -13    1    6    6    0    0  0.10724774703E+02  0.58104527678E+01  0.13924919169E+02  0.18511767275E+02  0.00000000000E+00 0.  1.
         14    1    6    6    0    0  0.11464040400E+02  0.18988162432E+02 -0.10313577406E+03  0.10549389758E+03  0.00000000000E+00 0. -1.
         -5    1    3    3    0  503 -0.42628999739E+02 -0.39727217761E+02 -0.53878098807E+02  0.79501087923E+02  0.47000000000E+01 0.  1.
         11    1    4    4    0    0  0.71486042816E+02 -0.15145593421E+02 -0.77532012683E+01  0.73483028295E+02  0.00000000000E+00 0. -1.
        -12    1    4    4    0    0  0.46315507398E+02 -0.32915545965E+02 -0.78772312616E+02  0.97126909900E+02  0.00000000000E+00 0.  1.
</event>
<event>
12    1  0.1046899E+000  0.2221937E+03  0.7818608E-02  0.1132686E+00
         21   -1    0    0  501  502  0.00000000000E+00  0.00000000000E+00  0.17517315336E+04  0.17517315336E+04  0.00000000000E+00 0. -1.
         21   -1    0    0  502  503 -0.00000000000E+00 -0.00000000000E+00 -0.80588828599E+02  0.80588828599E+02  0.00000000000E+00 0.  1.
         -6    2    1    2    0  503  0.11372198135E+03 -0.83315885590E+02  0.15749051087E+04  0.15901804843E+04  0.16874135602E+03 0.  0.
        -24    2    3    3    0    0  0.11832060833E+03 -0.15880710558E+02  0.84708646547E+03  0.85921487792E+03  0.80266824587E+02 0.  0.
          6    2    1    2  501    0 -0.11372198135E+03  0.83315885590E+02  0.96237596306E+02  0.24213987796E+03  0.17174347068E+03 0.  0.
         24    2    5    5    0    0 -0.71718178690E+02  0.11826960476E+03  0.86074512098E+02  0.18635941362E+03  0.90497584750E+02 0.  0.
          5    1    5    5  501    0 -0.42003802657E+02 -0.34953719173E+02  0.10163084208E+02  0.55780464343E+02  0.47000000000E+01 0. -1.
        -13    1    6    6    0    0 -0.30137796456E+02  0.29773434842E+01 -0.86092723754E+01  0.31484455216E+02  0.00000000000E+00 0.  1.
         14    1    6    6    0    0 -0.41580382234E+02  0.11529226128E+03  0.94683784473E+02  0.15487495840E+03  0.00000000000E+00 0. -1.
         -5    1    3    3    0  503 -0.45986269797E+01 -0.67435175032E+02  0.72781864324E+03  0.73096560634E+03  0.47000000000E+01 0.  1.
         11    1    4    4    0    0  0.86519961411E+02 -0.38713854768E+02  0.43147592144E+03  0.44176457198E+03  0.00000000000E+00 0. -1.
        -12    1    4    4    0    0  0.31800646915E+02  0.22833144210E+02  0.41561054403E+03  0.41745030594E+03  0.00000000000E+00 0.  1.
</event>
<event>
12    1  0.1046899E+000  0.2057514E+03  0.7818608E-02  0.1145383E+00
         21   -1    0    0  501  502  0.00000000000E+00  0.00000000000E+00  0.22896008895E+03  0.22896008895E+03  0.00000000000E+00 0. -1.
         21   -1    0    0  502  503 -0.00000000000E+00 -0.00000000000E+00 -0.18675969212E+03  0.18675969212E+03  0.00000000000E+00 0. -1.
         -6    2    1    2    0  503  0.22535112326E+01 -0.11236703433E+03  0.50273873879E+02  0.21180436635E+03  0.17234325775E+03 0.  0.
        -24    2    3    3    0    0  0.88621438726E+01 -0.30789494765E+01 -0.18067734554E+02  0.82652421106E+02  0.80105943343E+02 0.  0.
          6    2    1    2  501    0 -0.22535112326E+01  0.11236703433E+03 -0.80734770526E+01  0.20391541473E+03  0.16995554305E+03 0.  0.
         24    2    5    5    0    0  0.48055413132E+02  0.11120194954E+03  0.22354104667E+02  0.14492157587E+03  0.76337152451E+02 0.  0.
          5    1    5    5  501    0 -0.50308924364E+02  0.11650847847E+01 -0.30427581720E+02  0.58993838853E+02  0.47000000000E+01 0. -1.
        -11    1    6    6    0    0 -0.13116475545E+02  0.15952905408E+02 -0.15212116524E+02  0.25650450499E+02  0.00000000000E+00 0.  1.
         12    1    6    6    0    0  0.61171888677E+02  0.95249044137E+02  0.37566221192E+02  0.11927112537E+03  0.00000000000E+00 0. -1.
         -5    1    3    3    0  503 -0.66086326400E+01 -0.10928808485E+03  0.68341608433E+02  0.12915194524E+03  0.47000000000E+01 0.  1.
         13    1    4    4    0    0  0.52618838019E+01  0.35058435344E+02  0.79676332420E+01  0.36335443982E+02  0.00000000000E+00 0. -1.
        -14    1    4    4    0    0  0.36002600707E+01 -0.38137384821E+02 -0.26035367796E+02  0.46316977123E+02  0.00000000000E+00 0.  1.
</event>
<event>
12    1  0.1046899E+000  0.2055818E+03  0.7818608E-02  0.1145543E+00
         21   -1    0    0  501  502  0.00000000000E+00  0.00000000000E+00  0.27526626666E+03  0.27526626666E+03  0.00000000000E+00 0.  1.
         21   -1    0    0  502  503 -0.00000000000E+00 -0.00000000000E+00 -0.45670697292E+03  0.45670697292E+03  0.00000000000E+00 0.  1.
         -6    2    1    2    0  503  0.84975692361E+02 -0.75178565485E+02  0.20807844746E+03  0.29250730795E+03  0.17143861848E+03 0.  0.
        -24    2    3    3    0    0 -0.64002641129E+01 -0.76835790452E+02  0.89223024603E+02  0.14250393012E+03  0.80011998516E+02 0.  0.
          6    2    1    2  501    0 -0.84975692361E+02  0.75178565485E+02 -0.38951915372E+03  0.43946593164E+03  0.16891550833E+03 0.  0.
         24    2    5    5    0    0  0.17167492671E+02  0.14350713573E+02 -0.17539785792E+03  0.19451026803E+03  0.81050416546E+02 0.  0.
          5    1    5    5  501    0 -0.10214318503E+03  0.60827851913E+02 -0.21412129580E+03  0.24495566361E+03  0.47000000000E+01 0. -1.
        -11    1    6    6    0    0  0.83656595455E+01 -0.33883626432E+02 -0.67255958917E+02  0.75772345943E+02  0.00000000000E+00 0.  1.
         12    1    6    6    0    0  0.88018331260E+01  0.48234340005E+02 -0.10814189900E+03  0.11873792209E+03  0.00000000000E+00 0. -1.
         -5    1    3    3    0  503  0.91375956473E+02  0.16572249666E+01  0.11885542286E+03  0.15000337782E+03  0.47000000000E+01 0.  1.
         13    1    4    4    0    0  0.32386354423E+01 -0.23123841750E+02  0.84572009303E+02  0.87736113285E+02  0.00000000000E+00 0. -1.
        -14    1    4    4    0    0 -0.96388995552E+01 -0.53711948702E+02  0.46510152994E+01  0.54767816839E+02  0.00000000000E+00 0.  1.
</event>
<event>
12    1  0.1046899E+000  0.1817431E+03  0.7818608E-02  0.1166552E+00
         21   -1    0    0  503  502  0.00000000000E+00  0.00000000000E+00  0.91661377655E+02  0.91661377655E+02  0.00000000000E+00 0.  1.
         21   -1    0    0  501  503 -0.00000000000E+00 -0.00000000000E+00 -0.36592825461E+03  0.36592825461E+03  0.00000000000E+00 0.  1.
          6    2    1    2  501    0 -0.17830024905E+02  0.54972656970E+02 -0.10174917982E+03  0.20828694403E+03  0.17230975787E+03 0.  0.
         24    2    3    3    0    0  0.31427220372E+02  0.20048022207E+02 -0.10037357952E+01  0.90738057106E+02  0.82721183183E+02 0.  0.
         -6    2    1    2    0  502  0.17830024905E+02 -0.54972656970E+02 -0.17251769714E+03  0.24930268824E+03  0.17043934914E+03 0.  0.
        -24    2    5    5    0    0  0.17841788803E+02  0.11818761839E+02 -0.16104509844E+03  0.18137033743E+03  0.80632890376E+02 0.  0.
          5    1    3    3  501    0 -0.49257245277E+02  0.34924634762E+02 -0.10074544402E+03  0.11754888692E+03  0.47000000000E+01 0. -1.
        -11    1    4    4    0    0  0.42048195920E+02  0.17190878869E+02 -0.33492112519E+02  0.56438450523E+02  0.00000000000E+00 0.  1.
         12    1    4    4    0    0 -0.10620975548E+02  0.28571433378E+01  0.32488376724E+02  0.34299606584E+02  0.00000000000E+00 0. -1.
         -5    1    5    5    0  502 -0.11763897988E-01 -0.66791418809E+02 -0.11472598700E+02  0.67932350804E+02  0.47000000000E+01 0.  1.
         13    1    6    6    0    0 -0.13966786857E+02 -0.28696317474E+02 -0.61785234209E+02  0.69541102507E+02  0.00000000000E+00 0. -1.
        -14    1    6    6    0    0  0.31808575660E+02  0.40515079313E+02 -0.99259864228E+02  0.11182923492E+03  0.00000000000E+00 0.  1.
</event>
<event>
12    1  0.1275936E+000  0.4738688E+03  0.7818608E-02  0.1020913E+00
         21   -1    0    0  503  502  0.00000000000E+00  0.00000000000E+00  0.49794063861E+03  0.49794063861E+03  0.00000000000E+00 0. -1.
         21   -1    0    0  501  503 -0.00000000000E+00 -0.00000000000E+00 -0.87088856129E+03  0.87088856129E+03  0.00000000000E+00 0. -1.
          6    2    1    2  501    0 -0.25176412179E+03 -0.36130193323E+03  0.28927439082E+03  0.55518580410E+03  0.17500669679E+03 0.  0.
         24    2    3    3    0    0 -0.17596251631E+03 -0.17452720483E+03  0.22257427081E+03  0.34281424629E+03  0.80992277762E+02 0.  0.
         -6    2    1    2    0  502  0.25176412179E+03  0.36130193323E+03 -0.66222231350E+03  0.81364339580E+03  0.17190963631E+03 0.  0.
        -24    2    5    5    0    0  0.14819543956E+03  0.29161847771E+03 -0.55535924510E+03  0.64925342864E+03  0.78121051222E+02 0.  0.
          5    1    3    3  501    0 -0.75801605482E+02 -0.18677472840E+03  0.66700120003E+02  0.21237155782E+03  0.47000000000E+01 0. -1.
        -11    1    4    4    0    0 -0.13449865996E+03 -0.17256591418E+03  0.17957587403E+03  0.28304836831E+03  0.00000000000E+00 0.  1.
         12    1    4    4    0    0 -0.41463856350E+02 -0.19612906466E+01  0.42998396786E+02  0.59765877979E+02  0.00000000000E+00 0. -1.
         -5    1    5    5    0  502  0.10356868224E+03  0.69683455519E+02 -0.10686306840E+03  0.16438996716E+03  0.47000000000E+01 0.  1.
         13    1    6    6    0    0  0.69510881829E+01  0.59190088887E+02 -0.14688639070E+03  0.15851623268E+03  0.00000000000E+00 0. -1.
        -14    1    6    6    0    0  0.14124435137E+03  0.23242838882E+03 -0.40847285439E+03  0.49073719596E+03  0.00000000000E+00 0.  1.
</event>
<event>
12    1  0.1046899E+000  0.1966789E+03  0.7818608E-02  0.1152655E+00
         21   -1    0    0  503  502  0.00000000000E+00  0.00000000000E+00  0.22243529136E+03  0.22243529136E+03  0.00000000000E+00 0.  1.
         21   -1    0    0  501  503 -0.00000000000E+00 -0.00000000000E+00 -0.17479404966E+03  0.17479404966E+03  0.00000000000E+00 0.  1.
          6    2    1    2  501    0 -0.70722069414E+01  0.97174517592E+02  0.71733875670E+01  0.19680969982E+03  0.17084992676E+03 0.  0.
         24    2    3    3    0    0  0.54577974736E+02  0.21786487598E+02  0.48231988616E+01  0.99281686643E+02  0.79876052026E+02 0.  0.
         -6    2    1    2    0  502  0.70722069414E+01 -0.97174517592E+02  0.40467854140E+02  0.20041964120E+03  0.17040388018E+03 0.  0.
        -24    2    5    5    0    0  0.25073527043E+01 -0.11906211502E+03 -0.64850601036E+01  0.14820306365E+03  0.87977372205E+02 0.  0.
          5    1    3    3  501    0 -0.61650181678E+02  0.75388029994E+02  0.23501887054E+01  0.97528013177E+02  0.47000000000E+01 0. -1.
        -13    1    4    4    0    0  0.45527302435E+02 -0.23237078412E+02  0.12744233988E+02  0.52679337316E+02  0.00000000000E+00 0.  1.
         14    1    4    4    0    0  0.90506723014E+01  0.45023566010E+02 -0.79210351265E+01  0.46602349327E+02  0.00000000000E+00 0. -1.
         -5    1    5    5    0  502  0.45648542370E+01  0.21887597427E+02  0.46952914244E+02  0.52216577553E+02  0.47000000000E+01 0.  1.
         13    1    6    6    0    0  0.26241496435E+02 -0.35569210463E+00  0.45875673957E+01  0.26641854790E+02  0.00000000000E+00 0. -1.
        -14    1    6    6    0    0 -0.23734143731E+02 -0.11870642291E+03 -0.11072627499E+02  0.12156120886E+03  0.00000000000E+00 0.  1.
</event>
<event>
12    1  0.1046899E+000  0.2060641E+03  0.7818608E-02  0.1144967E+00
         21   -1    0    0  501  502  0.00000000000E+00  0.00000000000E+00  0.99765279779E+03  0.99765279779E+03  0.00000000000E+00 0.  1.
         21   -1    0    0  502  503 -0.00000000000E+00 -0.00000000000E+00 -0.53655648752E+02  0.53655648752E+02  0.00000000000E+00 0.  1.
         -6    2    1    2    0  503  0.91892652213E+02  0.63071593862E+02  0.22922147010E+03  0.30742223719E+03  0.17188270441E+03 0.  0.
        -24    2    3    3    0    0  0.11418744365E+03  0.47967390412E+02  0.10683455431E+03  0.18201951854E+03  0.79861381813E+02 0.  0.
          6    2    1    2  501    0 -0.91892652213E+02 -0.63071593862E+02  0.71477567894E+03  0.74388620936E+03  0.17332090409E+03 0.  0.
         24    2    5    5    0    0  0.17332263824E+02 -0.37638990679E+01  0.26746161794E+03  0.27960241241E+03  0.79543809621E+02 0.  0.
          5    1    5    5  501    0 -0.10922491604E+03 -0.59307694794E+02  0.44731406099E+03  0.46428379695E+03  0.47000000000E+01 0. -1.
        -11    1    6    6    0    0  0.47842309156E+01 -0.28830644167E+02  0.23458086601E+03  0.23639432651E+03  0.00000000000E+00 0.  1.
         12    1    6    6    0    0  0.12548032908E+02  0.25066745099E+02  0.32880751937E+02  0.43208085906E+02  0.00000000000E+00 0. -1.
         -5    1    3    3    0  503 -0.22294791434E+02  0.15104203450E+02  0.12238691579E+03  0.12540271864E+03  0.47000000000E+01 0.  1.
         13    1    4    4    0    0  0.10321044147E+03  0.45371293600E+02  0.12001930088E+03  0.16466809677E+03  0.00000000000E+00 0. -1.
        -14    1    4    4    0    0  0.10977002180E+02  0.25960968118E+01 -0.13184746564E+02  0.17351421771E+02  0.00000000000E+00 0.  1.
</event>
<event>
12    1  0.1850168E+000  0.4802326E+03  0.7818608E-02  0.1019096E+00
         21   -1    0    0  501  502  0.00000000000E+00  0.00000000000E+00  0.42060264910E+03  0.42060264910E+03  0.00000000000E+00 0. -1.
         21   -1    0    0  502  503 -0.00000000000E+00 -0.00000000000E+00 -0.89779527624E+03  0.89779527624E+03  0.00000000000E+00 0. -1.
         -6    2    1    2    0  503 -0.36883076853E+03  0.25465433428E+03  0.17287078732E+03  0.51039954737E+03  0.17244831997E+03 0.  0.
        -24    2    3    3    0    0 -0.97404822148E+02  0.34390079664E+02  0.40435821221E+02  0.13656870798E+03  0.79659145138E+02 0.  0.
          6    2    1    2  501    0  0.36883076853E+03 -0.25465433428E+03 -0.65006341446E+03  0.80799837797E+03  0.17144669783E+03 0.  0.
         24    2    5    5    0    0  0.25939871399E+03 -0.21258629044E+03 -0.37793293853E+03  0.51165030424E+03  0.80449388440E+02 0.  0.
          5    1    5    5  501    0  0.10943205454E+03 -0.42068043847E+02 -0.27213047593E+03  0.29634807373E+03  0.47000000000E+01 0. -1.
        -11    1    6    6    0    0  0.15089419545E+03 -0.12526792992E+03 -0.27807860867E+03  0.34027757065E+03  0.00000000000E+00 0.  1.
         12    1    6    6    0    0  0.10850451854E+03 -0.87318360512E+02 -0.99854329866E+02  0.17137273359E+03  0.00000000000E+00 0. -1.
         -5    1    3    3    0  503 -0.27142594638E+03  0.22026425462E+03  0.13243496610E+03  0.37383083939E+03  0.47000000000E+01 0.  1.
         13    1    4    4    0    0  0.58115985239E+00  0.21556783910E+02 -0.12018420279E+02  0.24687549602E+02  0.00000000000E+00 0. -1.
        -14    1    4    4    0    0 -0.97985982000E+02  0.12833295754E+02  0.52454241500E+02  0.11188115838E+03  0.00000000000E+00 0.  1.
</event>
<event>
12    1  0.1046899E+000  0.1896296E+03  0.7818608E-02  0.1158924E+00
         21   -1    0    0  503  502  0.00000000000E+00  0.00000000000E+00  0.34194743012E+02  0.34194743012E+02  0.00000000000E+00 0.  1.
         21   -1    0    0  501  503 -0.00000000000E+00 -0.00000000000E+00 -0.10825664381E+04  0.10825664381E+04  0.00000000000E+00 0.  1.
          6    2    1    2  501    0  0.61480712388E+02 -0.48093465579E+02 -0.42585886443E+03  0.46617075542E+03  0.17281938945E+03 0.  0.
         24    2    3    3    0    0 -0.15884453873E+02 -0.35207216666E+02 -0.11245392004E+03  0.14306678836E+03  0.79563545795E+02 0.  0.
         -6    2    1    2    0  502 -0.61480712388E+02  0.48093465579E+02 -0.62251283066E+03  0.65059042569E+03  0.17219993682E+03 0.  0.
        -24    2    5    5    0    0 -0.10697730180E+03  0.20772186327E+02 -0.47129740561E+03  0.49026392532E+03  0.79761175477E+02 0.  0.
          5    1    3    3  501    0  0.77365166261E+02 -0.12886248913E+02 -0.31340494439E+03  0.32310396706E+03  0.47000000000E+01 0. -1.
        -11    1    4    4    0    0  0.15109184610E+02  0.19677324827E+02 -0.39615027571E+02  0.46742218404E+02  0.00000000000E+00 0.  1.
         12    1    4    4    0    0 -0.30993638483E+02 -0.54884541493E+02 -0.72838892469E+02  0.96324569957E+02  0.00000000000E+00 0. -1.
         -5    1    5    5    0  502  0.45496589410E+02  0.27321279252E+02 -0.15121542505E+03  0.16032650037E+03  0.47000000000E+01 0.  1.
         13    1    6    6    0    0 -0.21745754083E+02  0.35418101903E+02 -0.23481551519E+03  0.23846518810E+03  0.00000000000E+00 0. -1.
        -14    1    6    6    0    0 -0.85231547715E+02 -0.14645915576E+02 -0.23648189042E+03  0.25179873722E+03  0.00000000000E+00 0.  1.
</event>
<event>
12    1  0.1046899E+000  0.2229614E+03  0.7818608E-02  0.1132134E+00
         21   -1    0    0  501  502  0.00000000000E+00  0.00000000000E+00  0.13848995772E+03  0.13848995772E+03  0.00000000000E+00 0. -1.
         21   -1    0    0  502  503 -0.00000000000E+00 -0.00000000000E+00 -0.45910639567E+03  0.45910639567E+03  0.00000000000E+00 0. -1.
         -6    2    1    2    0  503  0.13261523122E+03 -0.22004344523E+02 -0.17439623257E+02  0.22126146043E+03  0.17487567778E+03 0.  0.
        -24    2    3    3    0    0  0.25960687664E+02  0.24336568527E+02  0.33799489218E+02  0.94099325609E+02  0.80287307447E+02 0.  0.
          6    2    1    2  501    0 -0.13261523122E+03  0.22004344523E+02 -0.30317681468E+03  0.37633489296E+03  0.17787855399E+03 0.  0.
         24    2    5    5    0    0 -0.15118880753E+02 -0.19292323843E+02 -0.19543208983E+03  0.21158713751E+03  0.77295800085E+02 0.  0.
          5    1    5    5  501    0 -0.11749635047E+03  0.41296668366E+02 -0.10774472485E+03  0.16474775545E+03  0.47000000000E+01 0. -1.
        -11    1    6    6    0    0 -0.26835611948E+02  0.21483455777E+02 -0.12230553550E+03  0.12704461010E+03  0.00000000000E+00 0.  1.
         12    1    6    6    0    0  0.11716731195E+02 -0.40775779620E+02 -0.73126554330E+02  0.84542527415E+02  0.00000000000E+00 0. -1.
         -5    1    3    3    0  503  0.10665454356E+03 -0.46340913049E+02 -0.51239112475E+02  0.12716213482E+03  0.47000000000E+01 0.  1.
         13    1    4    4    0    0 -0.19326566374E+02 -0.23026277142E+01 -0.13270943900E+02  0.23557084161E+02  0.00000000000E+00 0. -1.
        -14    1    4    4    0    0  0.45287254038E+02  0.26639196241E+02  0.47070433118E+02  0.70542241448E+02  0.00000000000E+00 0.  1.
</event>
<event>
12    1  0.1046899E+000  0.2365794E+03  0.7818608E-02  0.1122887E+00
         21   -1    0    0  501  502  0.00000000000E+00  0.00000000000E+00  0.47301262320E+03  0.47301262320E+03  0.00000000000E+00 0.  1.
         21   -1    0    0  502  503 -0.00000000000E+00 -0.00000000000E+00 -0.18983506765E+03  0.18983506765E+03  0.00000000000E+00 0. -1.
         -6    2    1    2    0  503 -0.11269195849E+03 -0.11545563754E+03  0.34910175657E+03  0.42171300218E+03  0.17303276573E+03 0.  0.
        -24    2    3    3    0    0 -0.86370795351E+02 -0.14552631055E+03  0.32371269111E+03  0.37413418705E+03  0.80923804819E+02 0.  0.
          6    2    1    2  501    0  0.11269195849E+03  0.11545563754E+03 -0.65924201016E+02  0.24113468867E+03  0.16664470005E+03 0.  0.
         24    2    5    5    0    0  0.55901938680E+02 -0.29624089205E+01 -0.70786404534E+01  0.97145695773E+02  0.79078293114E+02 0.  0.
          5    1    5    5  501    0  0.56790019807E+02  0.11841804646E+03 -0.58845560562E+02  0.14398899290E+03  0.47000000000E+01 0. -1.
        -11    1    6    6    0    0  0.62354954401E+02  0.20447030831E+02 -0.21316009279E+02  0.68997055443E+02  0.00000000000E+00 0.  1.
         12    1    6    6    0    0 -0.64530157217E+01 -0.23409439751E+02  0.14237368826E+02  0.28148640331E+02  0.00000000000E+00 0. -1.
         -5    1    3    3    0  503 -0.26321163135E+02  0.30070673003E+02  0.25389065462E+02  0.47578815125E+02  0.47000000000E+01 0.  1.
         11    1    4    4    0    0 -0.44720810759E+02 -0.13820751386E+03  0.24791198159E+03  0.28733537620E+03  0.00000000000E+00 0. -1.
        -12    1    4    4    0    0 -0.41649984592E+02 -0.73187966880E+01  0.75800709518E+02  0.86798810850E+02  0.00000000000E+00 0.  1.
</event>
<event>
12    1  0.1046899E+000  0.2184882E+03  0.7818608E-02  0.1135331E+00
         21   -1    0    0  501  502  0.00000000000E+00  0.00000000000E+00  0.18203515785E+03  0.18203515785E+03  0.00000000000E+00 0. -1.
         21   -1    0    0  502  503 -0.00000000000E+00 -0.00000000000E+00 -0.49004510091E+03  0.49004510091E+03  0.00000000000E+00 0. -1.
         -6    2    1    2    0  503  0.55111151705E+01 -0.13196510226E+03  0.76429811794E+02  0.22989138788E+03  0.17194002874E+03 0.  0.
        -24    2    3    3    0    0  0.21738201564E+02 -0.60297834793E+02 -0.24474146449E+02  0.10497856088E+03  0.79455245970E+02 0.  0.
          6    2    1    2  501    0 -0.55111151705E+01  0.13196510226E+03 -0.38443975485E+03  0.44218887088E+03  0.17404571761E+03 0.  0.
         24    2    5    5    0    0  0.69013400147E+02  0.89664557941E+02 -0.26133538769E+03  0.29212217023E+03  0.65089132169E+02 0.  0.
          5    1    5    5  501    0 -0.74524515317E+02  0.42300544319E+02 -0.12310436716E+03  0.15006670066E+03  0.47000000000E+01 0. -1.
        -13    1    6    6    0    0  0.19612482097E+02  0.51869961454E+02 -0.18776030238E+03  0.19577812315E+03  0.00000000000E+00 0.  1.
         14    1    6    6    0    0  0.49400918049E+02  0.37794596488E+02 -0.73575085313E+02  0.96344047074E+02  0.00000000000E+00 0. -1.
         -5    1    3    3    0  503 -0.16227086394E+02 -0.71667267468E+02  0.10090395824E+03  0.12491282700E+03  0.47000000000E+01 0.  1.
         13    1    4    4    0    0  0.20997744350E+02 -0.60899613745E+01  0.23849928305E+02  0.32354473841E+02  0.00000000000E+00 0. -1.
        -14    1    4    4    0    0  0.74045721384E+00 -0.54207873419E+02 -0.48324074754E+02  0.72624087039E+02  0.00000000000E+00 0.  1.
</event>
<event>
12    1  0.1046899E+000  0.2314477E+03  0.7818608E-02  0.1125819E+00
         21   -1    0    0  503  502  0.00000000000E+00  0.00000000000E+00  0.53343445100E+02  0.53343445100E+02  0.00000000000E+00 0. -1.
         21   -1    0    0  501  503 -0.00000000000E+00 -0.00000000000E+00 -0.10372795239E+04  0.10372795239E+04  0.00000000000E+00 0. -1.
          6    2    1    2  501    0 -0.15283418238E+03 -0.20993673884E+02 -0.59729052529E+03  0.64056536866E+03  0.17253694757E+03 0.  0.
         24    2    3    3    0    0 -0.13113566055E+03  0.18090706283E+02 -0.56457999626E+03  0.58497325292E+03  0.76936982888E+02 0.  0.
         -6    2    1    2    0  502  0.15283418238E+03  0.20993673884E+02 -0.38664555348E+03  0.45005760031E+03  0.17104981123E+03 0.  0.
        -24    2    5    5    0    0  0.15001124240E+03 -0.35248210356E+02 -0.27901654803E+03  0.32849604657E+03  0.79458223977E+02 0.  0.
          5    1    3    3  501    0 -0.21698521836E+02 -0.39084380168E+02 -0.32710529035E+02  0.55592115742E+02  0.47000000000E+01 0. -1.
        -13    1    4    4    0    0 -0.10321805824E+03 -0.34071643009E+01 -0.50743989124E+03  0.51784246595E+03  0.00000000000E+00 0.  1.
         14    1    4    4    0    0 -0.27917602306E+02  0.21497870584E+02 -0.57140105016E+02  0.67130786971E+02  0.00000000000E+00 0. -1.
         -5    1    5    5    0  502  0.28229399817E+01  0.56241884241E+02 -0.10762900545E+03  0.12156155374E+03  0.47000000000E+01 0.  1.
         11    1    6    6    0    0  0.56657730084E+02 -0.48681727355E+02 -0.87745571223E+02  0.11523582006E+03  0.00000000000E+00 0. -1.
        -12    1    6    6    0    0  0.93353512319E+02  0.13433516999E+02 -0.19127097680E+03  0.21326022651E+03  0.00000000000E+00 0.  1.
</event>
<event>
12    1  0.1046899E+000  0.2246832E+03  0.7818608E-02  0.1130493E+00
         21   -1    0    0  501  502  0.00000000000E+00  0.00000000000E+00  0.50366212733E+02  0.50366212733E+02  0.00000000000E+00 0. -1.
         21   -1    0    0  502  503 -0.00000000000E+00 -0.00000000000E+00 -0.10654055389E+04  0.10654055389E+04  0.00000000000E+00 0. -1.
         -6    2    1    2    0  503  0.11240749899E+03  0.90693900392E+02 -0.37000158215E+03  0.43272253550E+03  0.17171718764E+03 0.  0.
        -24    2    3    3    0    0 -0.22896809066E+01  0.73502063798E+02 -0.18525715219E+03  0.21454005058E+03  0.79368916105E+02 0.  0.
          6    2    1    2  501    0 -0.11240749899E+03 -0.90693900392E+02 -0.64503774397E+03  0.68304921609E+03  0.17210959026E+03 0.  0.
         24    2    5    5    0    0 -0.59490576948E+02 -0.87879010784E+02 -0.59751855641E+03  0.61171698335E+03  0.76859567905E+02 0.  0.
          5    1    5    5  501    0 -0.52916922043E+02 -0.28148896082E+01 -0.47519187557E+02  0.71332232743E+02  0.47000000000E+01 0. -1.
        -13    1    6    6    0    0 -0.69378187294E+02 -0.64172336753E+02 -0.33903860014E+03  0.35196391017E+03  0.00000000000E+00 0.  1.
         14    1    6    6    0    0  0.98876103460E+01 -0.23706674031E+02 -0.25847995627E+03  0.25975307318E+03  0.00000000000E+00 0. -1.
         -5    1    3    3    0  503  0.11469717990E+03  0.17191836594E+02 -0.18474442996E+03  0.21818248491E+03  0.47000000000E+01 0.  1.
         11    1    4    4    0    0  0.25059975046E+02  0.34514156306E+02 -0.14814594139E+03  0.15416370937E+03  0.00000000000E+00 0. -1.
        -12    1    4    4    0    0 -0.27349655953E+02  0.38987907491E+02 -0.37111210800E+02  0.60376341214E+02  0.00000000000E+00 0.  1.
</event>
<event>
12    1  0.1046899E+000  0.4531863E+03  0.7818608E-02  0.1026812E+00
         21   -1    0    0  501  502  0.00000000000E+00  0.00000000000E+00  0.15611892517E+03  0.15611892517E+03  0.00000000000E+00 0. -1.
         21   -1    0    0  502  503 -0.00000000000E+00 -0.00000000000E+00 -0.14221091618E+04  0.14221091618E+04  0.00000000000E+00 0. -1.
         -6    2    1    2    0  503  0.38178893360E+03 -0.17283534289E+03 -0.85013659466E+03  0.96315732410E+03  0.17118690318E+03 0.  0.
        -24    2    3    3    0    0  0.18607803080E+03 -0.39667702241E+02 -0.49467625454E+03  0.53606187647E+03  0.80369014253E+02 0.  0.
          6    2    1    2  501    0 -0.38178893360E+03  0.17283534289E+03 -0.41585364197E+03  0.61507076288E+03  0.17246143406E+03 0.  0.
         24    2    5    5    0    0 -0.22272455047E+03  0.65269057193E+02 -0.31124501982E+03  0.39635396511E+03  0.79729091855E+02 0.  0.
          5    1    5    5  501    0 -0.15906438313E+03  0.10756628570E+03 -0.10460862216E+03  0.21871679777E+03  0.47000000000E+01 0. -1.
        -11    1    6    6    0    0 -0.67043986411E+02  0.79683999757E+01 -0.40215476853E+02  0.78585469971E+02  0.00000000000E+00 0.  1.
         12    1    6    6    0    0 -0.15568056406E+03  0.57300657217E+02 -0.27102954296E+03  0.31776849514E+03  0.00000000000E+00 0. -1.
         -5    1    3    3    0  503  0.19571090280E+03 -0.13316764065E+03 -0.35546034012E+03  0.42709544763E+03  0.47000000000E+01 0.  1.
         11    1    4    4    0    0  0.16839878044E+03 -0.44049795521E+02 -0.48530791184E+03  0.51557957973E+03  0.00000000000E+00 0. -1.
        -12    1    4    4    0    0  0.17679250361E+02  0.43820932797E+01 -0.93683426981E+01  0.20482296740E+02  0.00000000000E+00 0.  1.
</event>
<event>
12    1  0.1046899E+000  0.2840517E+03  0.7818608E-02  0.1093514E+00
         21   -1    0    0  501  502  0.00000000000E+00  0.00000000000E+00  0.10975809038E+04  0.10975809038E+04  0.00000000000E+00 0. -1.
         21   -1    0    0  502  503 -0.00000000000E+00 -0.00000000000E+00 -0.13522691896E+03  0.13522691896E+03  0.00000000000E+00 0.  1.
         -6    2    1    2    0  503 -0.19108341094E+03  0.12094881324E+03  0.89764736543E+03  0.94147928114E+03  0.17167107734E+03 0.  0.
        -24    2    3    3    0    0 -0.42911206560E+02  0.91229476714E+02  0.49323097847E+03  0.50972362668E+03  0.79857300273E+02 0.  0.
          6    2    1    2  501    0  0.19108341094E+03 -0.12094881324E+03  0.64706619383E+02  0.29132854159E+03  0.17188335344E+03 0.  0.
         24    2    5    5    0    0  0.20338427290E+03 -0.12489414784E+03  0.30648239468E+02  0.25460062152E+03  0.83177228054E+02 0.  0.
          5    1    5    5  501    0 -0.12300861961E+02  0.39453345972E+01  0.34058379915E+02  0.36727920068E+02  0.47000000000E+01 0. -1.
        -13    1    6    6    0    0  0.15883072359E+03 -0.79183056899E+02 -0.11923789047E+02  0.17787448384E+03  0.00000000000E+00 0.  1.
         14    1    6    6    0    0  0.44553549312E+02 -0.45711090941E+02  0.42572028515E+02  0.76726137679E+02  0.00000000000E+00 0. -1.
         -5    1    3    3    0  503 -0.14817220438E+03  0.29719336528E+02  0.40441638696E+03  0.43175565446E+03  0.47000000000E+01 0.  1.
         13    1    4    4    0    0 -0.60762942493E+01 -0.37354157870E+01  0.11666718878E+01  0.72274342750E+01  0.00000000000E+00 0. -1.
        -14    1    4    4    0    0 -0.36834912311E+02  0.94964892501E+02  0.49206430658E+03  0.50249619241E+03  0.00000000000E+00 0.  1.
</event>
<event>
12    1  0.1046899E+000  0.2172943E+03  0.7818608E-02  0.1136031E+00
         21   -1    0    0  503  502  0.00000000000E+00  0.00000000000E+00  0.17529052923E+04  0.17529052923E+04  0.00000000000E+00 0. -1.
         21   -1    0    0  501  503 -0.00000000000E+00 -0.00000000000E+00 -0.33044206961E+02  0.33044206961E+02  0.00000000000E+00 0. -1.
          6    2    1    2  501    0 -0.13163063949E+03  0.23001038086E+01  0.47464818797E+03  0.52202272272E+03  0.17287251071E+03 0.  0.
         24    2    3    3    0    0 -0.12939778070E+03  0.11282396664E+02  0.21816288817E+03  0.26532744373E+03  0.77022908894E+02 0.  0.
         -6    2    1    2    0  502  0.13163063949E+03 -0.23001038086E+01  0.12452128974E+04  0.12639267766E+04  0.17211571970E+03 0.  0.
        -24    2    5    5    0    0  0.12062739833E+03  0.52291042878E+02  0.95755433547E+03  0.97088957269E+03  0.91820120786E+02 0.  0.
          5    1    3    3  501    0 -0.22328587925E+01 -0.89822928556E+01  0.25648529980E+03  0.25669527899E+03  0.47000000000E+01 0. -1.
        -13    1    4    4    0    0 -0.85491543497E+02 -0.17838660504E+02  0.83928811341E+02  0.12112418087E+03  0.00000000000E+00 0.  1.
         14    1    4    4    0    0 -0.43906237199E+02  0.29121057169E+02  0.13423407683E+03  0.14420326286E+03  0.00000000000E+00 0. -1.
         -5    1    5    5    0  502  0.11003241161E+02 -0.54591146686E+02  0.28765856194E+03  0.29303720390E+03  0.47000000000E+01 0.  1.
         13    1    6    6    0    0  0.57185742003E+01  0.41916008215E+02  0.34296825236E+03  0.34556746948E+03  0.00000000000E+00 0. -1.
        -14    1    6    6    0    0  0.11490882413E+03  0.10375034662E+02  0.61458608311E+03  0.62532210321E+03  0.00000000000E+00 0.  1.
</event>
<event>
12    1  0.1046899E+000  0.2307615E+03  0.7818608E-02  0.1126300E+00
         21   -1    0    0  501  502  0.00000000000E+00  0.00000000000E+00  0.39390080270E+03  0.39390080270E+03  0.00000000000E+00 0. -1.
         21   -1    0    0  502  503 -0.00000000000E+00 -0.00000000000E+00 -0.13461947775E+03  0.13461947775E+03  0.00000000000E+00 0. -1.
         -6    2    1    2    0  503  0.10796684261E+03 -0.10915777719E+03  0.12345579844E+03  0.26171018600E+03  0.17227486138E+03 0.  0.
        -24    2    3    3    0    0  0.87313377417E+02 -0.80796704971E+00  0.46186685363E+02  0.12695539826E+03  0.79750765239E+02 0.  0.
          6    2    1    2  501    0 -0.10796684261E+03  0.10915777719E+03  0.13582552650E+03  0.26681009444E+03  0.17078288386E+03 0.  0.
         24    2    5    5    0    0 -0.12434710601E+03  0.40088583093E+02  0.11697151817E+03  0.19321369349E+03  0.81116570565E+02 0.  0.
          5    1    5    5  501    0  0.16380263403E+02  0.69069194101E+02  0.18854008334E+02  0.73596400952E+02  0.47000000000E+01 0. -1.
        -11    1    6    6    0    0 -0.33473164430E+02  0.49403633507E+02  0.64476824884E+02  0.87854611079E+02  0.00000000000E+00 0.  1.
         12    1    6    6    0    0 -0.90873941583E+02 -0.93150504138E+01  0.52494693286E+02  0.10535908241E+03  0.00000000000E+00 0. -1.
         -5    1    3    3    0  503  0.20653465193E+02 -0.10834981014E+03  0.77269113080E+02  0.13475478774E+03  0.47000000000E+01 0.  1.
         11    1    4    4    0    0  0.13561478922E+02  0.30335191257E+02  0.31052759324E+02  0.45479791125E+02  0.00000000000E+00 0. -1.
        -12    1    4    4    0    0  0.73751898495E+02 -0.31143158307E+02  0.15133926040E+02  0.81475607137E+02  0.00000000000E+00 0.  1.
</event>
<event>
12    1  0.1046899E+000  0.3196579E+03  0.7818608E-02  0.1076014E+00
         21   -1    0    0  503  502  0.00000000000E+00  0.00000000000E+00  0.88289663583E+03  0.88289663583E+03  0.00000000000E+00 0. -1.
         21   -1    0    0  501  503 -0.00000000000E+00 -0.00000000000E+00 -0.19629458477E+03  0.19629458477E+03  0.00000000000E+00 0. -1.
          6    2    1    2  501    0 -0.55562002905E+02 -0.26279833048E+03  0.68980422123E+03  0.75951724492E+03  0.16996023957E+03 0.  0.
         24    2    3    3    0    0  0.24916417177E+02 -0.17649909372E+03  0.37684561024E+03  0.42501834125E+03  0.82796246967E+02 0.  0.
         -6    2    1    2    0  502  0.55562002905E+02  0.26279833048E+03 -0.32021701743E+01  0.31967397568E+03  0.17329483018E+03 0.  0.
        -24    2    5    5    0    0  0.12790905050E+02  0.16213757117E+03 -0.66633799575E+02  0.19315276448E+03  0.80098239325E+02 0.  0.
          5    1    3    3  501    0 -0.80478420083E+02 -0.86299236759E+02  0.31295861099E+03  0.33449890367E+03  0.47000000000E+01 0. -1.
        -13    1    4    4    0    0 -0.20818289015E+02 -0.12800020918E+03  0.25776756086E+03  0.28855081033E+03  0.00000000000E+00 0.  1.
         14    1    4    4    0    0  0.45734706192E+02 -0.48498884536E+02  0.11907804938E+03  0.13646753092E+03  0.00000000000E+00 0. -1.
         -5    1    5    5    0  502  0.42771097855E+02  0.10066075931E+03  0.63431629400E+02  0.12652121120E+03  0.47000000000E+01 0.  1.
         11    1    6    6    0    0  0.41527450751E+02  0.64282826159E+02 -0.12034230065E+02  0.77470211037E+02  0.00000000000E+00 0. -1.
        -12    1    6    6    0    0 -0.28736545701E+02  0.97854745010E+02 -0.54599569510E+02  0.11568255344E+03  0.00000000000E+00 0.  1.
</event>
<event>
12    1  0.1046899E+000  0.2036999E+03  0.7818608E-02  0.1147028E+00
         21   -1    0    0  503  502  0.00000000000E+00  0.00000000000E+00  0.24628235571E+03  0.24628235571E+03  0.00000000000E+00 0.  1.
         21   -1    0    0  501  503 -0.00000000000E+00 -0.00000000000E+00 -0.22128541248E+03  0.22128541248E+03  0.00000000000E+00 0.  1.
          6    2    1    2  501    0  0.11007195644E+03 -0.91599301765E+01 -0.10334472625E+03  0.22680810436E+03  0.16900308827E+03 0.  0.
         24    2    3    3    0    0  0.41946859289E+02  0.39982885750E+02 -0.72906512904E+02  0.13733956212E+03  0.10093872172E+03 0.  0.
         -6    2    1    2    0  502 -0.11007195644E+03  0.91599301765E+01  0.12834166949E+03  0.24075966383E+03  0.17115458417E+03 0.  0.
        -24    2    5    5    0    0  0.67032758347E+00  0.32717257598E+02  0.37656328244E+02  0.95622755140E+02  0.81577226969E+02 0.  0.
          5    1    3    3  501    0  0.68125097155E+02 -0.49142815927E+02 -0.30438213351E+02  0.89468542246E+02  0.47000000000E+01 0. -1.
        -11    1    4    4    0    0 -0.23938683334E+02 -0.74653050181E+01  0.41330114799E+01  0.25414033971E+02  0.00000000000E+00 0.  1.
         12    1    4    4    0    0  0.65885542623E+02  0.47448190768E+02 -0.77039524384E+02  0.11192552815E+03  0.00000000000E+00 0. -1.
         -5    1    5    5    0  502 -0.11074228403E+03 -0.23557327421E+02  0.90685341246E+02  0.14513690869E+03  0.47000000000E+01 0.  1.
         13    1    6    6    0    0 -0.39913826273E+02  0.11274073905E+02  0.23070843786E+02  0.47460321355E+02  0.00000000000E+00 0. -1.
        -14    1    6    6    0    0  0.40584153857E+02  0.21443183693E+02  0.14585484458E+02  0.48162433784E+02  0.00000000000E+00 0.  1.
</event>
<event>
12    1  0.1046899E+000  0.1750152E+03  0.7818608E-02  0.1172818E+00
         21   -1    0    0  503  502  0.00000000000E+00  0.00000000000E+00  0.57584920947E+03  0.57584920947E+03  0.00000000000E+00 0. -1.
         21   -1    0    0  501  503 -0.00000000000E+00 -0.00000000000E+00 -0.54455808819E+02  0.54455808819E+02  0.00000000000E+00 0. -1.
          6    2    1    2  501    0  0.31067340580E+02  0.14074117374E+02  0.21068708372E+03  0.27389660523E+03  0.17165967109E+03 0.  0.
         24    2    3    3    0    0  0.83536391059E+02  0.17358931168E+02  0.16710594232E+03  0.20544810528E+03  0.83695082775E+02 0.  0.
         -6    2    1    2    0  502 -0.31067340580E+02 -0.14074117374E+02  0.31070631693E+03  0.35640841306E+03  0.17124625861E+03 0.  0.
        -24    2    5    5    0    0  0.32982291378E+02 -0.27889587283E+02  0.25513952646E+03  0.27036783678E+03  0.78338551059E+02 0.  0.
          5    1    3    3  501    0 -0.52469050479E+02 -0.32848137944E+01  0.43581141396E+02  0.68448499948E+02  0.47000000000E+01 0. -1.
        -11    1    4    4    0    0  0.35974643930E+02  0.26301833043E+02  0.16937965020E+02  0.47674480452E+02  0.00000000000E+00 0.  1.
         12    1    4    4    0    0  0.47561747129E+02 -0.89429018749E+01  0.15016797730E+03  0.15777362483E+03  0.00000000000E+00 0. -1.
         -5    1    5    5    0  502 -0.64049631958E+02  0.13815469909E+02  0.55566790474E+02  0.86040576279E+02  0.47000000000E+01 0.  1.
         13    1    6    6    0    0  0.44360180626E+01 -0.18719969739E+02  0.23120321303E+03  0.23200224404E+03  0.00000000000E+00 0. -1.
        -14    1    6    6    0    0  0.28546273315E+02 -0.91696175437E+01  0.23936313427E+02  0.38365592743E+02  0.00000000000E+00 0.  1.
</event>
<event>
12    1  0.1046899E+000  0.1776569E+03  0.7818608E-02  0.1170231E+00
         21   -1    0    0  503  502  0.00000000000E+00  0.00000000000E+00  0.55397198037E+03  0.55397198037E+03  0.00000000000E+00 0.  1.
         21   -1    0    0  501  503 -0.00000000000E+00 -0.00000000000E+00 -0.91651150289E+02  0.91651150289E+02  0.00000000000E+00 0.  1.
          6    2    1    2  501    0  0.34837652674E+02 -0.28401646786E+02  0.43048127634E+03  0.46569957505E+03  0.17187684352E+03 0.  0.
         24    2    3    3    0    0  0.40445178497E+01  0.48618471538E+02  0.21596991751E+03  0.23566147202E+03  0.80704462241E+02 0.  0.
         -6    2    1    2    0  502 -0.34837652674E+02  0.28401646786E+02  0.31839553742E+02  0.17992355561E+03  0.17128459679E+03 0.  0.
        -24    2    5    5    0    0  0.27111361663E+02 -0.22954602881E+02 -0.13399127261E+02  0.87491023369E+02  0.78823872236E+02 0.  0.
          5    1    3    3  501    0  0.30793134825E+02 -0.77020118324E+02  0.21451135882E+03  0.23003810303E+03  0.47000000000E+01 0. -1.
        -13    1    4    4    0    0  0.18211276265E+02 -0.83443615965E+01  0.11861298749E+02  0.23280235430E+02  0.00000000000E+00 0.  1.
         14    1    4    4    0    0 -0.14166758415E+02  0.56962833135E+02  0.20410861876E+03  0.21238123659E+03  0.00000000000E+00 0. -1.
         -5    1    5    5    0  502 -0.61949014338E+02  0.51356249667E+02  0.45238681002E+02  0.92432532239E+02  0.47000000000E+01 0.  1.
         13    1    6    6    0    0 -0.64038753407E+01  0.18919311934E+02  0.16657865445E+02  0.26008353747E+02  0.00000000000E+00 0. -1.
        -14    1    6    6    0    0  0.33515237004E+02 -0.41873914816E+02 -0.30056992706E+02  0.61482669623E+02  0.00000000000E+00 0.  1.
</event>
<event>
12    1  0.1046899E+000  0.2381961E+03  0.7818608E-02  0.1121239E+00
         21   -1    0    0  501  502  0.00000000000E+00  0.00000000000E+00  0.12531436844E+04  0.12531436844E+04  0.00000000000E+00 0.  1.
         21   -1    0    0  502  503 -0.00000000000E+00 -0.00000000000E+00 -0.72533379042E+02  0.72533379042E+02  0.00000000000E+00 0.  1.
         -6    2    1    2    0  503 -0.14048027983E+03 -0.81392331450E+02  0.99972755660E+03  0.10277122990E+04  0.17429274648E+03 0.  0.
        -24    2    3    3    0    0 -0.78752863401E+02 -0.99988269923E+02  0.87187037158E+03  0.88444460332E+03  0.76711432607E+02 0.  0.
          6    2    1    2  501    0  0.14048027983E+03  0.81392331450E+02  0.18088274878E+03  0.29796476445E+03  0.17235141835E+03 0.  0.
         24    2    5    5    0    0  0.34103437531E+02 -0.14345826725E+02  0.50621451989E+02  0.10438810534E+03  0.83459558710E+02 0.  0.
          5    1    5    5  501    0  0.10637684230E+03  0.95738158174E+02  0.13026129679E+03  0.19357665910E+03  0.47000000000E+01 0. -1.
        -11    1    6    6    0    0  0.27876430741E+02 -0.45803533087E+02  0.13421238218E+02  0.55273761129E+02  0.00000000000E+00 0.  1.
         12    1    6    6    0    0  0.62270067900E+01  0.31457706362E+02  0.37200213770E+02  0.49114344215E+02  0.00000000000E+00 0. -1.
         -5    1    3    3    0  503 -0.61727416432E+02  0.18595938473E+02  0.12785718502E+03  0.14326769569E+03  0.47000000000E+01 0.  1.
         11    1    4    4    0    0 -0.83335351937E+02 -0.49824106883E+02  0.52001574579E+03  0.52900245593E+03  0.00000000000E+00 0. -1.
        -12    1    4    4    0    0  0.45824885353E+01 -0.50164163040E+02  0.35185462578E+03  0.35544214739E+03  0.00000000000E+00 0.  1.
</event>
<event>
12    1  0.1046899E+000  0.1887573E+03  0.7818608E-02  0.1159657E+00
         21   -1    0    0  503  502  0.00000000000E+00  0.00000000000E+00  0.32220593746E+02  0.32220593746E+02  0.00000000000E+00 0.  1.
         21   -1    0    0  501  503 -0.00000000000E+00 -0.00000000000E+00 -0.11043021827E+04  0.11043021827E+04  0.00000000000E+00 0.  1.
          6    2    1    2  501    0 -0.64322216959E+02 -0.42702029105E+02 -0.52680245074E+03  0.55959818792E+03  0.17224546128E+03 0.  0.
         24    2    3    3    0    0 -0.34458484261E+02 -0.92397106379E+02 -0.29167980458E+03  0.31738713950E+03  0.77025161595E+02 0.  0.
         -6    2    1    2    0  502  0.64322216959E+02  0.42702029105E+02 -0.54527913823E+03  0.57692458854E+03  0.17190646117E+03 0.  0.
        -24    2    5    5    0    0 -0.20845316225E+02  0.50929472662E+02 -0.35211004837E+03  0.36560117097E+03  0.81574454701E+02 0.  0.
          5    1    3    3  501    0 -0.29863732698E+02  0.49695077274E+02 -0.23512264616E+03  0.24221104841E+03  0.47000000000E+01 0. -1.
        -13    1    4    4    0    0 -0.38876687987E+02 -0.16850142883E+02 -0.58485919853E+02  0.72221374988E+02  0.00000000000E+00 0.  1.
         14    1    4    4    0    0  0.44182037259E+01 -0.75546963496E+02 -0.23319388472E+03  0.24516576452E+03  0.00000000000E+00 0. -1.
         -5    1    5    5    0  502  0.85167533184E+02 -0.82274435566E+01 -0.19316908986E+03  0.21132341757E+03  0.47000000000E+01 0.  1.
         13    1    6    6    0    0 -0.76733606565E+01 -0.74636051159E+00  0.16165727555E+01  0.78772346196E+01  0.00000000000E+00 0. -1.
        -14    1    6    6    0    0 -0.13171955568E+02  0.51675833173E+02 -0.35372662112E+03  0.35772393635E+03  0.00000000000E+00 0.  1.
</event>
<event>
12    1  0.1046899E+000  0.2127184E+03  0.7818608E-02  0.1139897E+00
         21   -1    0    0  503  502  0.00000000000E+00  0.00000000000E+00  0.11475843315E+04  0.11475843315E+04  0.00000000000E+00 0.  1.
         21   -1    0    0  501  503 -0.00000000000E+00 -0.00000000000E+00 -0.85556015700E+02  0.85556015700E+02  0.00000000000E+00 0.  1.
          6    2    1    2  501    0  0.10475824567E+03  0.63271339237E+02  0.77504105955E+02  0.22639786950E+03  0.17398723076E+03 0.  0.
         24    2    3    3    0    0  0.14690012179E+02 -0.23834718495E+02  0.51037935024E+02  0.98248346746E+02  0.79145287689E+02 0.  0.
         -6    2    1    2    0  502 -0.10475824567E+03 -0.63271339237E+02  0.98452420988E+03  0.10067424777E+04  0.17106999807E+03 0.  0.
        -24    2    5    5    0    0 -0.49660509515E+02  0.29133294554E+02  0.50822715687E+03  0.51842357622E+03  0.84576866475E+02 0.  0.
          5    1    3    3  501    0  0.90068233488E+02  0.87106057732E+02  0.26466170930E+02  0.12814952275E+03  0.47000000000E+01 0. -1.
        -11    1    4    4    0    0 -0.16285814570E+01  0.19769823164E+02  0.47594744239E+02  0.51563144441E+02  0.00000000000E+00 0.  1.
         12    1    4    4    0    0  0.16318593636E+02 -0.43604541658E+02  0.34431907854E+01  0.46685202305E+02  0.00000000000E+00 0. -1.
         -5    1    5    5    0  502 -0.55097736152E+02 -0.92404633791E+02  0.47629705300E+03  0.48831890151E+03  0.47000000000E+01 0.  1.
         11    1    6    6    0    0  0.10615192749E+02 -0.14342814792E+02  0.33899428176E+02  0.38308874741E+02  0.00000000000E+00 0. -1.
        -12    1    6    6    0    0 -0.60275702264E+02  0.43476109346E+02  0.47432772870E+03  0.48011470148E+03  0.00000000000E+00 0.  1.
</event>
<event>
12    1  0.1046899E+000  0.2958720E+03  0.7818608E-02  0.1087878E+00
         21   -1    0    0  503  502  0.00000000000E+00  0.00000000000E+00  0.19805242821E+03  0.19805242821E+03  0.00000000000E+00 0.  1.
         21   -1    0    0  501  503 -0.00000000000E+00 -0.00000000000E+00 -0.46930147069E+03  0.46930147069E+03  0.00000000000E+00 0.  1.
          6    2    1    2  501    0  0.16065704693E+03 -0.17205150825E+03 -0.47086600269E+02  0.29959538638E+03  0.17924240400E+03 0.  0.
         24    2    3    3    0    0  0.15652327042E+03 -0.80861134069E+02  0.59925298869E+01  0.19389649088E+03  0.80758167221E+02 0.  0.
         -6    2    1    2    0  502 -0.16065704693E+03  0.17205150825E+03 -0.22416244221E+03  0.36775851253E+03  0.17200324073E+03 0.  0.
        -24    2    5    5    0    0 -0.68878810794E+02  0.77593669058E+02 -0.41913777260E+02  0.14285365734E+03  0.88799406731E+02 0.  0.
          5    1    3    3  501    0  0.41337765080E+01 -0.91190374181E+02 -0.53079130156E+02  0.10569889550E+03  0.47000000000E+01 0. -1.
        -13    1    4    4    0    0  0.10622742238E+03 -0.90325992752E+02  0.19926363478E+02  0.14085492605E+03  0.00000000000E+00 0.  1.
         14    1    4    4    0    0  0.50295848042E+02  0.94648586837E+01 -0.13933833591E+02  0.53041564822E+02  0.00000000000E+00 0. -1.
         -5    1    5    5    0  502 -0.91778236138E+02  0.94457839192E+02 -0.18224866495E+03  0.22490485519E+03  0.47000000000E+01 0.  1.
         13    1    6    6    0    0 -0.71748851807E+02  0.34816812343E+02 -0.56311879872E+02  0.97627536956E+02  0.00000000000E+00 0. -1.
        -14    1    6    6    0    0  0.28700410133E+01  0.42776856715E+02  0.14398102612E+02  0.45226120380E+02  0.00000000000E+00 0.  1.
</event>
<event>
12    1  0.1046899E+000  0.2110335E+03  0.7818608E-02  0.1142612E+00
         21   -1    0    0  503  502  0.00000000000E+00  0.00000000000E+00  0.23948723527E+02  0.23948723527E+02  0.00000000000E+00 0. -1.
         21   -1    0    0  501  503 -0.00000000000E+00 -0.00000000000E+00 -0.17801648376E+04  0.17801648376E+04  0.00000000000E+00 0. -1.
          6    2    1    2  501    0 -0.93549943869E+02  0.44233948238E+02 -0.88068038079E+03  0.90350379585E+03  0.17324243661E+03 0.  0.
         24    2    3    3    0    0 -0.72466893949E+02  0.80922214605E+02 -0.41646237133E+03  0.43733754419E+03  0.77610342683E+02 0.  0.
         -6    2    1    2    0  502  0.93549943869E+02 -0.44233948238E+02 -0.87553573333E+03  0.90060976532E+03  0.18392089298E+03 0.  0.
        -24    2    5    5    0    0  0.55537355639E+02 -0.25571797087E+01 -0.30807246699E+03  0.33033039646E+03  0.10544471949E+03 0.  0.
          5    1    3    3  501    0 -0.21083049919E+02 -0.36688266367E+02 -0.46421800946E+03  0.46616625167E+03  0.47000000000E+01 0. -1.
        -13    1    4    4    0    0 -0.52726550022E+02  0.12915705006E+02 -0.10830122619E+03  0.12114478985E+03  0.00000000000E+00 0.  1.
         14    1    4    4    0    0 -0.19740343927E+02  0.68006509599E+02 -0.30816114513E+03  0.31619275434E+03  0.00000000000E+00 0. -1.
         -5    1    5    5    0  502  0.38012588230E+02 -0.41676768530E+02 -0.56746326634E+03  0.57027936886E+03  0.47000000000E+01 0.  1.
         11    1    6    6    0    0  0.35156014685E+02  0.41457771171E+02 -0.24392920321E+03  0.24991228128E+03  0.00000000000E+00 0. -1.
        -12    1    6    6    0    0  0.20381340954E+02 -0.44014950879E+02 -0.64143263784E+02  0.80418115178E+02  0.00000000000E+00 0.  1.
</event>
<event>
12    1  0.1046899E+000  0.3348804E+03  0.7818608E-02  0.1069041E+00
         21   -1    0    0  501  502  0.00000000000E+00  0.00000000000E+00  0.39318656544E+03  0.39318656544E+03  0.00000000000E+00 0. -1.
         21   -1    0    0  502  503 -0.00000000000E+00 -0.00000000000E+00 -0.29128002152E+03  0.29128002152E+03  0.00000000000E+00 0. -1.
         -6    2    1    2    0  503  0.28622861931E+03  0.20165100764E+02  0.10170932107E+03  0.34998526869E+03  0.17265992153E+03 0.  0.
        -24    2    3    3    0    0  0.30244761031E+03  0.34300938248E+02  0.96568769259E+02  0.32737127207E+03  0.72078507428E+02 0.  0.
          6    2    1    2  501    0 -0.28622861931E+03 -0.20165100764E+02  0.19722285249E+00  0.33448131827E+03  0.17188443668E+03 0.  0.
         24    2    5    5    0    0 -0.55554334678E+02  0.16056049324E+02 -0.20911394701E+02  0.99981294732E+02  0.78834586614E+02 0.  0.
          5    1    5    5  501    0 -0.23067428464E+03 -0.36221150088E+02  0.21108617554E+02  0.23450002354E+03  0.47000000000E+01 0. -1.
        -13    1    6    6    0    0 -0.63920234851E+02  0.86605668660E+01  0.11659489937E+02  0.65549565577E+02  0.00000000000E+00 0.  1.
         14    1    6    6    0    0  0.83659001725E+01  0.73954824580E+01 -0.32570884638E+02  0.34431729155E+02  0.00000000000E+00 0. -1.
         -5    1    3    3    0  503 -0.16218990995E+02 -0.14135837485E+02  0.51405518083E+01  0.22613996621E+02  0.47000000000E+01 0.  1.
         11    1    4    4    0    0  0.20298567234E+02  0.17840651578E+02 -0.41319661369E+01  0.27338504433E+02  0.00000000000E+00 0. -1.
        -12    1    4    4    0    0  0.28214904307E+03  0.16460286670E+02  0.10070073540E+03  0.30003276764E+03  0.00000000000E+00 0.  1.
</event>
<event>
12    1  0.1046899E+000  0.3301316E+03  0.7818608E-02  0.1071308E+00
         21   -1    0    0  501  502  0.00000000000E+00  0.00000000000E+00  0.50514473688E+02  0.50514473688E+02  0.00000000000E+00 0. -1.
         21   -1    0    0  502  503 -0.00000000000E+00 -0.00000000000E+00 -0.21845141998E+04  0.21845141998E+04  0.00000000000E+00 0.  1.
         -6    2    1    2    0  503  0.25915337723E+03 -0.11058325238E+03 -0.12157917862E+04  0.12592762929E+04  0.16804161882E+03 0.  0.
        -24    2    3    3    0    0  0.14602833435E+03 -0.93121677513E+01 -0.76310946604E+03  0.78178652238E+03  0.86273509836E+02 0.  0.
          6    2    1    2  501    0 -0.25915337723E+03  0.11058325238E+03 -0.91820793991E+03  0.97575238065E+03  0.17203999189E+03 0.  0.
         24    2    5    5    0    0 -0.21531532742E+03  0.10818424769E+03 -0.88429293535E+03  0.92007610772E+03  0.80632045815E+02 0.  0.
          5    1    5    5  501    0 -0.43838049803E+02  0.23990046859E+01 -0.33915004559E+02  0.55676272938E+02  0.47000000000E+01 0. -1.
        -11    1    6    6    0    0 -0.14700198923E+03  0.90126888293E+02 -0.48883678968E+03  0.51835687299E+03  0.00000000000E+00 0.  1.
         12    1    6    6    0    0 -0.68313338198E+02  0.18057359402E+02 -0.39545614567E+03  0.40171923473E+03  0.00000000000E+00 0. -1.
         -5    1    3    3    0  503  0.11312504288E+03 -0.10127108463E+03 -0.45268232019E+03  0.47748977049E+03  0.47000000000E+01 0.  1.
         11    1    4    4    0    0  0.41716904859E+02 -0.29379582497E+02 -0.12696144025E+03  0.13683079818E+03  0.00000000000E+00 0. -1.
        -12    1    4    4    0    0  0.10431142949E+03  0.20067414746E+02 -0.63614802579E+03  0.64495572420E+03  0.00000000000E+00 0.  1.
</event>
<event>
12    1  0.1046899E+000  0.2320376E+03  0.7818608E-02  0.1125310E+00
         21   -1    0    0  501  502  0.00000000000E+00  0.00000000000E+00  0.20848901935E+03  0.20848901935E+03  0.00000000000E+00 0.  1.
         21   -1    0    0  502  503 -0.00000000000E+00 -0.00000000000E+00 -0.69872724339E+03  0.69872724339E+03  0.00000000000E+00 0.  1.
         -6    2    1    2    0  503  0.86151984077E+02 -0.12918469271E+03  0.11539421270E+03  0.25865469613E+03  0.17168453138E+03 0.  0.
        -24    2    3    3    0    0  0.99222350715E+02 -0.15448102030E+03  0.11743952803E+03  0.22972353666E+03  0.72604407828E+02 0.  0.
          6    2    1    2  501    0 -0.86151984077E+02  0.12918469271E+03 -0.60563243674E+03  0.64856156661E+03  0.17242565953E+03 0.  0.
         24    2    5    5    0    0 -0.54559865320E+02  0.98186203025E+01 -0.36715128151E+03  0.37996954772E+03  0.80644959393E+02 0.  0.
          5    1    5    5  501    0 -0.31592118757E+02  0.11936607241E+03 -0.23848115523E+03  0.26859201889E+03  0.47000000000E+01 0. -1.
        -11    1    6    6    0    0 -0.17239338620E+02  0.20408177715E+02 -0.30846781346E+03  0.30962248054E+03  0.00000000000E+00 0.  1.
         12    1    6    6    0    0 -0.37320526700E+02 -0.10589557412E+02 -0.58683468045E+02  0.70347067182E+02  0.00000000000E+00 0. -1.
         -5    1    3    3    0  503 -0.13070366638E+02  0.25296327592E+02 -0.20453153293E+01  0.28931159474E+02  0.47000000000E+01 0.  1.
         13    1    4    4    0    0  0.22003940751E+01 -0.37249093072E+02 -0.30743337087E+00  0.37315294238E+02  0.00000000000E+00 0. -1.
        -14    1    4    4    0    0  0.97021956640E+02 -0.11723192723E+03  0.11774696140E+03  0.19240824242E+03  0.00000000000E+00 0.  1.
</event>
<event>
12    1  0.1046899E+000  0.1875883E+03  0.7818608E-02  0.1161145E+00
         21   -1    0    0  501  502  0.00000000000E+00  0.00000000000E+00  0.70587987132E+03  0.70587987132E+03  0.00000000000E+00 0. -1.
         21   -1    0    0  502  503 -0.00000000000E+00 -0.00000000000E+00 -0.15682880697E+03  0.15682880697E+03  0.00000000000E+00 0. -1.
         -6    2    1    2    0  503  0.67424004522E+02  0.50375836379E+01 -0.82177682018E+02  0.20479880784E+03  0.17498001782E+03 0.  0.
        -24    2    3    3    0    0 -0.75414639202E+00 -0.19076941891E+01 -0.10609486689E+03  0.13206216729E+03  0.78613530746E+02 0.  0.
          6    2    1    2  501    0 -0.67424004522E+02 -0.50375836379E+01  0.63122874637E+03  0.65790987045E+03  0.17269711565E+03 0.  0.
         24    2    5    5    0    0 -0.69757700093E+02 -0.17799501106E+02  0.20839148600E+03  0.23484752110E+03  0.80891209473E+02 0.  0.
          5    1    5    5  501    0  0.23336955715E+01  0.12761917468E+02  0.42283726038E+03  0.42306234935E+03  0.47000000000E+01 0. -1.
        -11    1    6    6    0    0 -0.45733164743E+02 -0.45144523679E+02  0.17094788272E+03  0.18262729528E+03  0.00000000000E+00 0.  1.
         12    1    6    6    0    0 -0.24024535350E+02  0.27345022573E+02  0.37443603275E+02  0.52220225819E+02  0.00000000000E+00 0. -1.
         -5    1    3    3    0  503  0.68178150914E+02  0.69452778270E+01  0.23917184869E+02  0.72736640548E+02  0.47000000000E+01 0.  1.
         13    1    4    4    0    0 -0.27440986132E+02 -0.22166517114E+02 -0.22088187552E+02  0.41620310309E+02  0.00000000000E+00 0. -1.
        -14    1    4    4    0    0  0.26686839740E+02  0.20258822925E+02 -0.84006679336E+02  0.90441856984E+02  0.00000000000E+00 0.  1.
</event>
<event>
12    1  0.1046899E+000  0.2676731E+03  0.7818608E-02  0.1102638E+00
         21   -1    0    0  503  502  0.00000000000E+00  0.00000000000E+00  0.74243439278E+03  0.74243439278E+03  0.00000000000E+00 0.  1.
         21   -1    0    0  501  503 -0.00000000000E+00 -0.00000000000E+00 -0.13419519345E+03  0.13419519345E+03  0.00000000000E+00 0.  1.
          6    2    1    2  501    0 -0.16952385851E+03 -0.11612431541E+03  0.53660737057E+03  0.59966352563E+03  0.17153914595E+03 0.  0.
         24    2    3    3    0    0 -0.10366575856E+03 -0.76266744273E+02  0.18443255275E+03  0.23914291927E+03  0.81306602095E+02 0.  0.
         -6    2    1    2    0  502  0.16952385851E+03  0.11612431541E+03  0.71631828766E+02  0.27696606059E+03  0.17133559057E+03 0.  0.
        -24    2    5    5    0    0  0.14580241380E+03  0.59801124662E+02 -0.75743252244E+01  0.17681261040E+03  0.79817356595E+02 0.  0.
          5    1    3    3  501    0 -0.65858099950E+02 -0.39857571139E+02  0.35217481782E+03  0.36052060636E+03  0.47000000000E+01 0. -1.
        -11    1    4    4    0    0 -0.42527316494E+02 -0.72637188675E+02  0.70514162790E+02  0.10980428489E+03  0.00000000000E+00 0.  1.
         12    1    4    4    0    0 -0.61138442063E+02 -0.36295555978E+01  0.11391838996E+03  0.12933863438E+03  0.00000000000E+00 0. -1.
         -5    1    5    5    0  502  0.23721444707E+02  0.56323190750E+02  0.79206153990E+02  0.10015345019E+03  0.47000000000E+01 0.  1.
         13    1    6    6    0    0  0.81610475570E+02 -0.52530671934E+01  0.13845745345E+02  0.82943167904E+02  0.00000000000E+00 0. -1.
        -14    1    6    6    0    0  0.64191938229E+02  0.65054191856E+02 -0.21420070570E+02  0.93869442498E+02  0.00000000000E+00 0.  1.
</event>
<event>
12    1  0.1046899E+000  0.1959046E+03  0.7818608E-02  0.1153419E+00
         21   -1    0    0  503  502  0.00000000000E+00  0.00000000000E+00  0.92123860510E+03  0.92123860510E+03  0.00000000000E+00 0. -1.
         21   -1    0    0  501  503 -0.00000000000E+00 -0.00000000000E+00 -0.41486209402E+02  0.41486209402E+02  0.00000000000E+00 0.  1.
          6    2    1    2  501    0  0.61122532125E+02  0.70210097234E+02  0.43915213381E+03  0.48086714666E+03  0.17237515604E+03 0.  0.
         24    2    3    3    0    0 -0.19239522828E+02  0.66212399632E+02  0.17341657729E+03  0.20317754033E+03  0.80334068202E+02 0.  0.
         -6    2    1    2    0  502 -0.61122532125E+02 -0.70210097234E+02  0.44060026189E+03  0.48185766785E+03  0.17144328390E+03 0.  0.
        -24    2    5    5    0    0  0.25822136512E+02 -0.26085300465E+02  0.14030561009E+03  0.16609614233E+03  0.80963193119E+02 0.  0.
          5    1    3    3  501    0  0.80362054952E+02  0.39976976013E+01  0.26573555652E+03  0.27768960633E+03  0.47000000000E+01 0. -1.
        -13    1    4    4    0    0  0.16671318891E+02  0.56366384034E+02  0.60814573160E+02  0.84578451341E+02  0.00000000000E+00 0.  1.
         14    1    4    4    0    0 -0.35910841719E+02  0.98460155981E+01  0.11260200413E+03  0.11859908899E+03  0.00000000000E+00 0. -1.
         -5    1    5    5    0  502 -0.86944668637E+02 -0.44124796769E+02  0.30029465180E+03  0.31576152552E+03  0.47000000000E+01 0.  1.
         13    1    6    6    0    0  0.11954753646E+02  0.29164512211E+02  0.57814176284E+02  0.65848036316E+02  0.00000000000E+00 0. -1.
        -14    1    6    6    0    0  0.13867382867E+02 -0.55249812675E+02  0.82491433805E+02  0.10024810601E+03  0.00000000000E+00 0.  1.
</event>
<event>
12    1  0.1046899E+000  0.2492191E+03  0.7818608E-02  0.1113928E+00
         21   -1    0    0  503  502  0.00000000000E+00  0.00000000000E+00  0.59113315024E+03  0.59113315024E+03  0.00000000000E+00 0.  1.
         21   -1    0    0  501  503 -0.00000000000E+00 -0.00000000000E+00 -0.10621596243E+03  0.10621596243E+03  0.00000000000E+00 0. -1.
          6    2    1    2  501    0  0.28654396685E+02  0.17938607727E+03  0.28412099804E+03  0.37793507879E+03  0.17061577620E+03 0.  0.
         24    2    3    3    0    0  0.80670129239E+02  0.15334973736E+03  0.21630342413E+03  0.28846530311E+03  0.80007800323E+02 0.  0.
         -6    2    1    2    0  502 -0.28654396685E+02 -0.17938607727E+03  0.20079618978E+03  0.31941403388E+03  0.16942779006E+03 0.  0.
        -24    2    5    5    0    0 -0.23731690136E+02 -0.10350623654E+03  0.35796692256E+02  0.13767546491E+03  0.79977473978E+02 0.  0.
          5    1    3    3  501    0 -0.52015732553E+02  0.26036339911E+02  0.67817573908E+02  0.89469775677E+02  0.47000000000E+01 0. -1.
        -13    1    4    4    0    0 -0.54604615696E+00 -0.42459401916E+01  0.33635368625E+02  0.33906698410E+02  0.00000000000E+00 0.  1.
         14    1    4    4    0    0  0.81216175395E+02  0.15759567755E+03  0.18266805550E+03  0.25455860470E+03  0.00000000000E+00 0. -1.
         -5    1    5    5    0  502 -0.49227065496E+01 -0.75879840729E+02  0.16499949752E+03  0.18173856897E+03  0.47000000000E+01 0.  1.
         11    1    6    6    0    0 -0.35178972579E+02 -0.79785168443E+02  0.56734019074E+02  0.10402875629E+03  0.00000000000E+00 0. -1.
        -12    1    6    6    0    0  0.11447282443E+02 -0.23721068095E+02 -0.20937326818E+02  0.33646708623E+02  0.00000000000E+00 0.  1.
</event>
<event>
12    1  0.1046899E+000  0.2197095E+03  0.7818608E-02  0.1134485E+00
         21   -1    0    0  503  502  0.00000000000E+00  0.00000000000E+00  0.20480980963E+03  0.20480980963E+03  0.00000000000E+00 0.  1.
         21   -1    0    0  501  503 -0.00000000000E+00 -0.00000000000E+00 -0.27704680142E+03  0.27704680142E+03  0.00000000000E+00 0.  1.
          6    2    1    2  501    0 -0.13595037771E+03  0.62077094607E+01  0.59260147449E+02  0.22756101691E+03  0.17248539209E+03 0.  0.
         24    2    3    3    0    0 -0.36980159816E+01  0.23792187389E+02  0.61189153934E+01  0.83873920785E+02  0.80110236295E+02 0.  0.
         -6    2    1    2    0  502  0.13595037771E+03 -0.62077094607E+01 -0.13149713924E+03  0.25429559414E+03  0.16986380048E+03 0.  0.
        -24    2    5    5    0    0  0.87555410930E+01  0.30776800342E+02 -0.95534738865E+02  0.11695745425E+03  0.59399400966E+02 0.  0.
          5    1    3    3  501    0 -0.13225236173E+03 -0.17584477929E+02  0.53141232056E+02  0.14368709612E+03  0.47000000000E+01 0. -1.
        -13    1    4    4    0    0  0.16163837084E+02 -0.16423932854E+02  0.26060392862E+02  0.34787343615E+02  0.00000000000E+00 0.  1.
         14    1    4    4    0    0 -0.19861853066E+02  0.40216120243E+02 -0.19941477468E+02  0.49086577170E+02  0.00000000000E+00 0. -1.
         -5    1    5    5    0  502  0.12719483662E+03 -0.36984509803E+02 -0.35962400376E+02  0.13733813989E+03  0.47000000000E+01 0.  1.
         13    1    6    6    0    0  0.33687465696E+01 -0.18020286248E+02 -0.27876535763E+02  0.33364358470E+02  0.00000000000E+00 0. -1.
        -14    1    6    6    0    0  0.53867945234E+01  0.48797086590E+02 -0.67658203102E+02  0.83593095779E+02  0.00000000000E+00 0.  1.
</event>
<event>
12    1  0.1046899E+000  0.3363670E+03  0.7818608E-02  0.1068568E+00
         21   -1    0    0  503  502  0.00000000000E+00  0.00000000000E+00  0.28543715076E+03  0.28543715076E+03  0.00000000000E+00 0.  1.
         21   -1    0    0  501  503 -0.00000000000E+00 -0.00000000000E+00 -0.39974395219E+03  0.39974395219E+03  0.00000000000E+00 0. -1.
          6    2    1    2  501    0 -0.14303833686E+03 -0.24875017899E+03 -0.97833593576E+02  0.34841094816E+03  0.17170369654E+03 0.  0.
         24    2    3    3    0    0 -0.15197230896E+03 -0.19958578789E+03 -0.33569332518E+02  0.26686992499E+03  0.84632070527E+02 0.  0.
         -6    2    1    2    0  502  0.14303833686E+03  0.24875017899E+03 -0.16473207856E+02  0.33677015478E+03  0.17551681746E+03 0.  0.
        -24    2    5    5    0    0  0.14587674186E+02  0.70957027458E+02  0.34672604636E+02  0.11149707248E+03  0.77341500342E+02 0.  0.
          5    1    3    3  501    0  0.89339721013E+01 -0.49164391103E+02 -0.64264261058E+02  0.81541023169E+02  0.47000000000E+01 0. -1.
        -11    1    4    4    0    0 -0.98750915240E+02 -0.13949286109E+03  0.17384425525E+02  0.17179120992E+03  0.00000000000E+00 0.  1.
         12    1    4    4    0    0 -0.53221393719E+02 -0.60092926806E+02 -0.50953758043E+02  0.95078715075E+02  0.00000000000E+00 0. -1.
         -5    1    5    5    0  502  0.12845066267E+03  0.17779315154E+03 -0.51145812492E+02  0.22527308230E+03  0.47000000000E+01 0.  1.
         13    1    6    6    0    0  0.12798874237E+02  0.65434386165E+02 -0.91432279471E+01  0.67298355788E+02  0.00000000000E+00 0. -1.
        -14    1    6    6    0    0  0.17887999484E+01  0.55226412931E+01  0.43815832583E+02  0.44198716690E+02  0.00000000000E+00 0.  1.
</event>
<event>
12    1  0.1046899E+000  0.1829193E+03  0.7818608E-02  0.1165619E+00
         21   -1    0    0  501  502  0.00000000000E+00  0.00000000000E+00  0.10438994468E+03  0.10438994468E+03  0.00000000000E+00 0. -1.
         21   -1    0    0  502  503 -0.00000000000E+00 -0.00000000000E+00 -0.31629430866E+03  0.31629430866E+03  0.00000000000E+00 0. -1.
         -6    2    1    2    0  503 -0.38069762753E+02  0.39799983387E+02 -0.11105476395E+03  0.21180601231E+03  0.17174190153E+03 0.  0.
        -24    2    3    3    0    0  0.68926197499E+01 -0.30357960910E+02 -0.34360994916E+01  0.75616365394E+02  0.68825242012E+02 0.  0.
          6    2    1    2  501    0  0.38069762753E+02 -0.39799983387E+02 -0.10084960003E+03  0.20887824103E+03  0.17443088097E+03 0.  0.
         24    2    5    5    0    0 -0.19941940205E+02 -0.43897326400E+02 -0.11534418191E+03  0.14875895291E+03  0.80624373034E+02 0.  0.
          5    1    5    5  501    0  0.58011702958E+02  0.40973430126E+01  0.14494581883E+02  0.60119288118E+02  0.47000000000E+01 0. -1.
        -13    1    6    6    0    0  0.52072346590E+01  0.21646450746E+02 -0.39990803069E+02  0.45770606865E+02  0.00000000000E+00 0.  1.
         14    1    6    6    0    0 -0.25149174864E+02 -0.65543777146E+02 -0.75353378840E+02  0.10298834605E+03  0.00000000000E+00 0. -1.
         -5    1    3    3    0  503 -0.44962382503E+02  0.70157944298E+02 -0.10761866446E+03  0.13618964692E+03  0.47000000000E+01 0.  1.
         13    1    4    4    0    0  0.34813563208E+02 -0.29711390770E+02 -0.10176288802E+02  0.46886114986E+02  0.00000000000E+00 0. -1.
        -14    1    4    4    0    0 -0.27920943458E+02 -0.64657014059E+00  0.67401893102E+01  0.28730250408E+02  0.00000000000E+00 0.  1.
</event>
<event>
12    1  0.1046899E+000  0.2278791E+03  0.7818608E-02  0.1128492E+00
         21   -1    0    0  501  502  0.00000000000E+00  0.00000000000E+00  0.24177860619E+03  0.24177860619E+03  0.00000000000E+00 0.  1.
         21   -1    0    0  502  503 -0.00000000000E+00 -0.00000000000E+00 -0.21738305323E+03  0.21738305323E+03  0.00000000000E+00 0.  1.
         -6    2    1    2    0  503  0.14968889841E+03 -0.72631989305E+01 -0.20688443210E+02  0.22686556983E+03  0.16905754857E+03 0.  0.
        -24    2    3    3    0    0  0.17649444263E+02  0.10310076074E+02  0.22445832680E+02  0.86773124632E+02  0.81289354790E+02 0.  0.
          6    2    1    2  501    0 -0.14968889841E+03  0.72631989305E+01  0.45083996166E+02  0.23229608959E+03  0.17166649691E+03 0.  0.
         24    2    5    5    0    0 -0.41007454924E+02 -0.28067980149E+02 -0.26329222320E+02  0.97455865072E+02  0.79592680693E+02 0.  0.
          5    1    5    5  501    0 -0.10868144348E+03  0.35331179080E+02  0.71413218486E+02  0.13484022452E+03  0.47000000000E+01 0. -1.
        -13    1    6    6    0    0 -0.62179275402E+01  0.21412113846E+02  0.12516873160E+02  0.25569774265E+02  0.00000000000E+00 0.  1.
         14    1    6    6    0    0 -0.34789527384E+02 -0.49480093996E+02 -0.38846095480E+02  0.71886090807E+02  0.00000000000E+00 0. -1.
         -5    1    3    3    0  503  0.13203945415E+03 -0.17573275005E+02 -0.43134275890E+02  0.14009244520E+03  0.47000000000E+01 0.  1.
         13    1    4    4    0    0  0.15420520912E+02  0.40153246398E+02 -0.83678358091E+01  0.43818903884E+02  0.00000000000E+00 0. -1.
        -14    1    4    4    0    0  0.22289233509E+01 -0.29843170324E+02  0.30813668489E+02  0.42954220748E+02  0.00000000000E+00 0.  1.
</event>
<event>
12    1  0.1046899E+000  0.1862358E+03  0.7818608E-02  0.1163172E+00
         21   -1    0    0  503  502  0.00000000000E+00  0.00000000000E+00  0.34274702222E+03  0.34274702222E+03  0.00000000000E+00 0. -1.
         21   -1    0    0  501  503 -0.00000000000E+00 -0.00000000000E+00 -0.98635422532E+02  0.98635422532E+02  0.00000000000E+00 0. -1.
          6    2    1    2  501    0 -0.61117911596E+02 -0.52235032062E+01  0.10697148194E+03  0.21010084099E+03  0.17010814599E+03 0.  0.
         24    2    3    3    0    0 -0.53534254123E+02  0.56889717186E+02  0.43002339925E+02  0.12049221898E+03  0.81035901365E+02 0.  0.
         -6    2    1    2    0  502  0.61117911596E+02  0.52235032062E+01  0.13714011774E+03  0.23128160376E+03  0.17584392011E+03 0.  0.
        -24    2    5    5    0    0  0.10684200896E+02  0.67924075783E+02  0.68699079725E+02  0.12554047334E+03  0.79454481764E+02 0.  0.
          5    1    3    3  501    0 -0.75836574726E+01 -0.62113220392E+02  0.63969142015E+02  0.89608622008E+02  0.47000000000E+01 0. -1.
        -13    1    4    4    0    0 -0.18539918303E+02  0.71992592299E+02  0.25992224415E+02  0.78754413506E+02  0.00000000000E+00 0.  1.
         14    1    4    4    0    0 -0.34994335821E+02 -0.15102875114E+02  0.17010115510E+02  0.41737805475E+02  0.00000000000E+00 0. -1.
         -5    1    5    5    0  502  0.50433710700E+02 -0.62700572577E+02  0.68441038018E+02  0.10574113042E+03  0.47000000000E+01 0.  1.
         13    1    6    6    0    0 -0.22257228728E+02  0.38382700128E+02  0.65364122208E+00  0.44373901638E+02  0.00000000000E+00 0. -1.
        -14    1    6    6    0    0  0.32941429624E+02  0.29541375655E+02  0.68045438503E+02  0.81166571705E+02  0.00000000000E+00 0.  1.
</event>
<event>
12    1  0.1046899E+000  0.2169291E+03  0.7818608E-02  0.1138353E+00
         21   -1    0    0  503  502  0.00000000000E+00  0.00000000000E+00  0.51691160933E+03  0.51691160933E+03  0.00000000000E+00 0. -1.
         21   -1    0    0  501  503 -0.00000000000E+00 -0.00000000000E+00 -0.11598113472E+03  0.11598113472E+03  0.00000000000E+00 0. -1.
          6    2    1    2  501    0 -0.12727246023E+03  0.39682325402E+02  0.36927922953E+02  0.20915216458E+03  0.15686934172E+03 0.  0.
         24    2    3    3    0    0 -0.12296135658E+03  0.78842914184E+02  0.23658923779E+02  0.16731565340E+03  0.78096625209E+02 0.  0.
         -6    2    1    2    0  502  0.12727246023E+03 -0.39682325402E+02  0.36400255166E+03  0.42374057947E+03  0.17112935164E+03 0.  0.
        -24    2    5    5    0    0  0.67247725286E+02 -0.29616160439E+02  0.34245518802E+03  0.35900515360E+03  0.78802100221E+02 0.  0.
          5    1    3    3  501    0 -0.43111036528E+01 -0.39160588783E+02  0.13268999174E+02  0.41836511179E+02  0.47000000000E+01 0. -1.
        -11    1    4    4    0    0 -0.40694956482E+02 -0.50689934715E+01 -0.14911098516E+02  0.43636166615E+02  0.00000000000E+00 0.  1.
         12    1    4    4    0    0 -0.82266400098E+02  0.83911907656E+02  0.38570022294E+02  0.12367948678E+03  0.00000000000E+00 0. -1.
         -5    1    5    5    0  502  0.60024734947E+02 -0.10066164963E+02  0.21547363646E+02  0.64735425870E+02  0.47000000000E+01 0.  1.
         11    1    6    6    0    0  0.42433912167E+02 -0.34487315686E+02  0.90160272804E+02  0.10544613145E+03  0.00000000000E+00 0. -1.
        -12    1    6    6    0    0  0.24813813119E+02  0.48711552477E+01  0.25229491521E+03  0.25355902216E+03  0.00000000000E+00 0.  1.
</event>
<event>
12    1  0.1046899E+000  0.2234492E+03  0.7818608E-02  0.1131668E+00
         21   -1    0    0  503  502  0.00000000000E+00  0.00000000000E+00  0.11665395228E+03  0.11665395228E+03  0.00000000000E+00 0.  1.
         21   -1    0    0  501  503 -0.00000000000E+00 -0.00000000000E+00 -0.44912363328E+03  0.44912363328E+03  0.00000000000E+00 0.  1.
          6    2    1    2  501    0  0.10576683425E+03  0.94784194324E+02 -0.23174524983E+03  0.32067566212E+03  0.17016566264E+03 0.  0.
         24    2    3    3    0    0  0.79862549404E+02  0.13336575775E+03 -0.17644415893E+03  0.24828871810E+03  0.79688733090E+02 0.  0.
         -6    2    1    2    0  502 -0.10576683425E+03 -0.94784194324E+02 -0.10072443117E+03  0.24510192345E+03  0.17250760888E+03 0.  0.
        -24    2    5    5    0    0 -0.81359909296E+02 -0.28965857395E+02  0.55901896890E+01  0.11761608082E+03  0.79648204690E+02 0.  0.
          5    1    3    3  501    0  0.25904284842E+02 -0.38581563425E+02 -0.55301090901E+02  0.72386944019E+02  0.47000000000E+01 0. -1.
        -13    1    4    4    0    0  0.74739461567E+01  0.79936847585E+02 -0.11118759632E+03  0.13714386989E+03  0.00000000000E+00 0.  1.
         14    1    4    4    0    0  0.72388603247E+02  0.53428910164E+02 -0.65256562605E+02  0.11114484821E+03  0.00000000000E+00 0. -1.
         -5    1    5    5    0  502 -0.24406924950E+02 -0.65818336929E+02 -0.10631462086E+03  0.12748584263E+03  0.47000000000E+01 0.  1.
         13    1    6    6    0    0 -0.64722616402E+02  0.12569545524E+01 -0.27016266506E+02  0.70146102277E+02  0.00000000000E+00 0. -1.
        -14    1    6    6    0    0 -0.16637292893E+02 -0.30222811947E+02  0.32606456195E+02  0.47469978538E+02  0.00000000000E+00 0.  1.
</event>
<event>
12    1  0.1046899E+000  0.3287869E+03  0.7818608E-02  0.1071694E+00
         21   -1    0    0  503  502  0.00000000000E+00  0.00000000000E+00  0.74684863272E+03  0.74684863272E+03  0.00000000000E+00 0.  1.
         21   -1    0    0  501  503 -0.00000000000E+00 -0.00000000000E+00 -0.14657507935E+03  0.14657507935E+03  0.00000000000E+00 0. -1.
          6    2    1    2  501    0  0.12799034345E+03 -0.24879499624E+03  0.35117458921E+03  0.48106590390E+03  0.17268564972E+03 0.  0.
         24    2    3    3    0    0  0.12678426453E+03 -0.26797588025E+03  0.33902987568E+03  0.45785071481E+03  0.82466346568E+02 0.  0.
         -6    2    1    2    0  502 -0.12799034345E+03  0.24879499624E+03  0.24909896416E+03  0.41235780816E+03  0.17236063889E+03 0.  0.
        -24    2    5    5    0    0 -0.24285123064E+01  0.11645696790E+03  0.14610771222E+03  0.20281445904E+03  0.78855045387E+02 0.  0.
          5    1    3    3  501    0  0.12060789161E+01  0.19180884012E+02  0.12144713530E+02  0.23215189092E+02  0.47000000000E+01 0. -1.
        -13    1    4    4    0    0  0.46759431855E+01 -0.78856556316E+02  0.59228109712E+02  0.98732922061E+02  0.00000000000E+00 0.  1.
         14    1    4    4    0    0  0.12210832135E+03 -0.18911932394E+03  0.27980176597E+03  0.35911779275E+03  0.00000000000E+00 0. -1.
         -5    1    5    5    0  502 -0.12556183114E+03  0.13233802834E+03  0.10299125194E+03  0.20954334912E+03  0.47000000000E+01 0.  1.
         11    1    6    6    0    0  0.75270192314E+01  0.12091845299E+03  0.10512072390E+03  0.16040042046E+03  0.00000000000E+00 0. -1.
        -12    1    6    6    0    0 -0.99555315378E+01 -0.44614850881E+01  0.40986988314E+02  0.42414038578E+02  0.00000000000E+00 0.  1.
</event>
<event>
12    1  0.1046899E+000  0.1932162E+03  0.7818608E-02  0.1156109E+00
         21   -1    0    0  501  502  0.00000000000E+00  0.00000000000E+00  0.34525435305E+03  0.34525435305E+03  0.00000000000E+00 0. -1.
         21   -1    0    0  502  503 -0.00000000000E+00 -0.00000000000E+00 -0.11138666580E+03  0.11138666580E+03  0.00000000000E+00 0. -1.
         -6    2    1    2    0  503  0.59138712216E+02  0.61819574154E+02  0.16378691760E+03  0.25329555723E+03  0.17324386831E+03 0.  0.
        -24    2    3    3    0    0  0.41089871371E+02  0.78096050873E+02  0.18560889495E+03  0.22029596564E+03  0.79323892369E+02 0.  0.
          6    2    1    2  501    0 -0.59138712216E+02 -0.61819574154E+02  0.70080769647E+02  0.20334546162E+03  0.17064294728E+03 0.  0.
         24    2    5    5    0    0 -0.43022100496E+02 -0.67168041136E+02  0.11188583219E+03  0.15797912469E+03  0.77952020571E+02 0.  0.
          5    1    5    5  501    0 -0.16116611721E+02  0.53484669812E+01 -0.41805062545E+02  0.45366336934E+02  0.47000000000E+01 0. -1.
        -13    1    6    6    0    0 -0.19313603885E+02 -0.52834215707E+02  0.16459068246E+02  0.58612034361E+02  0.00000000000E+00 0.  1.
         14    1    6    6    0    0 -0.23708496611E+02 -0.14333825429E+02  0.95426763947E+02  0.99367090328E+02  0.00000000000E+00 0. -1.
         -5    1    3    3    0  503  0.18048840845E+02 -0.16276476718E+02 -0.21821977348E+02  0.32999591597E+02  0.47000000000E+01 0.  1.
         11    1    4    4    0    0 -0.23975503221E+02  0.17431210720E+02  0.43498451677E+02  0.52638267070E+02  0.00000000000E+00 0. -1.
        -12    1    4    4    0    0  0.65065374593E+02  0.60664840152E+02  0.14211044327E+03  0.16765769857E+03  0.00000000000E+00 0.  1.
</event>
<event>
12    1  0.1046899E+000  0.1836270E+03  0.7818608E-02  0.1164398E+00
         21   -1    0    0  503  502  0.00000000000E+00  0.00000000000E+00  0.63723747076E+02  0.63723747076E+02  0.00000000000E+00 0.  1.
         21   -1    0    0  501  503 -0.00000000000E+00 -0.00000000000E+00 -0.54150593442E+03  0.54150593442E+03  0.00000000000E+00 0.  1.
          6    2    1    2  501    0  0.97453447429E+01 -0.64092231140E+02 -0.19167147484E+03  0.26526172895E+03  0.17153146867E+03 0.  0.
         24    2    3    3    0    0  0.84347123404E+01 -0.10972178386E+03 -0.14936651662E+03  0.20284720076E+03  0.82015951777E+02 0.  0.
         -6    2    1    2    0  502 -0.97453447429E+01  0.64092231140E+02 -0.28611071251E+03  0.33996795254E+03  0.17180245373E+03 0.  0.
        -24    2    5    5    0    0  0.75645931942E+01  0.99220331249E+02 -0.26791725862E+03  0.29653168736E+03  0.79053696543E+02 0.  0.
          5    1    3    3  501    0  0.13106324025E+01  0.45629552723E+02 -0.42304958222E+02  0.62414528190E+02  0.47000000000E+01 0. -1.
        -11    1    4    4    0    0 -0.23020622748E+02 -0.30528261182E+02 -0.93337516066E+02  0.10086533452E+03  0.00000000000E+00 0.  1.
         12    1    4    4    0    0  0.31455335088E+02 -0.79193522681E+02 -0.56029000549E+02  0.10198186624E+03  0.00000000000E+00 0. -1.
         -5    1    5    5    0  502 -0.17309937937E+02 -0.35128100110E+02 -0.18193453882E+02  0.43436265181E+02  0.47000000000E+01 0.  1.
         11    1    6    6    0    0 -0.51466265137E+01  0.24082334627E+02 -0.17330542186E+03  0.17504632488E+03  0.00000000000E+00 0. -1.
        -12    1    6    6    0    0  0.12711219708E+02  0.75137996622E+02 -0.94611836763E+02  0.12148536249E+03  0.00000000000E+00 0.  1.
</event>
<event>
12    1  0.1046899E+000  0.2281239E+03  0.7818608E-02  0.1129156E+00
         21   -1    0    0  503  502  0.00000000000E+00  0.00000000000E+00  0.55432773282E+03  0.55432773282E+03  0.00000000000E+00 0. -1.
         21   -1    0    0  501  503 -0.00000000000E+00 -0.00000000000E+00 -0.11511062439E+03  0.11511062439E+03  0.00000000000E+00 0. -1.
          6    2    1    2  501    0 -0.43167147001E+02  0.13206515112E+03  0.69588559165E+02  0.23850176299E+03  0.18093069575E+03 0.  0.
         24    2    3    3    0    0 -0.88517507466E+01  0.75429957057E+02  0.11414704960E+03  0.15854777188E+03  0.79622956000E+02 0.  0.
         -6    2    1    2    0  502  0.43167147001E+02 -0.13206515112E+03  0.36962854926E+03  0.43093659421E+03  0.17255861926E+03 0.  0.
        -24    2    5    5    0    0  0.24244238151E+02  0.37690835844E+01  0.12712277671E+03  0.15229676303E+03  0.80200465076E+02 0.  0.
          5    1    3    3  501    0 -0.34315396254E+02  0.56635194059E+02 -0.44558490432E+02  0.79953991118E+02  0.47000000000E+01 0. -1.
        -11    1    4    4    0    0  0.15529479961E+02  0.34622921361E+02  0.34824608819E+01  0.38105629049E+02  0.00000000000E+00 0.  1.
         12    1    4    4    0    0 -0.24381230708E+02  0.40807035696E+02  0.11066458871E+03  0.12044214283E+03  0.00000000000E+00 0. -1.
         -5    1    5    5    0  502  0.18922908850E+02 -0.13583423470E+03  0.24250577256E+03  0.27863983118E+03  0.47000000000E+01 0.  1.
         13    1    6    6    0    0  0.77076111382E+00  0.29949910346E+02  0.10839153191E+03  0.11245583752E+03  0.00000000000E+00 0. -1.
        -14    1    6    6    0    0  0.23473477037E+02 -0.26180826761E+02  0.18731244794E+02  0.39840925512E+02  0.00000000000E+00 0.  1.
</event>
<event>
12    1  0.1046899E+000  0.1818117E+03  0.7818608E-02  0.1166981E+00
         21   -1    0    0  503  502  0.00000000000E+00  0.00000000000E+00  0.98127631687E+02  0.98127631687E+02  0.00000000000E+00 0.  1.
         21   -1    0    0  501  503 -0.00000000000E+00 -0.00000000000E+00 -0.36535024252E+03  0.36535024252E+03  0.00000000000E+00 0.  1.
          6    2    1    2  501    0  0.35185583493E+02  0.26218776455E+02 -0.20712853536E+03  0.27560427419E+03  0.17643706036E+03 0.  0.
         24    2    3    3    0    0 -0.70251196489E+01 -0.19378611285E+02 -0.19620423020E+03  0.21234057471E+03  0.78533666920E+02 0.  0.
         -6    2    1    2    0  502 -0.35185583493E+02 -0.26218776455E+02 -0.60094075482E+02  0.18787360002E+03  0.17251012188E+03 0.  0.
        -24    2    5    5    0    0  0.29752426382E+02  0.12054347688E+02  0.94464185282E+01  0.85210327789E+02  0.78364857973E+02 0.  0.
          5    1    3    3  501    0  0.42210703142E+02  0.45597387740E+02 -0.10924305156E+02  0.63263699477E+02  0.47000000000E+01 0. -1.
        -13    1    4    4    0    0 -0.18954524327E+02 -0.46620965541E+02 -0.13968374380E+03  0.14847335351E+03  0.00000000000E+00 0.  1.
         14    1    4    4    0    0  0.11929404678E+02  0.27242354257E+02 -0.56520486399E+02  0.63867221203E+02  0.00000000000E+00 0. -1.
         -5    1    5    5    0  502 -0.64938009875E+02 -0.38273124143E+02 -0.69540494010E+02  0.10266327223E+03  0.47000000000E+01 0.  1.
         13    1    6    6    0    0 -0.13814730939E+02  0.52890816666E+01  0.32317345016E+02  0.35541974688E+02  0.00000000000E+00 0. -1.
        -14    1    6    6    0    0  0.43567157321E+02  0.67652660212E+01 -0.22870926488E+02  0.49668353102E+02  0.00000000000E+00 0.  1.
</event>
<event>
12    1  0.1046899E+000  0.2875895E+03  0.7818608E-02  0.1092293E+00
         21   -1    0    0  503  502  0.00000000000E+00  0.00000000000E+00  0.47680166669E+02  0.47680166669E+02  0.00000000000E+00 0. -1.
         21   -1    0    0  501  503 -0.00000000000E+00 -0.00000000000E+00 -0.17465418406E+04  0.17465418406E+04  0.00000000000E+00 0.  1.
          6    2    1    2  501    0  0.16092153836E+03 -0.16549750220E+03 -0.98195867900E+03  0.10217858342E+04  0.16284434000E+03 0.  0.
         24    2    3    3    0    0  0.12026786580E+03 -0.18696854751E+03 -0.83910468924E+03  0.87164230535E+03  0.79006529338E+02 0.  0.
         -6    2    1    2    0  502 -0.16092153836E+03  0.16549750220E+03 -0.71690299493E+03  0.77243617302E+03  0.17153009213E+03 0.  0.
        -24    2    5    5    0    0 -0.86850813329E+02  0.11183871673E+03 -0.61287855555E+03  0.63383995535E+03  0.77987196437E+02 0.  0.
          5    1    3    3  501    0  0.40653672558E+02  0.21471045308E+02 -0.14285398976E+03  0.15014352890E+03  0.47000000000E+01 0. -1.
        -13    1    4    4    0    0  0.17183292166E+02 -0.83584421453E+02 -0.23098885886E+03  0.24624677451E+03  0.00000000000E+00 0.  1.
         14    1    4    4    0    0  0.10308457363E+03 -0.10338412605E+03 -0.60811583037E+03  0.62539553084E+03  0.00000000000E+00 0. -1.
         -5    1    5    5    0  502 -0.74070725027E+02  0.53658785464E+02 -0.10402443938E+03  0.13859621767E+03  0.47000000000E+01 0.  1.
         13    1    6    6    0    0  0.14350459472E+02  0.13174846278E+02 -0.97827679664E+02  0.99748519638E+02  0.00000000000E+00 0. -1.
        -14    1    6    6    0    0 -0.10120127280E+03  0.98663870455E+02 -0.51505087589E+03  0.53409143571E+03  0.00000000000E+00 0.  1.
</event>
<event>
12    1  0.1046899E+000  0.2107187E+03  0.7818608E-02  0.1141804E+00
         21   -1    0    0  503  502  0.00000000000E+00  0.00000000000E+00  0.54383193598E+02  0.54383193598E+02  0.00000000000E+00 0. -1.
         21   -1    0    0  501  503 -0.00000000000E+00 -0.00000000000E+00 -0.80115470316E+03  0.80115470316E+03  0.00000000000E+00 0. -1.
          6    2    1    2  501    0  0.81275509139E+02  0.81381340348E+02 -0.36899106459E+03  0.42491972704E+03  0.17656086127E+03 0.  0.
         24    2    3    3    0    0  0.74483207574E+02  0.10393287514E+03 -0.37242513872E+03  0.40065885428E+03  0.74008396965E+02 0.  0.
         -6    2    1    2    0  502 -0.81275509139E+02 -0.81381340348E+02 -0.37778044497E+03  0.43061816972E+03  0.17171287823E+03 0.  0.
        -24    2    5    5    0    0 -0.68125418441E+02  0.51427833258E+01 -0.27695466812E+03  0.29702447174E+03  0.82777580066E+02 0.  0.
          5    1    3    3  501    0  0.67923015644E+01 -0.22551534787E+02  0.34340741227E+01  0.24260872756E+02  0.47000000000E+01 0. -1.
        -11    1    4    4    0    0  0.38473422542E+02  0.52799030842E+02 -0.28957944303E+03  0.29685719753E+03  0.00000000000E+00 0.  1.
         12    1    4    4    0    0  0.36009785032E+02  0.51133844294E+02 -0.82845695683E+02  0.10380165675E+03  0.00000000000E+00 0. -1.
         -5    1    5    5    0  502 -0.13150090698E+02 -0.86524123674E+02 -0.10082577685E+03  0.13359369798E+03  0.47000000000E+01 0.  1.
         13    1    6    6    0    0 -0.57372338419E+02 -0.31938681183E+02 -0.13833098875E+03  0.15312454741E+03  0.00000000000E+00 0. -1.
        -14    1    6    6    0    0 -0.10753080022E+02  0.37081464509E+02 -0.13862367937E+03  0.14389992433E+03  0.00000000000E+00 0.  1.
</event>
<event>
12    1  0.1046899E+000  0.4428933E+03  0.7818608E-02  0.1029946E+00
         21   -1    0    0  503  502  0.00000000000E+00  0.00000000000E+00  0.63552875172E+03  0.63552875172E+03  0.00000000000E+00 0. -1.
         21   -1    0    0  501  503 -0.00000000000E+00 -0.00000000000E+00 -0.31313493961E+03  0.31313493961E+03  0.00000000000E+00 0. -1.
          6    2    1    2  501    0  0.70257276791E+02  0.40263275374E+03  0.99617331418E+02  0.45289774266E+03  0.16776034470E+03 0.  0.
         24    2    3    3    0    0  0.54872575937E+02  0.15015886768E+03  0.88349550927E+02  0.19966108448E+03  0.80623944182E+02 0.  0.
         -6    2    1    2    0  502 -0.70257276791E+02 -0.40263275374E+03  0.22277648070E+03  0.49576594867E+03  0.17060274378E+03 0.  0.
        -24    2    5    5    0    0 -0.20102544393E+02 -0.20196302588E+03  0.18279670016E+03  0.28504264736E+03  0.81495405477E+02 0.  0.
          5    1    3    3  501    0  0.15384700854E+02  0.25247388607E+03  0.11267780491E+02  0.25323665817E+03  0.47000000000E+01 0. -1.
        -11    1    4    4    0    0  0.61681993309E+01  0.10229235339E+03  0.22758773484E+02  0.10497492089E+03  0.00000000000E+00 0.  1.
         12    1    4    4    0    0  0.48704376606E+02  0.47866514288E+02  0.65590777443E+02  0.94686163594E+02  0.00000000000E+00 0. -1.
         -5    1    5    5    0  502 -0.50154732399E+02 -0.20066972787E+03  0.39979780539E+02  0.21072330131E+03  0.47000000000E+01 0.  1.
         13    1    6    6    0    0  0.13358168093E+02 -0.16420586646E+03  0.11670496751E+03  0.20189615319E+03  0.00000000000E+00 0. -1.
        -14    1    6    6    0    0 -0.33460712486E+02 -0.37757159420E+02  0.66091732653E+02  0.83146494170E+02  0.00000000000E+00 0.  1.
</event>
<event>
12    1  0.1046899E+000  0.2028646E+03  0.7818608E-02  0.1147452E+00
         21   -1    0    0  501  502  0.00000000000E+00  0.00000000000E+00  0.12824150454E+03  0.12824150454E+03  0.00000000000E+00 0. -1.
         21   -1    0    0  502  503 -0.00000000000E+00 -0.00000000000E+00 -0.34451531018E+03  0.34451531018E+03  0.00000000000E+00 0. -1.
         -6    2    1    2    0  503  0.10546820461E+03 -0.13607244388E+02 -0.45325747649E+02  0.20786642543E+03  0.17275800455E+03 0.  0.
        -24    2    3    3    0    0  0.80068459867E+02  0.30330277669E+02 -0.83595936018E+02  0.14412985668E+03  0.80338353600E+02 0.  0.
          6    2    1    2  501    0 -0.10546820461E+03  0.13607244388E+02 -0.17094805798E+03  0.26489038929E+03  0.17214813542E+03 0.  0.
         24    2    5    5    0    0 -0.58189773204E+02 -0.58298500613E+02 -0.79247637278E+02  0.13904626588E+03  0.79176455856E+02 0.  0.
          5    1    5    5  501    0 -0.47278431408E+02  0.71905745001E+02 -0.91700420704E+02  0.12584412341E+03  0.47000000000E+01 0. -1.
        -13    1    6    6    0    0 -0.48192229954E+02 -0.30732992152E+02 -0.90995601424E+02  0.10745793276E+03  0.00000000000E+00 0.  1.
         14    1    6    6    0    0 -0.99975432496E+01 -0.27565508461E+02  0.11747964146E+02  0.31588333121E+02  0.00000000000E+00 0. -1.
         -5    1    3    3    0  503  0.25399744745E+02 -0.43937522057E+02  0.38270188369E+02  0.63736568745E+02  0.47000000000E+01 0.  1.
         11    1    4    4    0    0  0.66725834468E+02  0.32857618478E+02 -0.17174315677E+02  0.76334246551E+02  0.00000000000E+00 0. -1.
        -12    1    4    4    0    0  0.13342625399E+02 -0.25273408094E+01 -0.66421620341E+02  0.67795610130E+02  0.00000000000E+00 0.  1.
</event>
<event>
12    1  0.1046899E+000  0.3356890E+03  0.7818608E-02  0.1068686E+00
         21   -1    0    0  501  502  0.00000000000E+00  0.00000000000E+00  0.23183190567E+03  0.23183190567E+03  0.00000000000E+00 0.  1.
         21   -1    0    0  502  503 -0.00000000000E+00 -0.00000000000E+00 -0.13464928967E+04  0.13464928967E+04  0.00000000000E+00 0.  1.
         -6    2    1    2    0  503 -0.28511706599E+03 -0.38979151007E+02  0.73592399882E+02  0.34366110154E+03  0.17284674095E+03 0.  0.
        -24    2    3    3    0    0 -0.27396537689E+03  0.10026801954E+02  0.59392854885E+02  0.29122389458E+03  0.78270563242E+02 0.  0.
          6    2    1    2  501    0  0.28511706599E+03  0.38979151007E+02 -0.11882533909E+04  0.12346637008E+04  0.17215463287E+03 0.  0.
         24    2    5    5    0    0  0.29868841269E+03  0.54192450244E+02 -0.11164604580E+04  0.11598844180E+04  0.81831041276E+02 0.  0.
          5    1    5    5  501    0 -0.13571346694E+02 -0.15213299237E+02 -0.71792932855E+02  0.74779282777E+02  0.47000000000E+01 0. -1.
        -13    1    6    6    0    0  0.17963352017E+02  0.24176888800E+02 -0.74651508116E+02  0.80498767890E+02  0.00000000000E+00 0.  1.
         14    1    6    6    0    0  0.28072506067E+03  0.30015561444E+02 -0.10418089499E+04  0.10793856501E+04  0.00000000000E+00 0. -1.
         -5    1    3    3    0  503 -0.11151689102E+02 -0.49005952961E+02  0.14199544997E+02  0.52437206958E+02  0.47000000000E+01 0.  1.
         13    1    4    4    0    0 -0.14591618790E+03  0.26319293744E+02  0.65286438763E+02  0.16200789549E+03  0.00000000000E+00 0. -1.
        -14    1    4    4    0    0 -0.12804918899E+03 -0.16292491790E+02 -0.58935838778E+01  0.12921599909E+03  0.00000000000E+00 0.  1.
</event>
<event>
12    1  0.1046899E+000  0.2651462E+03  0.7818608E-02  0.1104366E+00
         21   -1    0    0  503  502  0.00000000000E+00  0.00000000000E+00  0.81056723118E+02  0.81056723118E+02  0.00000000000E+00 0.  1.
         21   -1    0    0  501  503 -0.00000000000E+00 -0.00000000000E+00 -0.86131383516E+03  0.86131383516E+03  0.00000000000E+00 0.  1.
          6    2    1    2  501    0  0.94481986454E+02 -0.17600257388E+03 -0.39716865733E+03  0.47754106510E+03  0.17435244394E+03 0.  0.
         24    2    3    3    0    0  0.33622026157E+02 -0.11309750764E+02 -0.94272114324E+02  0.12740385410E+03  0.78013841055E+02 0.  0.
         -6    2    1    2    0  502 -0.94481986454E+02  0.17600257388E+03 -0.38308845471E+03  0.46482949318E+03  0.17148160783E+03 0.  0.
        -24    2    5    5    0    0 -0.55838000584E+02  0.17319101348E+03 -0.21445875562E+03  0.29174186240E+03  0.77509657161E+02 0.  0.
          5    1    3    3  501    0  0.60859960297E+02 -0.16469282312E+03 -0.30289654301E+03  0.35013721099E+03  0.47000000000E+01 0. -1.
        -11    1    4    4    0    0  0.50085519366E+02 -0.30999681048E+02 -0.55666047850E+02  0.81044730603E+02  0.00000000000E+00 0.  1.
         12    1    4    4    0    0 -0.16463493208E+02  0.19689930284E+02 -0.38606066474E+02  0.46359123501E+02  0.00000000000E+00 0. -1.
         -5    1    5    5    0  502 -0.38643985870E+02  0.28115603994E+01 -0.16862969908E+03  0.17308763078E+03  0.47000000000E+01 0.  1.
         13    1    6    6    0    0 -0.50459927079E+02  0.64742803953E+02 -0.13182856361E+03  0.15529521914E+03  0.00000000000E+00 0. -1.
        -14    1    6    6    0    0 -0.53780735048E+01  0.10844820953E+03 -0.82630192013E+02  0.13644664326E+03  0.00000000000E+00 0.  1.
</event>
<event>
12    1  0.1046899E+000  0.1733923E+03  0.7818608E-02  0.1174747E+00
         21   -1    0    0  503  502  0.00000000000E+00  0.00000000000E+00  0.20243654296E+04  0.20243654296E+04  0.00000000000E+00 0. -1.
         21   -1    0    0  501  503 -0.00000000000E+00 -0.00000000000E+00 -0.16711387815E+02  0.16711387815E+02  0.00000000000E+00 0. -1.
          6    2    1    2  501    0 -0.17012070008E+02 -0.36265416959E+01  0.65551218816E+03  0.67805688017E+03  0.17251765588E+03 0.  0.
         24    2    3    3    0    0  0.97899475709E+01 -0.33858911571E+02  0.60893016659E+03  0.61621580104E+03  0.87656698000E+02 0.  0.
         -6    2    1    2    0  502  0.17012070008E+02  0.36265416959E+01  0.13521418536E+04  0.13630199372E+04  0.17097717586E+03 0.  0.
        -24    2    5    5    0    0 -0.26986703457E+02  0.63167624730E+01  0.36182130693E+03  0.37170767334E+03  0.80521752471E+02 0.  0.
          5    1    3    3  501    0 -0.26802017579E+02  0.30232369875E+02  0.46582021574E+02  0.61841079134E+02  0.47000000000E+01 0. -1.
        -11    1    4    4    0    0  0.35115340005E+02  0.82313116166E+01  0.39847443094E+03  0.40010337877E+03  0.00000000000E+00 0.  1.
         12    1    4    4    0    0 -0.25325392434E+02 -0.42090223187E+02  0.21045573565E+03  0.21611242227E+03  0.00000000000E+00 0. -1.
         -5    1    5    5    0  502  0.43998773465E+02 -0.26902207771E+01  0.99032054666E+03  0.99131226386E+03  0.47000000000E+01 0.  1.
         13    1    6    6    0    0 -0.28207674037E+02  0.26167123437E+02  0.34005113410E+03  0.34222093014E+03  0.00000000000E+00 0. -1.
        -14    1    6    6    0    0  0.12209705801E+01 -0.19850360964E+02  0.21770172830E+02  0.29486743201E+02  0.00000000000E+00 0.  1.
</event>
<event>
12    1  0.1046899E+000  0.1909622E+03  0.7818608E-02  0.1157665E+00
         21   -1    0    0  501  502  0.00000000000E+00  0.00000000000E+00  0.80882179116E+03  0.80882179116E+03  0.00000000000E+00 0. -1.
         21   -1    0    0  502  503 -0.00000000000E+00 -0.00000000000E+00 -0.52191089562E+02  0.52191089562E+02  0.00000000000E+00 0. -1.
         -6    2    1    2    0  503  0.58838163258E+02  0.60027291258E+02  0.53770462317E+03  0.57050436891E+03  0.17112500698E+03 0.  0.
        -24    2    3    3    0    0  0.45119647901E+02  0.97070549303E+02  0.48813786637E+03  0.50694845643E+03  0.85203795292E+02 0.  0.
          6    2    1    2  501    0 -0.58838163258E+02 -0.60027291258E+02  0.21892607843E+03  0.29050851181E+03  0.17146825499E+03 0.  0.
         24    2    5    5    0    0 -0.67359922421E+02 -0.93201687977E+02  0.22232978366E+03  0.25576896394E+03  0.52567256180E+02 0.  0.
          5    1    5    5  501    0  0.85217591626E+01  0.33174396719E+02 -0.34037052357E+01  0.34739547870E+02  0.47000000000E+01 0. -1.
        -13    1    6    6    0    0 -0.36891672804E+02 -0.88144124681E+02  0.16733839149E+03  0.19269800078E+03  0.00000000000E+00 0.  1.
         14    1    6    6    0    0 -0.30468249616E+02 -0.50575632967E+01  0.54991392170E+02  0.63070963161E+02  0.00000000000E+00 0. -1.
         -5    1    3    3    0  503  0.13718515357E+02 -0.37043258045E+02  0.49566756804E+02  0.63555912473E+02  0.47000000000E+01 0.  1.
         13    1    4    4    0    0  0.89969176839E+01  0.65458910029E+01  0.24142199036E+03  0.24167823785E+03  0.00000000000E+00 0. -1.
        -14    1    4    4    0    0  0.36122730217E+02  0.90524658301E+02  0.24671587600E+03  0.26527021859E+03  0.00000000000E+00 0.  1.
</event>
<event>
12    1  0.1046899E+000  0.1785166E+03  0.7818608E-02  0.1169387E+00
         21   -1    0    0  501  502  0.00000000000E+00  0.00000000000E+00  0.62622700577E+03  0.62622700577E+03  0.00000000000E+00 0.  1.
         21   -1    0    0  502  503 -0.00000000000E+00 -0.00000000000E+00 -0.57227794965E+02  0.57227794965E+02  0.00000000000E+00 0.  1.
         -6    2    1    2    0  503 -0.44037619656E+02 -0.38144919661E+01  0.40008729145E+03  0.43810731913E+03  0.17295756708E+03 0.  0.
        -24    2    3    3    0    0  0.10738553172E+02  0.24291477803E+02  0.97122875402E+02  0.12891498088E+03  0.80503583468E+02 0.  0.
          6    2    1    2  501    0  0.44037619656E+02  0.38144919661E+01  0.16891191936E+03  0.24534748160E+03  0.17236672513E+03 0.  0.
         24    2    5    5    0    0  0.85280184994E+02  0.19026940032E+02  0.66944823770E+02  0.13420907080E+03  0.76783662692E+02 0.  0.
          5    1    5    5  501    0 -0.41242565338E+02 -0.15212448066E+02  0.10196709559E+03  0.11113841080E+03  0.47000000000E+01 0. -1.
        -13    1    6    6    0    0  0.77609059660E+02  0.44675586713E+02  0.51520118736E+02  0.10331213300E+03  0.00000000000E+00 0.  1.
         14    1    6    6    0    0  0.76711253338E+01 -0.25648646681E+02  0.15424705035E+02  0.30896937807E+02  0.00000000000E+00 0. -1.
         -5    1    3    3    0  503 -0.54776172828E+02 -0.28105969769E+02  0.30296441604E+03  0.30919233825E+03  0.47000000000E+01 0.  1.
         11    1    4    4    0    0 -0.57241942880E+01  0.51505296511E+02  0.70125390701E+02  0.87195942508E+02  0.00000000000E+00 0. -1.
        -12    1    4    4    0    0  0.16462747460E+02 -0.27213818708E+02  0.26997484702E+02  0.41719038373E+02  0.00000000000E+00 0.  1.
</event>
<event>
12    1  0.1046899E+000  0.1759082E+03  0.7818608E-02  0.1173134E+00
         21   -1    0    0  503  502  0.00000000000E+00  0.00000000000E+00  0.55034918888E+03  0.55034918888E+03  0.00000000000E+00 0.  1.
         21   -1    0    0  501  503 -0.00000000000E+00 -0.00000000000E+00 -0.54856410492E+02  0.54856410492E+02  0.00000000000E+00 0.  1.
          6    2    1    2  501    0  0.21466056691E+02 -0.36026890391E+01  0.22274758648E+03  0.28065417330E+03  0.16934139112E+03 0.  0.
         24    2    3    3    0    0  0.55236882130E+02 -0.13741540113E+02  0.84630013144E+02  0.13802942433E+03  0.93005052471E+02 0.  0.
         -6    2    1    2    0  502 -0.21466056691E+02  0.36026890391E+01  0.27274519191E+03  0.32455142608E+03  0.17455634477E+03 0.  0.
        -24    2    5    5    0    0  0.44418421306E+01  0.56229929155E+02  0.83686365291E+02  0.12654593235E+03  0.76347431945E+02 0.  0.
          5    1    3    3  501    0 -0.33770825440E+02  0.10138851074E+02  0.13811757334E+03  0.14262474896E+03  0.47000000000E+01 0. -1.
        -13    1    4    4    0    0  0.33333524447E+01 -0.40980641574E+02  0.85642425449E+01  0.41998457980E+02  0.00000000000E+00 0.  1.
         14    1    4    4    0    0  0.51903529686E+02  0.27239101460E+02  0.76065770599E+02  0.96030966355E+02  0.00000000000E+00 0. -1.
         -5    1    5    5    0  502 -0.25907898821E+02 -0.52627240116E+02  0.18905882662E+03  0.19800549373E+03  0.47000000000E+01 0.  1.
         11    1    6    6    0    0  0.22575804549E+02 -0.91025012403E+01  0.97340452016E+01  0.26215913408E+02  0.00000000000E+00 0. -1.
        -12    1    6    6    0    0 -0.18133962418E+02  0.65332430395E+02  0.73952320089E+02  0.10033001894E+03  0.00000000000E+00 0.  1.
</event>
<event>
12    1  0.1046899E+000  0.1869112E+03  0.7818608E-02  0.1161464E+00
         21   -1    0    0  503  502  0.00000000000E+00  0.00000000000E+00  0.56056495965E+02  0.56056495965E+02  0.00000000000E+00 0. -1.
         21   -1    0    0  501  503 -0.00000000000E+00 -0.00000000000E+00 -0.88743870415E+03  0.88743870415E+03  0.00000000000E+00 0. -1.
          6    2    1    2  501    0  0.58961081912E+02  0.38629287703E+02 -0.15760794325E+03  0.24449143425E+03  0.17311027294E+03 0.  0.
         24    2    3    3    0    0  0.79642607724E+02  0.44171187060E+02 -0.41976881745E+02  0.12680086307E+03  0.77603875831E+02 0.  0.
         -6    2    1    2    0  502 -0.58961081912E+02 -0.38629287703E+02 -0.67377426493E+03  0.69900376586E+03  0.17223784009E+03 0.  0.
        -24    2    5    5    0    0 -0.32670570072E+02 -0.21004529766E+02 -0.14938401966E+03  0.17363813847E+03  0.79536541183E+02 0.  0.
          5    1    3    3  501    0 -0.20681525813E+02 -0.55418993573E+01 -0.11563106151E+03  0.11769057118E+03  0.47000000000E+01 0. -1.
        -13    1    4    4    0    0  0.64817492146E+02  0.16359077110E+02 -0.60569626859E+02  0.90208682452E+02  0.00000000000E+00 0.  1.
         14    1    4    4    0    0  0.14825115578E+02  0.27812109951E+02  0.18592745114E+02  0.36592180622E+02  0.00000000000E+00 0. -1.
         -5    1    5    5    0  502 -0.26290511840E+02 -0.17624757937E+02 -0.52439024527E+03  0.52536562739E+03  0.47000000000E+01 0.  1.
         11    1    6    6    0    0  0.13915155189E+02  0.16830382163E+02 -0.15090052500E+02  0.26544358951E+02  0.00000000000E+00 0. -1.
        -12    1    6    6    0    0 -0.46585725261E+02 -0.37834911929E+02 -0.13429396716E+03  0.14709377952E+03  0.00000000000E+00 0.  1.
</event>
<event>
12    1  0.1046899E+000  0.2705377E+03  0.7818608E-02  0.1100997E+00
         21   -1    0    0  503  502  0.00000000000E+00  0.00000000000E+00  0.58785536532E+03  0.58785536532E+03  0.00000000000E+00 0. -1.
         21   -1    0    0  501  503 -0.00000000000E+00 -0.00000000000E+00 -0.14019328356E+03  0.14019328356E+03  0.00000000000E+00 0. -1.
          6    2    1    2  501    0 -0.20332535371E+03  0.45175128338E+02  0.34597614159E+03  0.43919260368E+03  0.17265184880E+03 0.  0.
         24    2    3    3    0    0 -0.43066769010E+02 -0.43827058666E+01  0.18621958395E+03  0.20749659463E+03  0.80642102104E+02 0.  0.
         -6    2    1    2    0  502  0.20332535371E+03 -0.45175128338E+02  0.10168594018E+03  0.28885604520E+03  0.17238269268E+03 0.  0.
        -24    2    5    5    0    0  0.95064035044E+02  0.35940098814E+02  0.22668430138E+02  0.13212043952E+03  0.81320915832E+02 0.  0.
          5    1    3    3  501    0 -0.16025858470E+03  0.49557834205E+02  0.15975655763E+03  0.23169600905E+03  0.47000000000E+01 0. -1.
        -13    1    4    4    0    0 -0.39667936331E+02  0.15731300429E+02  0.35804076544E+02  0.55704137038E+02  0.00000000000E+00 0.  1.
         14    1    4    4    0    0 -0.33988326794E+01 -0.20114006295E+02  0.15041550741E+03  0.15179245759E+03  0.00000000000E+00 0. -1.
         -5    1    5    5    0  502  0.10826131867E+03 -0.81115227153E+02  0.79017510041E+02  0.15673560568E+03  0.47000000000E+01 0.  1.
         13    1    6    6    0    0  0.81896468759E+02  0.30199779817E+02  0.50469486972E+02  0.10082771153E+03  0.00000000000E+00 0. -1.
        -14    1    6    6    0    0  0.13167566285E+02  0.57403189976E+01 -0.27801056835E+02  0.31292727992E+02  0.00000000000E+00 0.  1.
</event>
<event>
12    1  0.1046899E+000  0.2581473E+03  0.7818608E-02  0.1108341E+00
         21   -1    0    0  503  502  0.00000000000E+00  0.00000000000E+00  0.10346646678E+04  0.10346646678E+04  0.00000000000E+00 0.  1.
         21   -1    0    0  501  503 -0.00000000000E+00 -0.00000000000E+00 -0.64443659991E+02  0.64443659991E+02  0.00000000000E+00 0.  1.
          6    2    1    2  501    0  0.15225371404E+03 -0.11789157607E+03  0.51360674417E+03  0.57483209694E+03  0.17193148308E+03 0.  0.
         24    2    3    3    0    0  0.64078725936E+02 -0.42133361873E+02  0.39097874185E+03  0.40579407608E+03  0.76962018563E+02 0.  0.
         -6    2    1    2    0  502 -0.15225371404E+03  0.11789157607E+03  0.45661426367E+03  0.52427623088E+03  0.17114135482E+03 0.  0.
        -24    2    5    5    0    0 -0.12021069519E+03  0.14427126788E+03  0.30736833959E+03  0.36929533188E+03  0.81479666166E+02 0.  0.
          5    1    3    3  501    0  0.88174988103E+02 -0.75758214199E+02  0.12262800232E+03  0.16903802087E+03  0.47000000000E+01 0. -1.
        -13    1    4    4    0    0  0.12938707145E+02 -0.54444716048E+02  0.20960802628E+03  0.21694967602E+03  0.00000000000E+00 0.  1.
         14    1    4    4    0    0  0.51140018792E+02  0.12311354175E+02  0.18137071557E+03  0.18884440005E+03  0.00000000000E+00 0. -1.
         -5    1    5    5    0  502 -0.32043018851E+02 -0.26379691806E+02  0.14924592409E+03  0.15498089900E+03  0.47000000000E+01 0.  1.
         13    1    6    6    0    0 -0.10092333916E+03  0.10279194164E+03  0.28278787908E+03  0.31736522842E+03  0.00000000000E+00 0. -1.
        -14    1    6    6    0    0 -0.19287356026E+02  0.41479326235E+02  0.24580460509E+02  0.51930103468E+02  0.00000000000E+00 0.  1.
</event>
<event>
12    1  0.1046899E+000  0.2056227E+03  0.7818608E-02  0.1145321E+00
         21   -1    0    0  501  502  0.00000000000E+00  0.00000000000E+00  0.27784440657E+03  0.27784440657E+03  0.00000000000E+00 0.  1.
         21   -1    0    0  502  503 -0.00000000000E+00 -0.00000000000E+00 -0.26476369421E+03  0.26476369421E+03  0.00000000000E+00 0.  1.
         -6    2    1    2    0  503 -0.59164844003E+02  0.96211676671E+02  0.18415516583E+03  0.27603226311E+03  0.17182409518E+03 0.  0.
        -24    2    3    3    0    0 -0.50871901625E+02 -0.40791305844E+01  0.55114176490E+02  0.11232311296E+03  0.83512391740E+02 0.  0.
          6    2    1    2  501    0  0.59164844003E+02 -0.96211676671E+02 -0.17107445346E+03  0.26657583767E+03  0.17040845961E+03 0.  0.
         24    2    5    5    0    0 -0.15005023611E+02 -0.40993188807E+02 -0.32204660546E+02  0.99671194089E+02  0.83615874738E+02 0.  0.
          5    1    5    5  501    0  0.74169867613E+02 -0.55218487864E+02 -0.13886979292E+03  0.16690464358E+03  0.47000000000E+01 0. -1.
        -11    1    6    6    0    0 -0.14293844437E+02 -0.51718677473E+02 -0.53528044068E+02  0.75791734972E+02  0.00000000000E+00 0.  1.
         12    1    6    6    0    0 -0.71117917325E+00  0.10725488666E+02  0.21323383522E+02  0.23879459118E+02  0.00000000000E+00 0. -1.
         -5    1    3    3    0  503 -0.82929423778E+01  0.10029080726E+03  0.12904098934E+03  0.16370915015E+03  0.47000000000E+01 0.  1.
         13    1    4    4    0    0 -0.66883524395E+02 -0.24915266223E+02  0.43571413822E+02  0.83622033155E+02  0.00000000000E+00 0. -1.
        -14    1    4    4    0    0  0.16011622771E+02  0.20836135639E+02  0.11542762668E+02  0.28701079808E+02  0.00000000000E+00 0.  1.
</event>
<event>
12    1  0.1046899E+000  0.1777126E+03  0.7818608E-02  0.1170524E+00
         21   -1    0    0  501  502  0.00000000000E+00  0.00000000000E+00  0.68767062413E+03  0.68767062413E+03  0.00000000000E+00 0.  1.
         21   -1    0    0  502  503 -0.00000000000E+00 -0.00000000000E+00 -0.33909724647E+03  0.33909724647E+03  0.00000000000E+00 0.  1.
         -6    2    1    2    0  503 -0.17430305509E+02 -0.29336032967E+02  0.65218503361E+03  0.67596380863E+03  0.17440565970E+03 0.  0.
        -24    2    3    3    0    0  0.32028921100E+02 -0.17126625897E+02  0.58403457655E+03  0.59074726379E+03  0.81035609243E+02 0.  0.
          6    2    1    2  501    0  0.17430305509E+02  0.29336032967E+02 -0.30361165595E+03  0.35080406197E+03  0.17239209346E+03 0.  0.
         24    2    5    5    0    0  0.15514837656E+02  0.54495527905E+02 -0.71740191925E+02  0.11751639614E+03  0.73844265008E+02 0.  0.
          5    1    5    5  501    0  0.19154678530E+01 -0.25159494938E+02 -0.23187146402E+03  0.23328766583E+03  0.47000000000E+01 0. -1.
        -11    1    6    6    0    0 -0.90564329333E+00 -0.13126647929E+02 -0.37935614484E+02  0.40152707529E+02  0.00000000000E+00 0.  1.
         12    1    6    6    0    0  0.16420480949E+02  0.67622175834E+02 -0.33804577442E+02  0.77363688609E+02  0.00000000000E+00 0. -1.
         -5    1    3    3    0  503 -0.49459226608E+02 -0.12209407069E+02  0.68150457058E+02  0.85216544843E+02  0.47000000000E+01 0.  1.
         13    1    4    4    0    0  0.41918942712E+02  0.22642996300E+02  0.33254397155E+03  0.33593957203E+03  0.00000000000E+00 0. -1.
        -14    1    4    4    0    0 -0.98900216120E+01 -0.39769622197E+02  0.25149060500E+03  0.25480769176E+03  0.00000000000E+00 0.  1.
</event>
<event>
12    1  0.1046899E+000  0.1749874E+03  0.7818608E-02  0.1172915E+00
         21   -1    0    0  501  502  0.00000000000E+00  0.00000000000E+00  0.37585936483E+03  0.37585936483E+03  0.00000000000E+00 0.  1.
         21   -1    0    0  502  503 -0.00000000000E+00 -0.00000000000E+00 -0.81488111688E+02  0.81488111688E+02  0.00000000000E+00 0.  1.
         -6    2    1    2    0  503 -0.17577881215E+02  0.20430155121E+02  0.13224536227E+03  0.21879892825E+03  0.17221429097E+03 0.  0.
        -24    2    3    3    0    0  0.44507818548E+02 -0.28295760349E+02  0.72532307821E+02  0.11972023313E+03  0.79312058216E+02 0.  0.
          6    2    1    2  501    0  0.17577881215E+02 -0.20430155121E+02  0.16212589087E+03  0.23854854827E+03  0.17289948596E+03 0.  0.
         24    2    5    5    0    0 -0.20360131867E+02 -0.14315655990E+02  0.17773416939E+03  0.19680662337E+03  0.80770904761E+02 0.  0.
          5    1    5    5  501    0  0.37938013081E+02 -0.61144991310E+01 -0.15608278521E+02  0.41741924903E+02  0.47000000000E+01 0. -1.
        -11    1    6    6    0    0 -0.50313693097E+02 -0.12910111431E+02  0.13458425909E+03  0.14426039472E+03  0.00000000000E+00 0.  1.
         12    1    6    6    0    0  0.29953561230E+02 -0.14055445587E+01  0.43149910299E+02  0.52546228644E+02  0.00000000000E+00 0. -1.
         -5    1    3    3    0  503 -0.62085699763E+02  0.48725915470E+02  0.59713054448E+02  0.99078695111E+02  0.47000000000E+01 0.  1.
         13    1    4    4    0    0 -0.22891518663E+02 -0.84476369145E+01  0.24719818998E+02  0.34734041622E+02  0.00000000000E+00 0. -1.
        -14    1    4    4    0    0  0.67399337211E+02 -0.19848123435E+02  0.47812488823E+02  0.84986191513E+02  0.00000000000E+00 0.  1.
</event>
<event>
12    1  0.1046899E+000  0.2559035E+03  0.7818608E-02  0.1110736E+00
         21   -1    0    0  501  502  0.00000000000E+00  0.00000000000E+00  0.96991835569E+03  0.96991835569E+03  0.00000000000E+00 0. -1.
         21   -1    0    0  502  503 -0.00000000000E+00 -0.00000000000E+00 -0.71744339807E+02  0.71744339807E+02  0.00000000000E+00 0. -1.
         -6    2    1    2    0  503  0.15577770618E+03 -0.85970816469E+02  0.30315004634E+03  0.39671971581E+03  0.18392636376E+03 0.  0.
        -24    2    3    3    0    0  0.10849015103E+03 -0.47456971330E+02  0.71283450500E+02  0.15692055525E+03  0.74299753334E+02 0.  0.
          6    2    1    2  501    0 -0.15577770618E+03  0.85970816469E+02  0.59502396955E+03  0.64494297969E+03  0.17389723314E+03 0.  0.
         24    2    5    5    0    0 -0.94573838090E+01  0.58177518895E+02  0.26179971587E+03  0.27991887451E+03  0.79633028712E+02 0.  0.
          5    1    5    5  501    0 -0.14632032237E+03  0.27793297574E+02  0.33322425367E+03  0.36502410518E+03  0.47000000000E+01 0. -1.
        -11    1    6    6    0    0 -0.44712912002E+02  0.35467541085E+02  0.15587498310E+03  0.16599458223E+03  0.00000000000E+00 0.  1.
         12    1    6    6    0    0  0.35255528193E+02  0.22709977810E+02  0.10592473277E+03  0.11392429229E+03  0.00000000000E+00 0. -1.
         -5    1    3    3    0  503  0.47287555151E+02 -0.38513845139E+02  0.23186659584E+03  0.23979916056E+03  0.47000000000E+01 0.  1.
         11    1    4    4    0    0  0.14453630516E+02  0.19318014186E+02  0.16560401306E+02  0.29263287557E+02  0.00000000000E+00 0. -1.
        -12    1    4    4    0    0  0.94036520513E+02 -0.66774985516E+02  0.54723049193E+02  0.12765726769E+03  0.00000000000E+00 0.  1.
</event>
<event>
12    1  0.1046899E+000  0.1994182E+03  0.7818608E-02  0.1151403E+00
         21   -1    0    0  503  502  0.00000000000E+00  0.00000000000E+00  0.47194143321E+03  0.47194143321E+03  0.00000000000E+00 0. -1.
         21   -1    0    0  501  503 -0.00000000000E+00 -0.00000000000E+00 -0.14690542616E+03  0.14690542616E+03  0.00000000000E+00 0. -1.
          6    2    1    2  501    0  0.32791776224E+02 -0.94690426708E+02  0.36696107090E+03  0.41506920891E+03  0.16607360756E+03 0.  0.
         24    2    3    3    0    0  0.35184378835E+02 -0.51398536892E+01  0.21564894909E+03  0.23916446797E+03  0.97112382779E+02 0.  0.
         -6    2    1    2    0  502 -0.32791776224E+02  0.94690426708E+02 -0.41925063850E+02  0.20377765046E+03  0.17241241936E+03 0.  0.
        -24    2    5    5    0    0 -0.55211838053E+02  0.11927586521E+03 -0.60271020411E+02  0.16549231278E+03  0.80498637291E+02 0.  0.
          5    1    3    3  501    0 -0.23926026112E+01 -0.89550573018E+02  0.15131212182E+03  0.17590474094E+03  0.47000000000E+01 0. -1.
        -11    1    4    4    0    0  0.32448401293E+02  0.78629148834E+01  0.22195811352E+03  0.22445518113E+03  0.00000000000E+00 0.  1.
         12    1    4    4    0    0  0.27359775418E+01 -0.13002768573E+02 -0.63091644347E+01  0.14709286846E+02  0.00000000000E+00 0. -1.
         -5    1    5    5    0  502  0.22420061829E+02 -0.24585438502E+02  0.18345956560E+02  0.38285337675E+02  0.47000000000E+01 0.  1.
         13    1    6    6    0    0  0.32014859166E+01  0.81561319530E+02 -0.48576454881E+02  0.94985105802E+02  0.00000000000E+00 0. -1.
        -14    1    6    6    0    0 -0.58413323970E+02  0.37714545680E+02 -0.11694565530E+02  0.70507206979E+02  0.00000000000E+00 0.  1.
</event>
<event>
12    1  0.1046899E+000  0.2094548E+03  0.7818608E-02  0.1142207E+00
         21   -1    0    0  503  502  0.00000000000E+00  0.00000000000E+00  0.13146883908E+03  0.13146883908E+03  0.00000000000E+00 0.  1.
         21   -1    0    0  501  503 -0.00000000000E+00 -0.00000000000E+00 -0.99008956177E+03  0.99008956177E+03  0.00000000000E+00 0.  1.
          6    2    1    2  501    0  0.21274697839E+02 -0.11516145580E+03  0.27506807011E+02  0.21125323636E+03  0.17365636115E+03 0.  0.
         24    2    3    3    0    0 -0.41769844146E+02 -0.10485021955E+03  0.43371088763E+02  0.14526307571E+03  0.80511001750E+02 0.  0.
         -6    2    1    2    0  502 -0.21274697839E+02  0.11516145580E+03 -0.88612752970E+03  0.91030516449E+03  0.17239118289E+03 0.  0.
        -24    2    5    5    0    0  0.55700482755E+02  0.60713749272E+02 -0.52084118520E+03  0.53301756245E+03  0.77739813189E+02 0.  0.
          5    1    3    3  501    0  0.63044541985E+02 -0.10311236249E+02 -0.15864281752E+02  0.65990160650E+02  0.47000000000E+01 0. -1.
        -11    1    4    4    0    0 -0.33900066231E+02 -0.10435695980E+03  0.91058471906E+01  0.11010225248E+03  0.00000000000E+00 0.  1.
         12    1    4    4    0    0 -0.78697779151E+01 -0.49325975388E+00  0.34265241572E+02  0.35160823222E+02  0.00000000000E+00 0. -1.
         -5    1    5    5    0  502 -0.76975180593E+02  0.54447706530E+02 -0.36528634451E+03  0.37728760204E+03  0.47000000000E+01 0.  1.
         11    1    6    6    0    0 -0.14810476347E+02 -0.21656736981E+01 -0.34846167421E+02  0.37924869625E+02  0.00000000000E+00 0. -1.
        -12    1    6    6    0    0  0.70510959102E+02  0.62879422970E+02 -0.48599501777E+03  0.49509269282E+03  0.00000000000E+00 0.  1.
</event>
<event>
12    1  0.1046899E+000  0.2696545E+03  0.7818608E-02  0.1101609E+00
         21   -1    0    0  503  502  0.00000000000E+00  0.00000000000E+00  0.25694344745E+03  0.25694344745E+03  0.00000000000E+00 0. -1.
         21   -1    0    0  501  503 -0.00000000000E+00 -0.00000000000E+00 -0.33273220620E+03  0.33273220620E+03  0.00000000000E+00 0. -1.
          6    2    1    2  501    0 -0.96747343868E+02  0.18378332986E+03 -0.15293139751E+03  0.30920371185E+03  0.17053610232E+03 0.  0.
         24    2    3    3    0    0 -0.49534008318E+02  0.15916091722E+03 -0.47243911057E+02  0.19076682126E+03  0.79838445707E+02 0.  0.
         -6    2    1    2    0  502  0.96747343868E+02 -0.18378332986E+03  0.77142638763E+02  0.28047194180E+03  0.17198012252E+03 0.  0.
        -24    2    5    5    0    0  0.12741854495E+03 -0.14663442043E+03  0.31268690941E+02  0.21378406332E+03  0.83598778956E+02 0.  0.
          5    1    3    3  501    0 -0.47213335550E+02  0.24622412639E+02 -0.10568748645E+03  0.11843689058E+03  0.47000000000E+01 0. -1.
        -13    1    4    4    0    0 -0.45063968152E+02  0.12618916742E+03 -0.69293034056E+02  0.15085089251E+03  0.00000000000E+00 0.  1.
         14    1    4    4    0    0 -0.44700401657E+01  0.32971749796E+02  0.22049122999E+02  0.39915928760E+02  0.00000000000E+00 0. -1.
         -5    1    5    5    0  502 -0.30671201084E+02 -0.37148909428E+02  0.45873947822E+02  0.66687878482E+02  0.47000000000E+01 0.  1.
         13    1    6    6    0    0  0.55786499014E+02 -0.10281473050E+02  0.16373970207E+02  0.59041926295E+02  0.00000000000E+00 0. -1.
        -14    1    6    6    0    0  0.71632045938E+02 -0.13635294738E+03  0.14894720733E+02  0.15474213702E+03  0.00000000000E+00 0.  1.
</event>
<event>
12    1  0.1046899E+000  0.1998920E+03  0.7818608E-02  0.1149933E+00
         21   -1    0    0  501  502  0.00000000000E+00  0.00000000000E+00  0.11553991634E+03  0.11553991634E+03  0.00000000000E+00 0.  1.
         21   -1    0    0  502  503 -0.00000000000E+00 -0.00000000000E+00 -0.42605252724E+03  0.42605252724E+03  0.00000000000E+00 0.  1.
         -6    2    1    2    0  503  0.73451506826E+02  0.70767930672E+02 -0.27353049586E+03  0.33878566683E+03  0.17191152381E+03 0.  0.
        -24    2    3    3    0    0  0.33830052571E+02  0.38464038799E+02 -0.27043188105E+03  0.28735520425E+03  0.82556988711E+02 0.  0.
          6    2    1    2  501    0 -0.73451506826E+02 -0.70767930672E+02 -0.36982115042E+02  0.20280677675E+03  0.17134668949E+03 0.  0.
         24    2    5    5    0    0 -0.91267342046E+02  0.32846954775E+01 -0.35318966301E+02  0.12647820093E+03  0.80054912281E+02 0.  0.
          5    1    5    5  501    0  0.17815835221E+02 -0.74052626150E+02 -0.16631487408E+01  0.76328575829E+02  0.47000000000E+01 0. -1.
        -11    1    6    6    0    0 -0.70691109944E+01 -0.27660379437E+02 -0.21445834661E+02  0.35707040554E+02  0.00000000000E+00 0.  1.
         12    1    6    6    0    0 -0.84198231052E+02  0.30945074914E+02 -0.13873131640E+02  0.90771160372E+02  0.00000000000E+00 0. -1.
         -5    1    3    3    0  503  0.39621454255E+02  0.32303891874E+02 -0.30986148099E+01  0.51430462580E+02  0.47000000000E+01 0.  1.
         13    1    4    4    0    0  0.39783808851E+02  0.56972529839E+02 -0.24856266456E+03  0.25809304295E+03  0.00000000000E+00 0. -1.
        -14    1    4    4    0    0 -0.59537562805E+01 -0.18508491041E+02 -0.21869216482E+02  0.29262161301E+02  0.00000000000E+00 0.  1.
</event>
<event>
12    1  0.1046899E+000  0.2077401E+03  0.7818608E-02  0.1144207E+00
         21   -1    0    0  503  502  0.00000000000E+00  0.00000000000E+00  0.20122930879E+03  0.20122930879E+03  0.00000000000E+00 0.  1.
         21   -1    0    0  501  503 -0.00000000000E+00 -0.00000000000E+00 -0.22704964805E+03  0.22704964805E+03  0.00000000000E+00 0.  1.
          6    2    1    2  501    0 -0.84347714314E+02 -0.77214233302E+02 -0.71334905560E+02  0.21964657388E+03  0.17343406220E+03 0.  0.
         24    2    3    3    0    0  0.23679205873E+02 -0.27764407900E+02 -0.57658214604E+02  0.99962646000E+02  0.73051309004E+02 0.  0.
         -6    2    1    2    0  502  0.84347714314E+02  0.77214233302E+02  0.45514566308E+02  0.20863238296E+03  0.16846162987E+03 0.  0.
        -24    2    5    5    0    0 -0.23258299117E+02  0.20649167208E+02  0.28314272597E+02  0.85764157071E+02  0.74742598437E+02 0.  0.
          5    1    3    3  501    0 -0.10802692019E+03 -0.49449825403E+02 -0.13676690957E+02  0.11968392788E+03  0.47000000000E+01 0. -1.
        -11    1    4    4    0    0  0.35439358965E+02 -0.46314135648E+02 -0.49631975514E+02  0.76578589162E+02  0.00000000000E+00 0.  1.
         12    1    4    4    0    0 -0.11760153091E+02  0.18549727748E+02 -0.80262390893E+01  0.23384056837E+02  0.00000000000E+00 0. -1.
         -5    1    5    5    0  502  0.10760601343E+03  0.56565066094E+02  0.17200293711E+02  0.12286822589E+03  0.47000000000E+01 0.  1.
         11    1    6    6    0    0  0.27054117902E+02  0.14514970885E+01  0.87862682795E+01  0.28482111044E+02  0.00000000000E+00 0. -1.
        -12    1    6    6    0    0 -0.50312417020E+02  0.19197670119E+02  0.19528004318E+02  0.57282046026E+02  0.00000000000E+00 0.  1.
</event>
<event>
12    1  0.1046899E+000  0.1729485E+03  0.7818608E-02  0.1174991E+00
         21   -1    0    0  501  502  0.00000000000E+00  0.00000000000E+00  0.14531728210E+04  0.14531728210E+04  0.00000000000E+00 0. -1.
         21   -1    0    0  502  503 -0.00000000000E+00 -0.00000000000E+00 -0.20584950692E+02  0.20584950692E+02  0.00000000000E+00 0. -1.
         -6    2    1    2    0  503 -0.16657441034E+02 -0.35189534528E+00  0.76268370862E+03  0.78188872069E+03  0.17142327141E+03 0.  0.
        -24    2    3    3    0    0 -0.72852872016E+02  0.69674065353E+01  0.38928048209E+03  0.40418042289E+03  0.80414145525E+02 0.  0.
          6    2    1    2  501    0  0.16657441034E+02  0.35189534528E+00  0.66990416173E+03  0.69186905104E+03  0.17214413644E+03 0.  0.
         24    2    5    5    0    0  0.68335383142E+02 -0.58829635286E+01  0.56694390911E+03  0.57640309595E+03  0.78171600287E+02 0.  0.
          5    1    5    5  501    0 -0.51677942108E+02  0.62348588739E+01  0.10296025262E+03  0.11546595509E+03  0.47000000000E+01 0. -1.
        -13    1    6    6    0    0  0.27179229979E+02 -0.31641059482E+02  0.12446577830E+03  0.13126917824E+03  0.00000000000E+00 0.  1.
         14    1    6    6    0    0  0.41156153163E+02  0.25758095953E+02  0.44247813081E+03  0.44513391771E+03  0.00000000000E+00 0. -1.
         -5    1    3    3    0  503  0.56195430982E+02 -0.73193018806E+01  0.37340322653E+03  0.37770829780E+03  0.47000000000E+01 0.  1.
         11    1    4    4    0    0 -0.31292525853E+02 -0.27370505673E+02  0.27129315598E+03  0.27446009407E+03  0.00000000000E+00 0. -1.
        -12    1    4    4    0    0 -0.41560346163E+02  0.34337912209E+02  0.11798732611E+03  0.12972032883E+03  0.00000000000E+00 0.  1.
</event>
<event>
12    1  0.1046899E+000  0.2536789E+03  0.7818608E-02  0.1111177E+00
         21   -1    0    0  501  502  0.00000000000E+00  0.00000000000E+00  0.86982166649E+02  0.86982166649E+02  0.00000000000E+00 0.  1.
         21   -1    0    0  502  503 -0.00000000000E+00 -0.00000000000E+00 -0.79360168893E+03  0.79360168893E+03  0.00000000000E+00 0.  1.
         -6    2    1    2    0  503 -0.54852592513E+02  0.17824432008E+03 -0.47062894064E+03  0.53410944896E+03  0.17029814783E+03 0.  0.
        -24    2    3    3    0    0 -0.94296606511E+02  0.15906208746E+03 -0.33167688986E+03  0.38832347329E+03  0.81197062554E+02 0.  0.
          6    2    1    2  501    0  0.54852592513E+02 -0.17824432008E+03 -0.23599058164E+03  0.34647440662E+03  0.17196835544E+03 0.  0.
         24    2    5    5    0    0 -0.34359220810E+02 -0.61362974867E+02 -0.10979020477E+03  0.15264814003E+03  0.79382585330E+02 0.  0.
          5    1    5    5  501    0  0.89211813323E+02 -0.11688134521E+03 -0.12620037688E+03  0.19382626659E+03  0.47000000000E+01 0. -1.
        -13    1    6    6    0    0 -0.25708200509E+01 -0.71724640881E+02 -0.65591263034E+02  0.97227809868E+02  0.00000000000E+00 0.  1.
         14    1    6    6    0    0 -0.31788400759E+02  0.10361666014E+02 -0.44198941731E+02  0.55420330164E+02  0.00000000000E+00 0. -1.
         -5    1    3    3    0  503  0.39444013998E+02  0.19182232619E+02 -0.13895205078E+03  0.14578597568E+03  0.47000000000E+01 0.  1.
         11    1    4    4    0    0  0.47813210536E+01  0.23454430644E+02 -0.95930948386E+02  0.98872231724E+02  0.00000000000E+00 0. -1.
        -12    1    4    4    0    0 -0.99077927565E+02  0.13560765682E+03 -0.23574594148E+03  0.28945124156E+03  0.00000000000E+00 0.  1.
</event>
<event>
12    1  0.1046899E+000  0.2427604E+03  0.7818608E-02  0.1118384E+00
         21   -1    0    0  503  502  0.00000000000E+00  0.00000000000E+00  0.19907506903E+03  0.19907506903E+03  0.00000000000E+00 0.  1.
         21   -1    0    0  501  503 -0.00000000000E+00 -0.00000000000E+00 -0.35386104531E+03  0.35386104531E+03  0.00000000000E+00 0.  1.
          6    2    1    2  501    0  0.64532072332E+02 -0.15700618481E+03  0.36961325573E+02  0.24555803736E+03  0.17354330784E+03 0.  0.
         24    2    3    3    0    0  0.46118372369E+02 -0.14912320389E+03  0.85213032677E+02  0.19310307598E+03  0.75252261137E+02 0.  0.
         -6    2    1    2    0  502 -0.64532072332E+02  0.15700618481E+03 -0.19174730185E+03  0.30737807699E+03  0.16999683532E+03 0.  0.
        -24    2    5    5    0    0 -0.56447072241E+02  0.11361976825E+03 -0.21107182089E+03  0.25897068701E+03  0.80117285620E+02 0.  0.
          5    1    3    3  501    0  0.18413699963E+02 -0.78829809175E+01 -0.48251707104E+02  0.52454961376E+02  0.47000000000E+01 0. -1.
        -13    1    4    4    0    0  0.12379689162E+02 -0.62692027626E+02 -0.44737272930E+01  0.64059045165E+02  0.00000000000E+00 0.  1.
         14    1    4    4    0    0  0.33738683207E+02 -0.86431176268E+02  0.89686759970E+02  0.12904403082E+03  0.00000000000E+00 0. -1.
         -5    1    5    5    0  502 -0.80850000903E+01  0.43386416560E+02  0.19324519040E+02  0.48407389978E+02  0.47000000000E+01 0.  1.
         13    1    6    6    0    0  0.97364411927E+01  0.22724143480E+02 -0.91738293558E+02  0.95011049299E+02  0.00000000000E+00 0. -1.
        -14    1    6    6    0    0 -0.66183513434E+02  0.90895624771E+02 -0.11933352733E+03  0.16395963771E+03  0.00000000000E+00 0.  1.
</event>
<event>
12    1  0.1046899E+000  0.2240470E+03  0.7818608E-02  0.1131058E+00
         21   -1    0    0  501  502  0.00000000000E+00  0.00000000000E+00  0.89862104268E+02  0.89862104268E+02  0.00000000000E+00 0.  1.
         21   -1    0    0  502  503 -0.00000000000E+00 -0.00000000000E+00 -0.58733769060E+03  0.58733769060E+03  0.00000000000E+00 0.  1.
         -6    2    1    2    0  503 -0.88092450854E+02 -0.11157388784E+03 -0.32591932110E+03  0.39501440531E+03  0.17205802564E+03 0.  0.
        -24    2    3    3    0    0  0.18775979723E+02 -0.31895766121E+02 -0.12668339621E+03  0.15525096293E+03  0.81757576430E+02 0.  0.
          6    2    1    2  501    0  0.88092450854E+02  0.11157388784E+03 -0.17155626524E+03  0.28218538957E+03  0.17317052173E+03 0.  0.
         24    2    5    5    0    0  0.61011941105E+02  0.11198598388E+03 -0.52185983573E+02  0.15969098979E+03  0.80712562819E+02 0.  0.
          5    1    5    5  501    0  0.27080509749E+02 -0.41209603656E+00 -0.11937028166E+03  0.12249439977E+03  0.47000000000E+01 0. -1.
        -11    1    6    6    0    0  0.30341453529E+02  0.55262044776E+02 -0.68580690195E+02  0.93154755448E+02  0.00000000000E+00 0.  1.
         12    1    6    6    0    0  0.30670487576E+02  0.56723939102E+02  0.16394706622E+02  0.66536234344E+02  0.00000000000E+00 0. -1.
         -5    1    3    3    0  503 -0.10686843058E+03 -0.79678121720E+02 -0.19923592489E+03  0.23976344238E+03  0.47000000000E+01 0.  1.
         11    1    4    4    0    0  0.22873395982E+02 -0.18047981237E+02 -0.13532200397E+03  0.13842314340E+03  0.00000000000E+00 0. -1.
        -12    1    4    4    0    0 -0.40974162587E+01 -0.13847784884E+02  0.86386077560E+01  0.16827819531E+02  0.00000000000E+00 0.  1.
</event>
<event>
12    1  0.1046899E+000  0.1993822E+03  0.7818608E-02  0.1150426E+00
         21   -1    0    0  503  502  0.00000000000E+00  0.00000000000E+00  0.85441127484E+02  0.85441127484E+02  0.00000000000E+00 0.  1.
         21   -1    0    0  501  503 -0.00000000000E+00 -0.00000000000E+00 -0.46428493981E+03  0.46428493981E+03  0.00000000000E+00 0.  1.
          6    2    1    2  501    0 -0.23354325734E+02 -0.97925775727E+02 -0.20062455658E+03  0.28230248466E+03  0.17120046161E+03 0.  0.
         24    2    3    3    0    0  0.18375920623E+02 -0.10649788020E+03 -0.87063499777E+02  0.16092251078E+03  0.81464891430E+02 0.  0.
         -6    2    1    2    0  502  0.23354325734E+02  0.97925775727E+02 -0.17821925574E+03  0.26742358264E+03  0.17209993420E+03 0.  0.
        -24    2    5    5    0    0 -0.11958734110E+02 -0.24778161690E+02 -0.10384877655E+03  0.11958472906E+03  0.52525902314E+02 0.  0.
          5    1    3    3  501    0 -0.41730246357E+02  0.85721044725E+01 -0.11356105681E+03  0.12137997388E+03  0.47000000000E+01 0. -1.
        -11    1    4    4    0    0 -0.13629432666E+02 -0.99458340181E+01  0.10586236230E+02  0.19918570396E+02  0.00000000000E+00 0.  1.
         12    1    4    4    0    0  0.32005353288E+02 -0.96552046181E+02 -0.97649736007E+02  0.14100394038E+03  0.00000000000E+00 0. -1.
         -5    1    5    5    0  502  0.35313059843E+02  0.12270393742E+03 -0.74370479191E+02  0.14783885358E+03  0.47000000000E+01 0.  1.
         13    1    6    6    0    0  0.18752184181E+02 -0.20198433947E+02 -0.57941562778E+02  0.64162651461E+02  0.00000000000E+00 0. -1.
        -14    1    6    6    0    0 -0.30710918290E+02 -0.45797277433E+01 -0.45907213775E+02  0.55422077596E+02  0.00000000000E+00 0.  1.
</event>
<event>
12    1  0.1046899E+000  0.2388016E+03  0.7818608E-02  0.1120908E+00
         21   -1    0    0  501  502  0.00000000000E+00  0.00000000000E+00  0.22942642925E+03  0.22942642925E+03  0.00000000000E+00 0. -1.
         21   -1    0    0  502  503 -0.00000000000E+00 -0.00000000000E+00 -0.27102073445E+03  0.27102073445E+03  0.00000000000E+00 0. -1.
         -6    2    1    2    0  503 -0.82459177700E+02 -0.14046071347E+03  0.54210320122E+02  0.24487744228E+03  0.17463526251E+03 0.  0.
        -24    2    3    3    0    0 -0.60877152531E+02 -0.15004145806E+03  0.89728451899E+02  0.20196821061E+03  0.80755781091E+02 0.  0.
          6    2    1    2  501    0  0.82459177700E+02  0.14046071347E+03 -0.95804625322E+02  0.25556972142E+03  0.17207157888E+03 0.  0.
         24    2    5    5    0    0  0.46803872919E+02  0.54865488677E+02 -0.11852809481E+03  0.15998578275E+03  0.79660009128E+02 0.  0.
          5    1    5    5  501    0  0.35655304781E+02  0.85595224794E+02  0.22723469489E+02  0.95583938673E+02  0.47000000000E+01 0. -1.
        -11    1    6    6    0    0 -0.15098893544E+02 -0.68453605324E+01 -0.63000320656E+01  0.17734879506E+02  0.00000000000E+00 0.  1.
         12    1    6    6    0    0  0.61902766463E+02  0.61710849209E+02 -0.11222806275E+03  0.14225090324E+03  0.00000000000E+00 0. -1.
         -5    1    3    3    0  503 -0.21582025170E+02  0.95807445928E+01 -0.35518131776E+02  0.42909231667E+02  0.47000000000E+01 0.  1.
         13    1    4    4    0    0  0.85063281196E+01 -0.50108667163E+02  0.43060568477E-01  0.50825564406E+02  0.00000000000E+00 0. -1.
        -14    1    4    4    0    0 -0.69383480650E+02 -0.99932790901E+02  0.89685391330E+02  0.15114264621E+03  0.00000000000E+00 0.  1.
</event>
<event>
12    1  0.1046899E+000  0.2669726E+03  0.7818608E-02  0.1103177E+00
         21   -1    0    0  501  502  0.00000000000E+00  0.00000000000E+00  0.72027814079E+03  0.72027814079E+03  0.00000000000E+00 0.  1.
         21   -1    0    0  502  503 -0.00000000000E+00 -0.00000000000E+00 -0.99041858439E+02  0.99041858439E+02  0.00000000000E+00 0.  1.
         -6    2    1    2    0  503 -0.13959385385E+03  0.14766495902E+03  0.33959239267E+03  0.43196919575E+03  0.17315602433E+03 0.  0.
        -24    2    3    3    0    0 -0.13148850325E+03  0.54189402062E+02  0.15688559260E+03  0.22652518574E+03  0.80466470203E+02 0.  0.
          6    2    1    2  501    0  0.13959385385E+03 -0.14766495902E+03  0.28164388968E+03  0.38735080348E+03  0.17154002508E+03 0.  0.
         24    2    5    5    0    0  0.12046191369E+02 -0.15269232457E+02  0.84439650674E+02  0.11770541320E+03  0.79663351067E+02 0.  0.
          5    1    5    5  501    0  0.12754766248E+03 -0.13239572657E+03  0.19720423901E+03  0.26964539028E+03  0.47000000000E+01 0. -1.
        -13    1    6    6    0    0  0.31387184332E+01 -0.45247512530E+02  0.28353343193E+02  0.53489260733E+02  0.00000000000E+00 0.  1.
         14    1    6    6    0    0  0.89074729360E+01  0.29978280073E+02  0.56086307481E+02  0.64216152463E+02  0.00000000000E+00 0. -1.
         -5    1    3    3    0  503 -0.81053506031E+01  0.93475556961E+02  0.18270680007E+03  0.20544401001E+03  0.47000000000E+01 0.  1.
         11    1    4    4    0    0 -0.69513480806E+02  0.17775179082E+02  0.13239362023E+03  0.15058602751E+03  0.00000000000E+00 0. -1.
        -12    1    4    4    0    0 -0.61975022443E+02  0.36414222980E+02  0.24491972378E+02  0.75939158232E+02  0.00000000000E+00 0.  1.
</event>
<event>
12    1  0.1046899E+000  0.4887850E+03  0.7818608E-02  0.1016774E+00
         21   -1    0    0  503  502  0.00000000000E+00  0.00000000000E+00  0.17769633235E+04  0.17769633235E+04  0.00000000000E+00 0. -1.
         21   -1    0    0  501  503 -0.00000000000E+00 -0.00000000000E+00 -0.18127715879E+03  0.18127715879E+03  0.00000000000E+00 0. -1.
          6    2    1    2  501    0 -0.19768358908E+03 -0.41267221131E+03  0.29942219696E+03  0.57288455488E+03  0.17078028519E+03 0.  0.
         24    2    3    3    0    0 -0.69630147096E+02 -0.17645714494E+03  0.66723313772E+02  0.21740445443E+03  0.82626961807E+02 0.  0.
         -6    2    1    2    0  502  0.19768358908E+03  0.41267221131E+03  0.12962639677E+04  0.13853559274E+04  0.17185347291E+03 0.  0.
        -24    2    5    5    0    0  0.16113799728E+03  0.24403180427E+03  0.96955554510E+03  0.10158486195E+04  0.79959283692E+02 0.  0.
          5    1    3    3  501    0 -0.12805344198E+03 -0.23621506636E+03  0.23269888319E+03  0.35548010045E+03  0.47000000000E+01 0. -1.
        -13    1    4    4    0    0 -0.87850722248E+01 -0.12185417154E+03  0.57837930265E+02  0.13516968148E+03  0.00000000000E+00 0.  1.
         14    1    4    4    0    0 -0.60845074871E+02 -0.54602973408E+02  0.88853835065E+01  0.82234772944E+02  0.00000000000E+00 0. -1.
         -5    1    5    5    0  502  0.36545591803E+02  0.16864040704E+03  0.32670842260E+03  0.36950730787E+03  0.47000000000E+01 0.  1.
         11    1    6    6    0    0 -0.20758960385E+01  0.22607243028E+02  0.14121158777E+03  0.14302485554E+03  0.00000000000E+00 0. -1.
        -12    1    6    6    0    0  0.16321389331E+03  0.22142456124E+03  0.82834395734E+03  0.87282376397E+03  0.00000000000E+00 0.  1.
</event>
<event>
12    1  0.1046899E+000  0.2622088E+03  0.7818608E-02  0.1107480E+00
         21   -1    0    0  501  502  0.00000000000E+00  0.00000000000E+00  0.16917198165E+04  0.16917198165E+04  0.00000000000E+00 0. -1.
         21   -1    0    0  502  503 -0.00000000000E+00 -0.00000000000E+00 -0.72801268609E+02  0.72801268609E+02  0.00000000000E+00 0. -1.
         -6    2    1    2    0  503  0.18031907419E+03  0.38194427901E+02  0.14200235521E+04  0.14440292012E+04  0.18649306330E+03 0.  0.
        -24    2    3    3    0    0  0.17177675233E+03 -0.16554501784E+02  0.12683174953E+04  0.12824518691E+04  0.79197371882E+02 0.  0.
          6    2    1    2  501    0 -0.18031907419E+03 -0.38194427901E+02  0.19889499575E+03  0.32049188384E+03  0.17082753124E+03 0.  0.
         24    2    5    5    0    0 -0.58071817395E+02  0.32985329840E+02  0.52296326213E+02  0.11671698446E+03  0.80172194465E+02 0.  0.
          5    1    5    5  501    0 -0.12224725680E+03 -0.71179757741E+02  0.14659866954E+03  0.20377489938E+03  0.47000000000E+01 0. -1.
        -11    1    6    6    0    0  0.44156720053E+01  0.39364941872E+02  0.31309380929E+02  0.50491327393E+02  0.00000000000E+00 0.  1.
         12    1    6    6    0    0 -0.62487489400E+02 -0.63796120312E+01  0.20986945285E+02  0.66225657065E+02  0.00000000000E+00 0. -1.
         -5    1    3    3    0  503  0.85423218600E+01  0.54748929686E+02  0.15170605685E+03  0.16157733211E+03  0.47000000000E+01 0.  1.
         13    1    4    4    0    0  0.22447411578E+02 -0.30302949315E+02  0.34221291874E+03  0.34428452881E+03  0.00000000000E+00 0. -1.
        -14    1    4    4    0    0  0.14932934075E+03  0.13748447530E+02  0.92610457651E+03  0.93816734033E+03  0.00000000000E+00 0.  1.
</event>
<event>
12    1  0.1046899E+000  0.2044108E+03  0.7818608E-02  0.1146799E+00
         21   -1    0    0  503  502  0.00000000000E+00  0.00000000000E+00  0.43288323377E+03  0.43288323377E+03  0.00000000000E+00 0.  1.
         21   -1    0    0  501  503 -0.00000000000E+00 -0.00000000000E+00 -0.13054826419E+03  0.13054826419E+03  0.00000000000E+00 0.  1.
          6    2    1    2  501    0 -0.20850611487E+02  0.10799541480E+03  0.48484378131E+01  0.20446827212E+03  0.17229628358E+03 0.  0.
         24    2    3    3    0    0 -0.63309676945E+02  0.12214907524E+03  0.10822432845E+02  0.15907138940E+03  0.79107964812E+02 0.  0.
         -6    2    1    2    0  502  0.20850611487E+02 -0.10799541480E+03  0.29748653176E+03  0.35896322584E+03  0.16810295449E+03 0.  0.
        -24    2    5    5    0    0 -0.33780007711E+02 -0.10352485630E+03  0.25698875586E+03  0.29065034053E+03  0.81092015730E+02 0.  0.
          5    1    3    3  501    0  0.42459065458E+02 -0.14153660441E+02 -0.59739950324E+01  0.45396882714E+02  0.47000000000E+01 0. -1.
        -13    1    4    4    0    0 -0.36009236173E+02  0.27600652500E+02  0.35506117018E+02  0.57612025254E+02  0.00000000000E+00 0.  1.
         14    1    4    4    0    0 -0.27300440772E+02  0.94548422742E+02 -0.24683684172E+02  0.10145936415E+03  0.00000000000E+00 0. -1.
         -5    1    5    5    0  502  0.54630619198E+02 -0.44705585049E+01  0.40497775896E+02  0.68312885313E+02  0.47000000000E+01 0.  1.
         11    1    6    6    0    0 -0.17839198086E+02 -0.16609438967E+02  0.14963108963E+03  0.15160334243E+03  0.00000000000E+00 0. -1.
        -12    1    6    6    0    0 -0.15940809625E+02 -0.86915417330E+02  0.10735766623E+03  0.13904699810E+03  0.00000000000E+00 0.  1.
</event>
<event>
12    1  0.1046899E+000  0.2316248E+03  0.7818608E-02  0.1125821E+00
         21   -1    0    0  501  502  0.00000000000E+00  0.00000000000E+00  0.13767723709E+04  0.13767723709E+04  0.00000000000E+00 0.  1.
         21   -1    0    0  502  503 -0.00000000000E+00 -0.00000000000E+00 -0.45183900531E+02  0.45183900531E+02  0.00000000000E+00 0.  1.
         -6    2    1    2    0  503 -0.13199768932E+03 -0.79918556609E+02  0.93366107362E+03  0.96152573714E+03  0.17028909860E+03 0.  0.
        -24    2    3    3    0    0 -0.11555063481E+03 -0.11515885227E+03  0.84590381362E+03  0.86542261167E+03  0.82398570602E+02 0.  0.
          6    2    1    2  501    0  0.13199768932E+03  0.79918556609E+02  0.39792739679E+03  0.46043053434E+03  0.17274170938E+03 0.  0.
         24    2    5    5    0    0  0.84344618141E+02 -0.17693397849E+02  0.26116682377E+03  0.28571804715E+03  0.77457224933E+02 0.  0.
          5    1    5    5  501    0  0.47653071179E+02  0.97611954458E+02  0.13676057302E+03  0.17471248719E+03  0.47000000000E+01 0. -1.
        -13    1    6    6    0    0  0.39121891307E+02 -0.42531048059E+02  0.90094804078E+02  0.10703497629E+03  0.00000000000E+00 0.  1.
         14    1    6    6    0    0  0.45222726833E+02  0.24837650210E+02  0.17107201969E+03  0.17868307086E+03  0.00000000000E+00 0. -1.
         -5    1    3    3    0  503 -0.16447054509E+02  0.35240295665E+02  0.87757260002E+02  0.96103125463E+02  0.47000000000E+01 0.  1.
         13    1    4    4    0    0 -0.51065311924E+02 -0.22817321720E+02  0.14293807905E+03  0.15349133752E+03  0.00000000000E+00 0. -1.
        -14    1    4    4    0    0 -0.64485322887E+02 -0.92341530554E+02  0.70296573457E+03  0.71193127415E+03  0.00000000000E+00 0.  1.
</event>
<event>
12    1  0.1046899E+000  0.2397521E+03  0.7818608E-02  0.1122207E+00
         21   -1    0    0  503  502  0.00000000000E+00  0.00000000000E+00  0.16815006485E+03  0.16815006485E+03  0.00000000000E+00 0.  1.
         21   -1    0    0  501  503 -0.00000000000E+00 -0.00000000000E+00 -0.32526423033E+03  0.32526423033E+03  0.00000000000E+00 0.  1.
          6    2    1    2  501    0  0.12799173579E+03  0.71929501022E+02 -0.57888532571E+02  0.23394017580E+03  0.17268811802E+03 0.  0.
         24    2    3    3    0    0  0.50482539028E+02  0.86987952756E+02 -0.80795575429E+02  0.15159179899E+03  0.79603755192E+02 0.  0.
         -6    2    1    2    0  502 -0.12799173579E+03 -0.71929501022E+02 -0.99225632908E+02  0.25947411937E+03  0.18953985030E+03 0.  0.
        -24    2    5    5    0    0 -0.14866599097E+03 -0.71789590178E+02 -0.25188975581E+02  0.18246138646E+03  0.73500686599E+02 0.  0.
          5    1    3    3  501    0  0.77509196763E+02 -0.15058451734E+02  0.22907042858E+02  0.82348376814E+02  0.47000000000E+01 0. -1.
        -13    1    4    4    0    0  0.30522917128E+02  0.45702720300E+02 -0.89393221501E+02  0.10493586214E+03  0.00000000000E+00 0.  1.
         14    1    4    4    0    0  0.19959621901E+02  0.41285232456E+02  0.85976460717E+01  0.46655936850E+02  0.00000000000E+00 0. -1.
         -5    1    5    5    0  502  0.20674255177E+02 -0.13991084370E+00 -0.74036657327E+02  0.77012732910E+02  0.47000000000E+01 0.  1.
         13    1    6    6    0    0 -0.47691235514E+02 -0.14725870765E+02 -0.42042161491E+02  0.65259854102E+02  0.00000000000E+00 0. -1.
        -14    1    6    6    0    0 -0.10097475545E+03 -0.57063719413E+02  0.16853185910E+02  0.11720153236E+03  0.00000000000E+00 0.  1.
</event>
<event>
12    1  0.1046899E+000  0.2840737E+03  0.7818608E-02  0.1093769E+00
         21   -1    0    0  503  502  0.00000000000E+00  0.00000000000E+00  0.13060079049E+04  0.13060079049E+04  0.00000000000E+00 0. -1.
         21   -1    0    0  501  503 -0.00000000000E+00 -0.00000000000E+00 -0.61417622393E+02  0.61417622393E+02  0.00000000000E+00 0. -1.
          6    2    1    2  501    0 -0.21901199646E+03  0.41851097280E+02  0.65040615784E+03  0.70973659611E+03  0.17601163815E+03 0.  0.
         24    2    3    3    0    0 -0.14675278167E+03  0.93408728184E+02  0.49417440892E+03  0.52998667873E+03  0.80099711451E+02 0.  0.
         -6    2    1    2    0  502  0.21901199646E+03 -0.41851097280E+02  0.59418412463E+03  0.65768893115E+03  0.17257516407E+03 0.  0.
        -24    2    5    5    0    0  0.10299464992E+03 -0.85596766331E+02  0.36918044733E+03  0.40074058408E+03  0.79775364149E+02 0.  0.
          5    1    3    3  501    0 -0.72259214788E+02 -0.51557630904E+02  0.15623174893E+03  0.17974991738E+03  0.47000000000E+01 0. -1.
        -13    1    4    4    0    0 -0.77100232214E+02  0.30669319197E+02  0.13230168104E+03  0.15616909987E+03  0.00000000000E+00 0.  1.
         14    1    4    4    0    0 -0.69652549455E+02  0.62739408986E+02  0.36187272788E+03  0.37381757886E+03  0.00000000000E+00 0. -1.
         -5    1    5    5    0  502  0.11601734654E+03  0.43745669051E+02  0.22500367731E+03  0.25694834707E+03  0.47000000000E+01 0.  1.
         11    1    6    6    0    0  0.90429952566E+02 -0.34987641988E+02  0.17940125341E+03  0.20392773509E+03  0.00000000000E+00 0. -1.
        -12    1    6    6    0    0  0.12564697353E+02 -0.50609124342E+02  0.18977919391E+03  0.19681284899E+03  0.00000000000E+00 0.  1.
</event>
<event>
12    1  0.1046899E+000  0.2552506E+03  0.7818608E-02  0.1110212E+00
         21   -1    0    0  501  502  0.00000000000E+00  0.00000000000E+00  0.18901365006E+04  0.18901365006E+04  0.00000000000E+00 0. -1.
         21   -1    0    0  502  503 -0.00000000000E+00 -0.00000000000E+00 -0.36115048450E+02  0.36115048450E+02  0.00000000000E+00 0.  1.
         -6    2    1    2    0  503 -0.84890021082E+02  0.16735380411E+03  0.11402059710E+04  0.11681714731E+04  0.17129309054E+03 0.  0.
        -24    2    3    3    0    0 -0.62452661210E+01  0.90517002855E+02  0.83096383385E+03  0.83993119390E+03  0.82165602074E+02 0.  0.
          6    2    1    2  501    0  0.84890021082E+02 -0.16735380411E+03  0.71381548118E+03  0.75808007596E+03  0.17302961876E+03 0.  0.
         24    2    5    5    0    0  0.32697634834E+02 -0.10335976466E+03  0.61369756789E+03  0.62821488113E+03  0.79226610187E+02 0.  0.
          5    1    5    5  501    0  0.52192386248E+02 -0.63994039456E+02  0.10011791329E+03  0.12986519484E+03  0.47000000000E+01 0. -1.
        -11    1    6    6    0    0  0.28028886984E+02 -0.18565022980E+02  0.67012040704E+02  0.74972609553E+02  0.00000000000E+00 0.  1.
         12    1    6    6    0    0  0.46687478507E+01 -0.84794741678E+02  0.54668552719E+03  0.55324227157E+03  0.00000000000E+00 0. -1.
         -5    1    3    3    0  503 -0.78644754961E+02  0.76836801260E+02  0.30924213713E+03  0.32824027919E+03  0.47000000000E+01 0.  1.
         11    1    4    4    0    0  0.32665131027E+02  0.72043787206E+02  0.51290009176E+03  0.51896418199E+03  0.00000000000E+00 0. -1.
        -12    1    4    4    0    0 -0.38910397148E+02  0.18473215648E+02  0.31806374209E+03  0.32096701191E+03  0.00000000000E+00 0.  1.
</event>
<event>
12    1  0.1046899E+000  0.2395257E+03  0.7818608E-02  0.1120224E+00
         21   -1    0    0  503  502  0.00000000000E+00  0.00000000000E+00  0.56525972196E+02  0.56525972196E+02  0.00000000000E+00 0.  1.
         21   -1    0    0  501  503 -0.00000000000E+00 -0.00000000000E+00 -0.11421416860E+04  0.11421416860E+04  0.00000000000E+00 0. -1.
          6    2    1    2  501    0  0.14172124230E+02  0.16583418754E+03 -0.74576214555E+03  0.78328393555E+03  0.17225190591E+03 0.  0.
         24    2    3    3    0    0  0.32783058403E+02  0.67340761437E+02 -0.18693635763E+03  0.21552018793E+03  0.76773970427E+02 0.  0.
         -6    2    1    2    0  502 -0.14172124230E+02 -0.16583418754E+03 -0.33985356824E+03  0.41538372263E+03  0.17129320571E+03 0.  0.
        -24    2    5    5    0    0 -0.25307053662E+02 -0.19218767467E+03 -0.30391009984E+03  0.36920455138E+03  0.79837977864E+02 0.  0.
          5    1    3    3  501    0 -0.18610934173E+02  0.98493426099E+02 -0.55882578792E+03  0.56776374761E+03  0.47000000000E+01 0. -1.
        -13    1    4    4    0    0 -0.34618577677E+01 -0.73746747030E+01 -0.78584529275E+02  0.79005686678E+02  0.00000000000E+00 0.  1.
         14    1    4    4    0    0  0.36244916171E+02  0.74715436140E+02 -0.10835182835E+03  0.13651450126E+03  0.00000000000E+00 0. -1.
         -5    1    5    5    0  502  0.11134929431E+02  0.26353487137E+02 -0.35943468393E+02  0.46179171255E+02  0.47000000000E+01 0.  1.
         13    1    6    6    0    0 -0.46911780288E+02 -0.85713175632E+02 -0.17667999805E+03  0.20189919593E+03  0.00000000000E+00 0. -1.
        -14    1    6    6    0    0  0.21604726626E+02 -0.10647449904E+03 -0.12723010180E+03  0.16730535545E+03  0.00000000000E+00 0.  1.
</event>
<event>
12    1  0.1581025E+000  0.1951991E+03  0.7818608E-02  0.1154086E+00
         21   -1    0    0  501  502  0.00000000000E+00  0.00000000000E+00  0.15037632677E+03  0.15037632677E+03  0.00000000000E+00 0.  1.
         21   -1    0    0  502  503 -0.00000000000E+00 -0.00000000000E+00 -0.86786820915E+03  0.86786820915E+03  0.00000000000E+00 0.  1.
         -6    2    1    2    0  503  0.56395007227E+02  0.65783823113E+02  0.70421184777E+02  0.20651201550E+03  0.17372438245E+03 0.  0.
        -24    2    3    3    0    0  0.99761697783E+02  0.40571979400E+02  0.20367986908E+02  0.13549286646E+03  0.79655383465E+02 0.  0.
          6    2    1    2  501    0 -0.56395007227E+02 -0.65783823113E+02 -0.78791306716E+03  0.81173252042E+03  0.17491362177E+03 0.  0.
         24    2    5    5    0    0 -0.34837605721E+02  0.80890280452E+01 -0.62970744294E+03  0.63574096030E+03  0.79724612035E+02 0.  0.
          5    1    5    5  501    0 -0.21557401505E+02 -0.73872851158E+02 -0.15820562422E+03  0.17599156012E+03  0.47000000000E+01 0. -1.
        -13    1    6    6    0    0  0.25975055703E+02  0.30998674616E+01 -0.16969798926E+03  0.17170241774E+03  0.00000000000E+00 0.  1.
         14    1    6    6    0    0 -0.60812661424E+02  0.49891605836E+01 -0.46000945368E+03  0.46403854257E+03  0.00000000000E+00 0. -1.
         -5    1    3    3    0  503 -0.43366690557E+02  0.25211843713E+02  0.50053197869E+02  0.71019149038E+02  0.47000000000E+01 0.  1.
         11    1    4    4    0    0  0.67280852023E+02  0.63063725751E+02  0.25440140522E+02  0.95660583859E+02  0.00000000000E+00 0. -1.
        -12    1    4    4    0    0  0.32480845760E+02 -0.22491746351E+02 -0.50721536141E+01  0.39832282605E+02  0.00000000000E+00 0.  1.
</event>
<event>
12    1  0.1046899E+000  0.5426306E+03  0.7818608E-02  0.1003223E+00
         21   -1    0    0  503  502  0.00000000000E+00  0.00000000000E+00  0.76024425424E+03  0.76024425424E+03  0.00000000000E+00 0.  1.
         21   -1    0    0  501  503 -0.00000000000E+00 -0.00000000000E+00 -0.56621979888E+03  0.56621979888E+03  0.00000000000E+00 0. -1.
          6    2    1    2  501    0 -0.41205924153E+03  0.30855216742E+03 -0.27591820227E+03  0.60862416134E+03  0.17115857232E+03 0.  0.
         24    2    3    3    0    0 -0.12179927075E+03  0.15982707890E+03 -0.99918534356E+02  0.23799230127E+03  0.79226665043E+02 0.  0.
         -6    2    1    2    0  502  0.41205924153E+03 -0.30855216742E+03  0.46994265763E+03  0.71783989177E+03  0.17161220882E+03 0.  0.
        -24    2    5    5    0    0  0.10900332038E+03 -0.13004934966E+03  0.12070471762E+03  0.22216320680E+03  0.77409976081E+02 0.  0.
          5    1    3    3  501    0 -0.29025997078E+03  0.14872508853E+03 -0.17599966791E+03  0.37063186007E+03  0.47000000000E+01 0. -1.
        -11    1    4    4    0    0 -0.88165789952E+02  0.15824693224E+03 -0.92962440523E+02  0.20361069085E+03  0.00000000000E+00 0.  1.
         12    1    4    4    0    0 -0.33633480796E+02  0.15801466609E+01 -0.69560938330E+01  0.34381610424E+02  0.00000000000E+00 0. -1.
         -5    1    5    5    0  502  0.30305592114E+03 -0.17850281776E+03  0.34923794000E+03  0.49567668498E+03  0.47000000000E+01 0.  1.
         11    1    6    6    0    0  0.10681906758E+03 -0.13317966725E+03  0.12836846469E+03  0.21360149741E+03  0.00000000000E+00 0. -1.
        -12    1    6    6    0    0  0.21842528069E+01  0.31303175927E+01 -0.76637470689E+01  0.85617093908E+01  0.00000000000E+00 0.  1.
</event>
<event>
12    1  0.1046899E+000  0.2139172E+03  0.7818608E-02  0.1138584E+00
         21   -1    0    0  503  502  0.00000000000E+00  0.00000000000E+00  0.52772089170E+03  0.52772089170E+03  0.00000000000E+00 0.  1.
         21   -1    0    0  501  503 -0.00000000000E+00 -0.00000000000E+00 -0.10035520833E+03  0.10035520833E+03  0.00000000000E+00 0.  1.
          6    2    1    2  501    0 -0.10663600069E+03 -0.66887464642E+02  0.96980438526E+02  0.23448371513E+03  0.17243038490E+03 0.  0.
         24    2    3    3    0    0 -0.96321079265E+02 -0.72000644953E+02  0.13605025266E+03  0.19348270791E+03  0.66813500355E+02 0.  0.
         -6    2    1    2    0  502  0.10663600069E+03  0.66887464642E+02  0.33038524484E+03  0.39359238490E+03  0.17296064833E+03 0.  0.
        -24    2    5    5    0    0  0.11868876353E+02  0.40046812246E+01  0.59784215594E+02  0.10002457444E+03  0.79207672362E+02 0.  0.
          5    1    3    3  501    0 -0.10314921425E+02  0.51131803114E+01 -0.39069814130E+02  0.41001007220E+02  0.47000000000E+01 0. -1.
        -13    1    4    4    0    0 -0.61049383211E+01 -0.29770053922E+02  0.63032131263E+02  0.69975538255E+02  0.00000000000E+00 0.  1.
         14    1    4    4    0    0 -0.90216140944E+02 -0.42230591031E+02  0.73018121393E+02  0.12350716966E+03  0.00000000000E+00 0. -1.
         -5    1    5    5    0  502  0.94767124337E+02  0.62882783417E+02  0.27060102925E+03  0.29356781046E+03  0.47000000000E+01 0.  1.
         13    1    6    6    0    0  0.42451116353E+02 -0.96225721435E+01  0.47329238332E+02  0.64302005998E+02  0.00000000000E+00 0. -1.
        -14    1    6    6    0    0 -0.30582240000E+02  0.13627253368E+02  0.12454977262E+02  0.35722568446E+02  0.00000000000E+00 0.  1.
</event>
<event>
12    1  0.1046899E+000  0.1861476E+03  0.7818608E-02  0.1162076E+00
         21   -1    0    0  503  502  0.00000000000E+00  0.00000000000E+00  0.69638977843E+02  0.69638977843E+02  0.00000000000E+00 0.  1.
         21   -1    0    0  501  503 -0.00000000000E+00 -0.00000000000E+00 -0.65438215448E+03  0.65438215448E+03  0.00000000000E+00 0.  1.
          6    2    1    2  501    0 -0.42691281270E+02 -0.56062144581E+02 -0.11431533165E+03  0.21810288616E+03  0.17185855914E+03 0.  0.
         24    2    3    3    0    0  0.22243210031E+02  0.39080360161E+01 -0.13181699021E+02  0.83704179430E+02  0.79514774269E+02 0.  0.
         -6    2    1    2    0  502  0.42691281270E+02  0.56062144581E+02 -0.47042784499E+03  0.50591824616E+03  0.17229452955E+03 0.  0.
        -24    2    5    5    0    0 -0.38666256892E+02  0.44179029179E+02 -0.17549562296E+03  0.19970367591E+03  0.75073154003E+02 0.  0.
          5    1    3    3  501    0 -0.64934491300E+02 -0.59970180597E+02 -0.10113363263E+03  0.13439870673E+03  0.47000000000E+01 0. -1.
        -13    1    4    4    0    0  0.20167179679E+02 -0.30801471816E+02 -0.27649518890E+02  0.46042824599E+02  0.00000000000E+00 0.  1.
         14    1    4    4    0    0  0.20760303517E+01  0.34709507832E+02  0.14467819869E+02  0.37661354831E+02  0.00000000000E+00 0. -1.
         -5    1    5    5    0  502  0.81357538161E+02  0.11883115402E+02 -0.29493222202E+03  0.30621457025E+03  0.47000000000E+01 0.  1.
         11    1    6    6    0    0  0.60447479128E+00  0.22592061487E+02 -0.46434071529E+01  0.23072231405E+02  0.00000000000E+00 0. -1.
        -12    1    6    6    0    0 -0.39270731683E+02  0.21586967692E+02 -0.17085221581E+03  0.17663144451E+03  0.00000000000E+00 0.  1.
</event>
<event>
12    1  0.1046899E+000  0.2240252E+03  0.7818608E-02  0.1131223E+00
         21   -1    0    0  501  502  0.00000000000E+00  0.00000000000E+00  0.10110997818E+03  0.10110997818E+03  0.00000000000E+00 0. -1.
         21   -1    0    0  502  503 -0.00000000000E+00 -0.00000000000E+00 -0.49601486239E+03  0.49601486239E+03  0.00000000000E+00 0. -1.
         -6    2    1    2    0  503 -0.77590643914E+02 -0.11976074441E+03 -0.17365137201E+03  0.28344679352E+03  0.17269725485E+03 0.  0.
        -24    2    3    3    0    0 -0.30083043892E+02 -0.10704564652E+03 -0.18716754934E+03  0.23222743367E+03  0.80833962258E+02 0.  0.
          6    2    1    2  501    0  0.77590643914E+02  0.11976074441E+03 -0.22125351220E+03  0.31367804705E+03  0.17052230533E+03 0.  0.
         24    2    5    5    0    0  0.81951175685E+02  0.27248380955E+02 -0.72877438499E+02  0.13870633254E+03  0.80435416234E+02 0.  0.
          5    1    5    5  501    0 -0.43605317713E+01  0.92512363455E+02 -0.14837607370E+03  0.17497171450E+03  0.47000000000E+01 0. -1.
        -11    1    6    6    0    0  0.46835896673E+02  0.39016972021E+02 -0.80418839313E+02  0.10091142175E+03  0.00000000000E+00 0.  1.
         12    1    6    6    0    0  0.35115279012E+02 -0.11768591066E+02  0.75414008144E+01  0.37794910795E+02  0.00000000000E+00 0. -1.
         -5    1    3    3    0  503 -0.47507600022E+02 -0.12715097888E+02  0.13516177332E+02  0.51219359854E+02  0.47000000000E+01 0.  1.
         13    1    4    4    0    0 -0.56666058539E+02 -0.57483212346E+02 -0.12002154928E+03  0.14463932447E+03  0.00000000000E+00 0. -1.
        -14    1    4    4    0    0  0.26583014647E+02 -0.49562434176E+02 -0.67146000062E+02  0.87588109201E+02  0.00000000000E+00 0.  1.
</event>
<event>
12    1  0.1046899E+000  0.3138393E+03  0.7818608E-02  0.1078777E+00
         21   -1    0    0  503  502  0.00000000000E+00  0.00000000000E+00  0.11387285714E+03  0.11387285714E+03  0.00000000000E+00 0.  1.
         21   -1    0    0  501  503 -0.00000000000E+00 -0.00000000000E+00 -0.88464491074E+03  0.88464491074E+03  0.00000000000E+00 0. -1.
          6    2    1    2  501    0  0.25878320032E+03  0.34708688967E+02 -0.30166329758E+03  0.43531121778E+03  0.17413119583E+03 0.  0.
         24    2    3    3    0    0  0.71851539012E+02 -0.14764951666E+02 -0.55884804171E+02  0.12254893594E+03  0.80712346685E+02 0.  0.
         -6    2    1    2    0  502 -0.25878320032E+03 -0.34708688967E+02 -0.46910875601E+03  0.56320655010E+03  0.17019152521E+03 0.  0.
        -24    2    5    5    0    0 -0.33427435680E+02  0.10983344404E+02 -0.10371104572E+03  0.13145365868E+03  0.72705268475E+02 0.  0.
          5    1    3    3  501    0  0.18693166130E+03  0.49473640634E+02 -0.24577849341E+03  0.31276228184E+03  0.47000000000E+01 0. -1.
        -13    1    4    4    0    0  0.89409706445E+02 -0.17539591004E+02 -0.49268907629E+02  0.10358164952E+03  0.00000000000E+00 0.  1.
         14    1    4    4    0    0 -0.17558167432E+02  0.27746393378E+01 -0.66158965416E+01  0.18967286419E+02  0.00000000000E+00 0. -1.
         -5    1    5    5    0  502 -0.22535576464E+03 -0.45692033371E+02 -0.36539771029E+03  0.43175289142E+03  0.47000000000E+01 0.  1.
         11    1    6    6    0    0 -0.28686127164E+02  0.12561604977E+02 -0.11495771207E+03  0.11914681437E+03  0.00000000000E+00 0. -1.
        -12    1    6    6    0    0 -0.47413085160E+01 -0.15782605731E+01  0.11246666344E+02  0.12306844304E+02  0.00000000000E+00 0.  1.
</event>
<event>
12    1  0.1046899E+000  0.2745332E+03  0.7818608E-02  0.1098753E+00
         21   -1    0    0  503  502  0.00000000000E+00  0.00000000000E+00  0.56093611103E+02  0.56093611103E+02  0.00000000000E+00 0. -1.
         21   -1    0    0  501  503 -0.00000000000E+00 -0.00000000000E+00 -0.13454986665E+04  0.13454986665E+04  0.00000000000E+00 0. -1.
          6    2    1    2  501    0  0.12458437685E+03  0.17346778144E+03 -0.61043397240E+03  0.66932661067E+03  0.17249967806E+03 0.  0.
         24    2    3    3    0    0  0.98664102161E+02  0.90348943953E+02 -0.52180188518E+03  0.54499504320E+03  0.82733626782E+02 0.  0.
         -6    2    1    2    0  502 -0.12458437685E+03 -0.17346778144E+03 -0.67897108303E+03  0.73226566697E+03  0.17204341686E+03 0.  0.
        -24    2    5    5    0    0 -0.52864126545E+01 -0.36544570392E+02 -0.28879527919E+03  0.30187140831E+03  0.79750749793E+02 0.  0.
          5    1    3    3  501    0  0.25920274685E+02  0.83118837483E+02 -0.88632087222E+02  0.12433156747E+03  0.47000000000E+01 0. -1.
        -11    1    4    4    0    0  0.79095112302E+02  0.32933996683E+02 -0.20083922916E+03  0.21835082069E+03  0.00000000000E+00 0.  1.
         12    1    4    4    0    0  0.19568989859E+02  0.57414947270E+02 -0.32096265603E+03  0.32664422251E+03  0.00000000000E+00 0. -1.
         -5    1    5    5    0  502 -0.11929796419E+03 -0.13692321104E+03 -0.39017580385E+03  0.43039425866E+03  0.47000000000E+01 0.  1.
         13    1    6    6    0    0  0.34814481214E+01 -0.25365973236E+02 -0.28630538623E+03  0.28744795575E+03  0.00000000000E+00 0. -1.
        -14    1    6    6    0    0 -0.87678607759E+01 -0.11178597157E+02 -0.24898929568E+01  0.14423452566E+02  0.00000000000E+00 0.  1.
</event>
<event>
12    1  0.1046899E+000  0.1997960E+03  0.7818608E-02  0.1150125E+00
         21   -1    0    0  503  502  0.00000000000E+00  0.00000000000E+00  0.68684705643E+03  0.68684705643E+03  0.00000000000E+00 0. -1.
         21   -1    0    0  501  503 -0.00000000000E+00 -0.00000000000E+00 -0.12830904974E+03  0.12830904974E+03  0.00000000000E+00 0. -1.
          6    2    1    2  501    0  0.84798362216E+02 -0.55841190772E+02  0.58167163239E+03  0.61502872018E+03  0.17207393151E+03 0.  0.
         24    2    3    3    0    0  0.30502945151E+02  0.33814239158E+02  0.21515479164E+03  0.23379024759E+03  0.79325046941E+02 0.  0.
         -6    2    1    2    0  502 -0.84798362216E+02  0.55841190772E+02 -0.23133625700E+02  0.20012738599E+03  0.17089998585E+03 0.  0.
        -24    2    5    5    0    0 -0.28068783924E+02 -0.19105099872E+02 -0.53245014212E+02  0.10131454647E+03  0.79225906853E+02 0.  0.
          5    1    3    3  501    0  0.54295417065E+02 -0.89655429930E+02  0.36651684075E+03  0.38123847259E+03  0.47000000000E+01 0. -1.
        -13    1    4    4    0    0  0.50978038762E+02  0.34072148574E+00  0.10210262614E+03  0.11412196455E+03  0.00000000000E+00 0.  1.
         14    1    4    4    0    0 -0.20475093611E+02  0.33473517672E+02  0.11305216550E+03  0.11966828305E+03  0.00000000000E+00 0. -1.
         -5    1    5    5    0  502 -0.56729578292E+02  0.74946290644E+02  0.30111388512E+02  0.98812839512E+02  0.47000000000E+01 0.  1.
         13    1    6    6    0    0 -0.40838567516E+02 -0.12262348320E+02  0.34677138034E+01  0.42780589315E+02  0.00000000000E+00 0. -1.
        -14    1    6    6    0    0  0.12769783592E+02 -0.68427515512E+01 -0.56712728015E+02  0.58533957159E+02  0.00000000000E+00 0.  1.
</event>
<event>
12    1  0.1046899E+000  0.2307636E+03  0.7818608E-02  0.1126368E+00
         21   -1    0    0  501  502  0.00000000000E+00  0.00000000000E+00  0.35533065805E+02  0.35533065805E+02  0.00000000000E+00 0.  1.
         21   -1    0    0  502  503 -0.00000000000E+00 -0.00000000000E+00 -0.15786853785E+04  0.15786853785E+04  0.00000000000E+00 0.  1.
         -6    2    1    2    0  503 -0.38116498791E+02 -0.14705393883E+03 -0.96166189031E+03  0.98861237218E+03  0.17170644357E+03 0.  0.
        -24    2    3    3    0    0 -0.14606473471E+02 -0.57280550111E+02 -0.21180516677E+03  0.23302043308E+03  0.77088799916E+02 0.  0.
          6    2    1    2  501    0  0.38116498791E+02  0.14705393883E+03 -0.58149042235E+03  0.62560607208E+03  0.17370698817E+03 0.  0.
         24    2    5    5    0    0  0.30817694711E+02  0.49339873372E+02 -0.12732041068E+03  0.16096233691E+03  0.79462151483E+02 0.  0.
          5    1    5    5  501    0  0.72988040804E+01  0.97714065454E+02 -0.45417001167E+03  0.46464373517E+03  0.47000000000E+01 0. -1.
        -13    1    6    6    0    0 -0.19721931503E+02  0.20673180377E+02 -0.10409206360E+02  0.30408659065E+02  0.00000000000E+00 0.  1.
         14    1    6    6    0    0  0.50539626213E+02  0.28666692994E+02 -0.11691120432E+03  0.13055367785E+03  0.00000000000E+00 0. -1.
         -5    1    3    3    0  503 -0.23510025320E+02 -0.89773388715E+02 -0.74985672353E+03  0.75559193911E+03  0.47000000000E+01 0.  1.
         13    1    4    4    0    0 -0.25013681049E+02 -0.73611743160E+02 -0.17197873211E+03  0.18873541604E+03  0.00000000000E+00 0. -1.
        -14    1    4    4    0    0  0.10407207578E+02  0.16331193049E+02 -0.39826434665E+02  0.44285017038E+02  0.00000000000E+00 0.  1.
</event>
<event>
12    1  0.1046899E+000  0.4491426E+03  0.7818608E-02  0.1027991E+00
         21   -1    0    0  503  502  0.00000000000E+00  0.00000000000E+00  0.74278082493E+03  0.74278082493E+03  0.00000000000E+00 0. -1.
         21   -1    0    0  501  503 -0.00000000000E+00 -0.00000000000E+00 -0.49070441782E+03  0.49070441782E+03  0.00000000000E+00 0.  1.
          6    2    1    2  501    0  0.17415904950E+03 -0.37677226776E+03  0.53825089892E+03  0.70092080457E+03  0.17113511565E+03 0.  0.
         24    2    3    3    0    0  0.33734355332E+02 -0.22312989456E+03  0.31808999367E+03  0.39790597361E+03  0.78885760383E+02 0.  0.
         -6    2    1    2    0  502 -0.17415904950E+03  0.37677226776E+03 -0.28617449182E+03  0.53256443818E+03  0.17158183112E+03 0.  0.
        -24    2    5    5    0    0 -0.18740563950E+02  0.13105935891E+03 -0.67695600539E+02  0.16885458794E+03  0.80008832270E+02 0.  0.
          5    1    3    3  501    0  0.14042469417E+03 -0.15364237320E+03  0.22016090526E+03  0.30301483095E+03  0.47000000000E+01 0. -1.
        -13    1    4    4    0    0  0.37016209874E+02 -0.19885974998E+03  0.22914833460E+03  0.30565398608E+03  0.00000000000E+00 0.  1.
         14    1    4    4    0    0 -0.32818545420E+01 -0.24270144581E+02  0.88941659061E+02  0.92251987533E+02  0.00000000000E+00 0. -1.
         -5    1    5    5    0  502 -0.15541848555E+03  0.24571290885E+03 -0.21847889128E+03  0.36370985024E+03  0.47000000000E+01 0.  1.
         11    1    6    6    0    0 -0.46048079139E+02  0.46553966289E+02 -0.22743120602E+02  0.69317724316E+02  0.00000000000E+00 0. -1.
        -12    1    6    6    0    0  0.27307515189E+02  0.84505392620E+02 -0.44952479937E+02  0.99536863624E+02  0.00000000000E+00 0.  1.
</event>
<event>
12    1  0.1046899E+000  0.3333133E+03  0.7818608E-02  0.1069813E+00
         21   -1    0    0  501  502  0.00000000000E+00  0.00000000000E+00  0.40912064377E+02  0.40912064377E+02  0.00000000000E+00 0. -1.
         21   -1    0    0  502  503 -0.00000000000E+00 -0.00000000000E+00 -0.32317804947E+04  0.32317804947E+04  0.00000000000E+00 0. -1.
         -6    2    1    2    0  503  0.28275393801E+03  0.37487622676E+02 -0.93761964218E+03  0.99510219046E+03  0.17246061796E+03 0.  0.
        -24    2    3    3    0    0  0.13182437786E+03  0.64283995490E+02 -0.34914341164E+03  0.38697050930E+03  0.79592427418E+02 0.  0.
          6    2    1    2  501    0 -0.28275393801E+03 -0.37487622676E+02 -0.22532487882E+04  0.22775903686E+04  0.17009607467E+03 0.  0.
         24    2    5    5    0    0 -0.47941627870E+02 -0.40816474314E+02 -0.72468952180E+03  0.73108998938E+03  0.73166148635E+02 0.  0.
          5    1    5    5  501    0 -0.23481231014E+03  0.33288516379E+01 -0.15285592664E+04  0.15465003793E+04  0.47000000000E+01 0. -1.
        -13    1    6    6    0    0 -0.58909546002E+02 -0.42864814594E+02 -0.70235664003E+03  0.70612504327E+03  0.00000000000E+00 0.  1.
         14    1    6    6    0    0  0.10967918132E+02  0.20483402800E+01 -0.22332881774E+02  0.24964946112E+02  0.00000000000E+00 0. -1.
         -5    1    3    3    0  503  0.15092956015E+03 -0.26796372814E+02 -0.58847623054E+03  0.60813168116E+03  0.47000000000E+01 0.  1.
         11    1    4    4    0    0  0.82119571031E+02  0.53135585417E+02 -0.30243387564E+03  0.31785730056E+03  0.00000000000E+00 0. -1.
        -12    1    4    4    0    0  0.49704806832E+02  0.11148410073E+02 -0.46709536000E+02  0.69113208742E+02  0.00000000000E+00 0.  1.
</event>
<event>
12    1  0.1046899E+000  0.2080434E+03  0.7818608E-02  0.1145895E+00
         21   -1    0    0  503  502  0.00000000000E+00  0.00000000000E+00  0.25350371253E+03  0.25350371253E+03  0.00000000000E+00 0.  1.
         21   -1    0    0  501  503 -0.00000000000E+00 -0.00000000000E+00 -0.15996166204E+03  0.15996166204E+03  0.00000000000E+00 0.  1.
          6    2    1    2  501    0  0.11561017394E+03 -0.14333717967E+02  0.45804055686E+02  0.20001523246E+03  0.15600292918E+03 0.  0.
         24    2    3    3    0    0  0.44943304202E+02 -0.61340016410E+02  0.28555475839E+02  0.11327999119E+03  0.78958489084E+02 0.  0.
         -6    2    1    2    0  502 -0.11561017394E+03  0.14333717967E+02  0.47737994806E+02  0.21345014211E+03  0.17236844035E+03 0.  0.
        -24    2    5    5    0    0 -0.50536257780E+02  0.70664112767E+02  0.46631425015E+02  0.12724664776E+03  0.80435622597E+02 0.  0.
          5    1    3    3  501    0  0.70666869735E+02  0.47006298443E+02  0.17248579847E+02  0.86735241270E+02  0.47000000000E+01 0. -1.
        -13    1    4    4    0    0 -0.81909555583E+01 -0.21495151743E+02  0.39752751502E+02  0.45928363278E+02  0.00000000000E+00 0.  1.
         14    1    4    4    0    0  0.53134259760E+02 -0.39844864667E+02 -0.11197275662E+02  0.67351627915E+02  0.00000000000E+00 0. -1.
         -5    1    5    5    0  502 -0.65073916156E+02 -0.56330394800E+02  0.11065697909E+01  0.86203494354E+02  0.47000000000E+01 0.  1.
         13    1    6    6    0    0  0.18278015050E+02  0.22065048128E+02  0.29793226067E+02  0.41335075934E+02  0.00000000000E+00 0. -1.
        -14    1    6    6    0    0 -0.68814272830E+02  0.48599064640E+02  0.16838198948E+02  0.85911571821E+02  0.00000000000E+00 0.  1.
</event>
<event>
12    1  0.1046899E+000  0.3271454E+03  0.7818608E-02  0.1072448E+00
         21   -1    0    0  501  502  0.00000000000E+00  0.00000000000E+00  0.13231982856E+04  0.13231982856E+04  0.00000000000E+00 0.  1.
         21   -1    0    0  502  503 -0.00000000000E+00 -0.00000000000E+00 -0.12818036667E+03  0.12818036667E+03  0.00000000000E+00 0. -1.
         -6    2    1    2    0  503 -0.12421996707E+03  0.24910968670E+03  0.15647977903E+03  0.36264315272E+03  0.17186593247E+03 0.  0.
        -24    2    3    3    0    0 -0.81413941980E+02  0.25598663583E+03  0.11562845238E+03  0.30288891352E+03  0.78831258121E+02 0.  0.
          6    2    1    2  501    0  0.12421996707E+03 -0.24910968670E+03  0.10385381399E+04  0.10887354995E+04  0.17116449323E+03 0.  0.
         24    2    5    5    0    0  0.26088141228E+02 -0.93546709933E+02  0.60092513280E+03  0.61401776346E+03  0.80468755180E+02 0.  0.
          5    1    5    5  501    0  0.98131825846E+02 -0.15556297676E+03  0.43761300709E+03  0.47471773609E+03  0.47000000000E+01 0. -1.
        -13    1    6    6    0    0  0.79031437253E+01 -0.10010673867E+03  0.55767321347E+03  0.56664206677E+03  0.00000000000E+00 0.  1.
         14    1    6    6    0    0  0.18184997503E+02  0.65600287418E+01  0.43251919335E+02  0.47375696696E+02  0.00000000000E+00 0. -1.
         -5    1    3    3    0  503 -0.42806025094E+02 -0.68769491362E+01  0.40851326651E+02  0.59754239205E+02  0.47000000000E+01 0.  1.
         13    1    4    4    0    0  0.14749447605E+01  0.12441325626E+03  0.53262401554E+02  0.13534296145E+03  0.00000000000E+00 0. -1.
        -14    1    4    4    0    0 -0.82888886740E+02  0.13157337957E+03  0.62366050829E+02  0.16754595207E+03  0.00000000000E+00 0.  1.
</event>
<event>
12    1  0.1046899E+000  0.3061877E+03  0.7818608E-02  0.1082428E+00
         21   -1    0    0  501  502  0.00000000000E+00  0.00000000000E+00  0.12062795983E+03  0.12062795983E+03  0.00000000000E+00 0.  1.
         21   -1    0    0  502  503 -0.00000000000E+00 -0.00000000000E+00 -0.77768332856E+03  0.77768332856E+03  0.00000000000E+00 0.  1.
         -6    2    1    2    0  503  0.24939586240E+03 -0.37566719667E+02 -0.28978073275E+03  0.42014651239E+03  0.17011955851E+03 0.  0.
        -24    2    3    3    0    0  0.24594935835E+03 -0.64658491437E+02 -0.22190933076E+03  0.34683580583E+03  0.79871883277E+02 0.  0.
          6    2    1    2  501    0 -0.24939586240E+03  0.37566719667E+02 -0.36727463598E+03  0.47816477600E+03  0.17361261522E+03 0.  0.
         24    2    5    5    0    0 -0.59064928956E+02 -0.28485977720E+02 -0.14519102680E+03  0.17827805985E+03  0.80015720961E+02 0.  0.
          5    1    5    5  501    0 -0.19033093345E+03  0.66052697387E+02 -0.22208360918E+03  0.29988671615E+03  0.47000000000E+01 0. -1.
        -13    1    6    6    0    0 -0.96880889271E+01  0.24397954508E+02 -0.17613961082E+02  0.31612827716E+02  0.00000000000E+00 0.  1.
         14    1    6    6    0    0 -0.49376840029E+02 -0.52883932228E+02 -0.12757706572E+03  0.14666523214E+03  0.00000000000E+00 0. -1.
         -5    1    3    3    0  503  0.34465040479E+01  0.27091771770E+02 -0.67871401991E+02  0.73310706557E+02  0.47000000000E+01 0.  1.
         11    1    4    4    0    0  0.18995501884E+03 -0.13692441521E+02 -0.15017010146E+03  0.24253134130E+03  0.00000000000E+00 0. -1.
        -12    1    4    4    0    0  0.55994339512E+02 -0.50966049916E+02 -0.71739229297E+02  0.10430446453E+03  0.00000000000E+00 0.  1.
</event>
<event>
12    1  0.1046899E+000  0.2046964E+03  0.7818608E-02  0.1147057E+00
         21   -1    0    0  501  502  0.00000000000E+00  0.00000000000E+00  0.47964793683E+03  0.47964793683E+03  0.00000000000E+00 0.  1.
         21   -1    0    0  502  503 -0.00000000000E+00 -0.00000000000E+00 -0.86087464765E+02  0.86087464765E+02  0.00000000000E+00 0.  1.
         -6    2    1    2    0  503  0.50303928148E+02 -0.99910731016E+02  0.23327182435E+03  0.31034875014E+03  0.17142917872E+03 0.  0.
        -24    2    3    3    0    0 -0.27164528189E+02 -0.90156100447E+02  0.11187684647E+03  0.16593495163E+03  0.78434337868E+02 0.  0.
          6    2    1    2  501    0 -0.50303928148E+02  0.99910731016E+02  0.16028864772E+03  0.25538665146E+03  0.16436925442E+03 0.  0.
         24    2    5    5    0    0 -0.36929219349E+01  0.56805970148E+02  0.18074382062E+02  0.99573963704E+02  0.79672674387E+02 0.  0.
          5    1    5    5  501    0 -0.46611006213E+02  0.43104760868E+02  0.14221426566E+03  0.15581268776E+03  0.47000000000E+01 0. -1.
        -11    1    6    6    0    0  0.18783001831E+02 -0.11800268395E+02 -0.68222821740E+01  0.23207563984E+02  0.00000000000E+00 0.  1.
         12    1    6    6    0    0 -0.22475923766E+02  0.68606238543E+02  0.24896664236E+02  0.76366399720E+02  0.00000000000E+00 0. -1.
         -5    1    3    3    0  503  0.77468456337E+02 -0.97546305688E+01  0.12139497788E+03  0.14441379851E+03  0.47000000000E+01 0.  1.
         13    1    4    4    0    0  0.13025068892E+02 -0.26065256244E+02  0.77584628696E+02  0.82875959195E+02  0.00000000000E+00 0. -1.
        -14    1    4    4    0    0 -0.40189597081E+02 -0.64090844203E+02  0.34292217770E+02  0.83058992432E+02  0.00000000000E+00 0.  1.
</event>
<event>
12    1  0.1046899E+000  0.3296427E+03  0.7818608E-02  0.1071319E+00
         21   -1    0    0  503  502  0.00000000000E+00  0.00000000000E+00  0.18516896637E+03  0.18516896637E+03  0.00000000000E+00 0.  1.
         21   -1    0    0  501  503 -0.00000000000E+00 -0.00000000000E+00 -0.60816255042E+03  0.60816255042E+03  0.00000000000E+00 0.  1.
          6    2    1    2  501    0 -0.27735738284E+03  0.47261716576E+02 -0.13648979493E+03  0.35658364775E+03  0.17135240312E+03 0.  0.
         24    2    3    3    0    0 -0.22917779501E+03  0.83673398210E+02 -0.70325157442E+02  0.26687895168E+03  0.82189097742E+02 0.  0.
         -6    2    1    2    0  502  0.27735738284E+03 -0.47261716576E+02 -0.28650378912E+03  0.43674786904E+03  0.17176580646E+03 0.  0.
        -24    2    5    5    0    0  0.12895834088E+03  0.19040532749E+02 -0.77523492662E+02  0.17195905088E+03  0.81038433442E+02 0.  0.
          5    1    3    3  501    0 -0.48179587828E+02 -0.36411681634E+02 -0.66164637492E+02  0.89704696071E+02  0.47000000000E+01 0. -1.
        -11    1    4    4    0    0 -0.62824954863E+02  0.62295451992E+02 -0.11888383529E+02  0.89269434608E+02  0.00000000000E+00 0.  1.
         12    1    4    4    0    0 -0.16635284015E+03  0.21377946218E+02 -0.58436773913E+02  0.17760951707E+03  0.00000000000E+00 0. -1.
         -5    1    5    5    0  502  0.14839904196E+03 -0.66302249325E+02 -0.20898029645E+03  0.26478881817E+03  0.47000000000E+01 0.  1.
         11    1    6    6    0    0  0.98014740124E+02  0.15159567316E+02 -0.94034577417E+02  0.13667188267E+03  0.00000000000E+00 0. -1.
        -12    1    6    6    0    0  0.30943600751E+02  0.38809654332E+01  0.16511084754E+02  0.35287168205E+02  0.00000000000E+00 0.  1.
</event>
<event>
12    1  0.1046899E+000  0.3849267E+03  0.7818608E-02  0.1049146E+00
         21   -1    0    0  503  502  0.00000000000E+00  0.00000000000E+00  0.94890619568E+03  0.94890619568E+03  0.00000000000E+00 0.  1.
         21   -1    0    0  501  503 -0.00000000000E+00 -0.00000000000E+00 -0.15640885755E+03  0.15640885755E+03  0.00000000000E+00 0. -1.
          6    2    1    2  501    0 -0.11230327303E+03  0.32558326584E+03  0.42225342272E+03  0.57137245812E+03  0.17190708179E+03 0.  0.
         24    2    3    3    0    0 -0.11663996141E+03  0.28152776804E+03  0.27812655792E+03  0.42052705079E+03  0.81399345558E+02 0.  0.
         -6    2    1    2    0  502  0.11230327303E+03 -0.32558326584E+03  0.37024391542E+03  0.53394259512E+03  0.17145742867E+03 0.  0.
        -24    2    5    5    0    0  0.76844458489E+02 -0.32794108445E+03  0.31470322593E+03  0.46783854814E+03  0.79902196762E+02 0.  0.
          5    1    3    3  501    0  0.43366883815E+01  0.44055497802E+02  0.14412686480E+03  0.15084540732E+03  0.47000000000E+01 0. -1.
        -13    1    4    4    0    0 -0.22162399309E+02  0.40355407715E+02  0.88258747817E+01  0.46878853875E+02  0.00000000000E+00 0.  1.
         14    1    4    4    0    0 -0.94477562103E+02  0.24117236032E+03  0.26930068313E+03  0.37364819692E+03  0.00000000000E+00 0. -1.
         -5    1    5    5    0  502  0.35458814541E+02  0.23578186108E+01  0.55540689492E+02  0.66104046975E+02  0.47000000000E+01 0.  1.
         11    1    6    6    0    0  0.35605671405E+02 -0.94821149664E+02  0.14365648874E+03  0.17577258323E+03  0.00000000000E+00 0. -1.
        -12    1    6    6    0    0  0.41238787085E+02 -0.23311993479E+03  0.17104673719E+03  0.29206596491E+03  0.00000000000E+00 0.  1.
</event>
<event>
12    1  0.1046899E+000  0.2196639E+03  0.7818608E-02  0.1134195E+00
         21   -1    0    0  501  502  0.00000000000E+00  0.00000000000E+00  0.94836037813E+02  0.94836037813E+02  0.00000000000E+00 0. -1.
         21   -1    0    0  502  503 -0.00000000000E+00 -0.00000000000E+00 -0.15611327705E+04  0.15611327705E+04  0.00000000000E+00 0. -1.
         -6    2    1    2    0  503  0.82964833168E+02  0.10943318280E+03 -0.52927738655E+02  0.22563173034E+03  0.17102498992E+03 0.  0.
        -24    2    3    3    0    0 -0.91445221247E+01  0.89332380580E+02 -0.11880799204E+02  0.12269914647E+03  0.82764911954E+02 0.  0.
          6    2    1    2  501    0 -0.82964833168E+02 -0.10943318280E+03 -0.14133689941E+04  0.14303370780E+04  0.17144520496E+03 0.  0.
         24    2    5    5    0    0 -0.11887240944E+03 -0.55604495837E+02 -0.10594036962E+04  0.10704754328E+04  0.79743031692E+02 0.  0.
          5    1    5    5  501    0  0.35907576267E+02 -0.53828686960E+02 -0.35396529788E+03  0.35986164519E+03  0.47000000000E+01 0. -1.
        -13    1    6    6    0    0 -0.84001290418E+02 -0.73180255025E+02 -0.67978416605E+03  0.68885272659E+03  0.00000000000E+00 0.  1.
         14    1    6    6    0    0 -0.34871119017E+02  0.17575759188E+02 -0.37961953013E+03  0.38162270623E+03  0.00000000000E+00 0. -1.
         -5    1    3    3    0  503  0.92109355293E+02  0.20100802217E+02 -0.41046939451E+02  0.10293258386E+03  0.47000000000E+01 0.  1.
         11    1    4    4    0    0 -0.33437119215E+02  0.60976820692E+02 -0.35939647030E+02  0.78280724522E+02  0.00000000000E+00 0. -1.
        -12    1    4    4    0    0  0.24292597090E+02  0.28355559889E+02  0.24058847826E+02  0.44418421952E+02  0.00000000000E+00 0.  1.
</event>
<event>
12    1  0.1046899E+000  0.4454151E+03  0.7818608E-02  0.1029137E+00
         21   -1    0    0  503  502  0.00000000000E+00  0.00000000000E+00  0.30743360346E+03  0.30743360346E+03  0.00000000000E+00 0. -1.
         21   -1    0    0  501  503 -0.00000000000E+00 -0.00000000000E+00 -0.89149669176E+03  0.89149669176E+03  0.00000000000E+00 0.  1.
          6    2    1    2  501    0 -0.16528929249E+03 -0.37529616390E+03 -0.60739377998E+03  0.75290453886E+03  0.17254066136E+03 0.  0.
         24    2    3    3    0    0 -0.12794198276E+03 -0.13287907625E+03 -0.25294502801E+03  0.32183972506E+03  0.74656691389E+02 0.  0.
         -6    2    1    2    0  502  0.16528929249E+03  0.37529616390E+03  0.23330691680E+02  0.44602575636E+03  0.17385883154E+03 0.  0.
        -24    2    5    5    0    0  0.97158285251E+02  0.17104020078E+03  0.74631974667E+02  0.22462963115E+03  0.78702330800E+02 0.  0.
          5    1    3    3  501    0 -0.37347309739E+02 -0.24241708765E+03 -0.35444875197E+03  0.43106481381E+03  0.47000000000E+01 0. -1.
        -11    1    4    4    0    0 -0.84791366509E+02 -0.12545665774E+03 -0.16729338624E+03  0.22564579740E+03  0.00000000000E+00 0.  1.
         12    1    4    4    0    0 -0.43150616247E+02 -0.74224185166E+01 -0.85651641772E+02  0.96193927653E+02  0.00000000000E+00 0. -1.
         -5    1    5    5    0  502  0.68131007243E+02  0.20425596312E+03 -0.51301282987E+02  0.22139612520E+03  0.47000000000E+01 0.  1.
         13    1    6    6    0    0  0.10392997765E+03  0.17530287499E+03  0.70668766007E+02  0.21570028447E+03  0.00000000000E+00 0. -1.
        -14    1    6    6    0    0 -0.67716923955E+01 -0.42626742056E+01  0.39632086602E+01  0.89293466819E+01  0.00000000000E+00 0.  1.
</event>
<event>
12    1  0.1046899E+000  0.2100303E+03  0.7818608E-02  0.1142432E+00
         21   -1    0    0  503  502  0.00000000000E+00  0.00000000000E+00  0.45331123521E+03  0.45331123521E+03  0.00000000000E+00 0.  1.
         21   -1    0    0  501  503 -0.00000000000E+00 -0.00000000000E+00 -0.10681776790E+03  0.10681776790E+03  0.00000000000E+00 0.  1.
          6    2    1    2  501    0  0.10788650241E+03  0.35927899107E+02  0.26700935195E+03  0.33971562085E+03  0.17658538355E+03 0.  0.
         24    2    3    3    0    0 -0.37359742340E+01  0.23522923928E+02  0.47236862841E+02  0.92864455833E+02  0.76323001071E+02 0.  0.
         -6    2    1    2    0  502 -0.10788650241E+03 -0.35927899107E+02  0.79484115360E+02  0.22041338226E+03  0.17127178153E+03 0.  0.
        -24    2    5    5    0    0 -0.40165336284E+02 -0.51616174419E+02 -0.14710223198E+02  0.10325135027E+03  0.78530038618E+02 0.  0.
          5    1    3    3  501    0  0.11162247665E+03  0.12404975180E+02  0.21977248911E+03  0.24685116502E+03  0.47000000000E+01 0. -1.
        -13    1    4    4    0    0  0.66749555425E+01 -0.26769762036E+02  0.96791106620E+01  0.29237995386E+02  0.00000000000E+00 0.  1.
         14    1    4    4    0    0 -0.10410929777E+02  0.50292685964E+02  0.37557752180E+02  0.63626460447E+02  0.00000000000E+00 0. -1.
         -5    1    5    5    0  502 -0.67721166129E+02  0.15688275312E+02  0.94194338558E+02  0.11716203199E+03  0.47000000000E+01 0.  1.
         11    1    6    6    0    0 -0.50069261702E+02 -0.44872058655E+02  0.17002342624E+02  0.69350647221E+02  0.00000000000E+00 0. -1.
        -12    1    6    6    0    0  0.99039254173E+01 -0.67441157636E+01 -0.31712565822E+02  0.33900703048E+02  0.00000000000E+00 0.  1.
</event>
<event>
12    1  0.1046899E+000  0.1986916E+03  0.7818608E-02  0.1150996E+00
         21   -1    0    0  501  502  0.00000000000E+00  0.00000000000E+00  0.59258165459E+03  0.59258165459E+03  0.00000000000E+00 0. -1.
         21   -1    0    0  502  503 -0.00000000000E+00 -0.00000000000E+00 -0.75324903009E+02  0.75324903009E+02  0.00000000000E+00 0. -1.
         -6    2    1    2    0  503 -0.76424684845E+02  0.61496113964E+02  0.14399437734E+03  0.24538279222E+03  0.17278839523E+03 0.  0.
        -24    2    3    3    0    0 -0.12026368817E+03  0.47672619622E+02  0.11110605725E+03  0.18866702010E+03  0.80713413777E+02 0.  0.
          6    2    1    2  501    0  0.76424684845E+02 -0.61496113964E+02  0.37326237424E+03  0.42252376538E+03  0.17198554532E+03 0.  0.
         24    2    5    5    0    0  0.74293504970E+02 -0.10067633984E+03  0.33993099563E+03  0.37082557559E+03  0.79393169966E+02 0.  0.
          5    1    5    5  501    0  0.21311798748E+01  0.39180225873E+02  0.33331378608E+02  0.51698189785E+02  0.47000000000E+01 0. -1.
        -13    1    6    6    0    0  0.17199460516E+01  0.45152456736E+01  0.89877050158E+02  0.90006831980E+02  0.00000000000E+00 0.  1.
         14    1    6    6    0    0  0.72573558918E+02 -0.10519158551E+03  0.25005394548E+03  0.28081874361E+03  0.00000000000E+00 0. -1.
         -5    1    3    3    0  503  0.43839003327E+02  0.13823494342E+02  0.32888320093E+02  0.56715772119E+02  0.47000000000E+01 0.  1.
         13    1    4    4    0    0 -0.29474812977E+02  0.31641956215E+02  0.80758465217E+02  0.91607356131E+02  0.00000000000E+00 0. -1.
        -14    1    4    4    0    0 -0.90788875195E+02  0.16030663407E+02  0.30347592030E+02  0.97059663972E+02  0.00000000000E+00 0.  1.
</event>
<event>
12    1  0.1612430E+000  0.7295242E+03  0.7818608E-02  0.9668039E-01
         21   -1    0    0  503  502  0.00000000000E+00  0.00000000000E+00  0.68536047539E+03  0.68536047539E+03  0.00000000000E+00 0. -1.
         21   -1    0    0  501  503 -0.00000000000E+00 -0.00000000000E+00 -0.93793583826E+03  0.93793583826E+03  0.00000000000E+00 0. -1.
          6    2    1    2  501    0  0.69659369991E+03 -0.13168663299E+03  0.21042385932E+03  0.75926531229E+03  0.17210886618E+03 0.  0.
         24    2    3    3    0    0  0.59047239446E+03 -0.54099368409E+02  0.17877859316E+03  0.62396923709E+03  0.76101466331E+02 0.  0.
         -6    2    1    2    0  502 -0.69659369991E+03  0.13168663299E+03 -0.46299922220E+03  0.86403100136E+03  0.17203819197E+03 0.  0.
        -24    2    5    5    0    0 -0.30153610259E+03 -0.24502415078E+01 -0.18529679417E+03  0.36282851251E+03  0.79872415210E+02 0.  0.
          5    1    3    3  501    0  0.10612130545E+03 -0.77587264580E+02  0.31645266162E+02  0.13529607520E+03  0.47000000000E+01 0. -1.
        -11    1    4    4    0    0  0.19468829593E+03 -0.50558790267E+02  0.44478516677E+02  0.20600500550E+03  0.00000000000E+00 0.  1.
         12    1    4    4    0    0  0.39578409854E+03 -0.35405781412E+01  0.13430007648E+03  0.41796423159E+03  0.00000000000E+00 0. -1.
         -5    1    5    5    0  502 -0.39505759732E+03  0.13413687450E+03 -0.27770242803E+03  0.50120248885E+03  0.47000000000E+01 0.  1.
         11    1    6    6    0    0 -0.12452288935E+02 -0.72880883010E+01 -0.33064660530E+02  0.36075580478E+02  0.00000000000E+00 0. -1.
        -12    1    6    6    0    0 -0.28908381366E+03  0.48378467932E+01 -0.15223213364E+03  0.32675293203E+03  0.00000000000E+00 0.  1.
</event>
<event>
12    1  0.1046899E+000  0.2084691E+03  0.7818608E-02  0.1142842E+00
         21   -1    0    0  503  502  0.00000000000E+00  0.00000000000E+00  0.33494773503E+02  0.33494773503E+02  0.00000000000E+00 0.  1.
         21   -1    0    0  501  503 -0.00000000000E+00 -0.00000000000E+00 -0.14567521007E+04  0.14567521007E+04  0.00000000000E+00 0.  1.
          6    2    1    2  501    0 -0.56067760319E+01 -0.11876197670E+03 -0.95982605313E+03  0.98220436693E+03  0.17124112561E+03 0.  0.
         24    2    3    3    0    0 -0.39931054904E+02 -0.11159211622E+03 -0.91007085913E+03  0.92115330347E+03  0.79038916418E+02 0.  0.
         -6    2    1    2    0  502  0.56067760319E+01  0.11876197670E+03 -0.46343127406E+03  0.50804250727E+03  0.17088826866E+03 0.  0.
        -24    2    5    5    0    0  0.77569955377E+01  0.28289738623E+02 -0.89854585057E+02  0.12363194306E+03  0.79690216451E+02 0.  0.
          5    1    3    3  501    0  0.34324278872E+02 -0.71698604791E+01 -0.49755193992E+02  0.61051063452E+02  0.47000000000E+01 0. -1.
        -13    1    4    4    0    0 -0.11688560108E+01  0.97705924192E+01 -0.16301392522E+03  0.16331065647E+03  0.00000000000E+00 0.  1.
         14    1    4    4    0    0 -0.38762198893E+02 -0.12136270864E+03 -0.74705693391E+03  0.75784264700E+03  0.00000000000E+00 0. -1.
         -5    1    5    5    0  502 -0.21502195058E+01  0.90472238079E+02 -0.37357668900E+03  0.38441056421E+03  0.47000000000E+01 0.  1.
         13    1    6    6    0    0  0.18276775177E+02  0.53456486079E+02 -0.69680879991E+02  0.89705414837E+02  0.00000000000E+00 0. -1.
        -14    1    6    6    0    0 -0.10519779639E+02 -0.25166747456E+02 -0.20173705066E+02  0.33926528223E+02  0.00000000000E+00 0.  1.
</event>
<event>
12    1  0.1046899E+000  0.7479470E+03  0.7818608E-02  0.9638845E-01
         21   -1    0    0  503  502  0.00000000000E+00  0.00000000000E+00  0.52158572163E+03  0.52158572163E+03  0.00000000000E+00 0. -1.
         21   -1    0    0  501  503 -0.00000000000E+00 -0.00000000000E+00 -0.15347931327E+04  0.15347931327E+04  0.00000000000E+00 0. -1.
          6    2    1    2  501    0 -0.55154244130E+02  0.72518935046E+03 -0.10716289724E+04  0.13068333434E+04  0.17459423880E+03 0.  0.
         24    2    3    3    0    0 -0.16700653748E+02  0.29399824023E+03 -0.53678856120E+03  0.61873392643E+03  0.89307531530E+02 0.  0.
         -6    2    1    2    0  502  0.55154244130E+02 -0.72518935046E+03  0.58421561285E+02  0.74954551099E+03  0.17165025360E+03 0.  0.
        -24    2    5    5    0    0 -0.15257204444E+02 -0.52082609559E+03  0.77757804543E+02  0.53247848832E+03  0.77423899508E+02 0.  0.
          5    1    3    3  501    0 -0.38453590382E+02  0.43119111023E+03 -0.53484041117E+03  0.68809941693E+03  0.47000000000E+01 0. -1.
        -11    1    4    4    0    0 -0.13456761758E+02  0.29075953957E+03 -0.47717090683E+03  0.55894030863E+03  0.00000000000E+00 0.  1.
         12    1    4    4    0    0 -0.32438919901E+01  0.32387006632E+01 -0.59617654370E+02  0.59793617801E+02  0.00000000000E+00 0. -1.
         -5    1    5    5    0  502  0.70411448574E+02 -0.20436325487E+03 -0.19336243258E+02  0.21706702268E+03  0.47000000000E+01 0.  1.
         11    1    6    6    0    0 -0.18797696484E+02 -0.49140403399E+03  0.54434855316E+02  0.49476704770E+03  0.00000000000E+00 0. -1.
        -12    1    6    6    0    0  0.35404920405E+01 -0.29422061600E+02  0.23322949227E+02  0.37711440616E+02  0.00000000000E+00 0.  1.
</event>
<event>
12    1  0.1046899E+000  0.1838671E+03  0.7818608E-02  0.1164196E+00
         21   -1    0    0  501  502  0.00000000000E+00  0.00000000000E+00  0.69758080546E+03  0.69758080546E+03  0.00000000000E+00 0.  1.
         21   -1    0    0  502  503 -0.00000000000E+00 -0.00000000000E+00 -0.71355899124E+02  0.71355899124E+02  0.00000000000E+00 0.  1.
         -6    2    1    2    0  503 -0.30819291525E+02 -0.57773032755E+02  0.53153069276E+03  0.56243399354E+03  0.17181259471E+03 0.  0.
        -24    2    3    3    0    0 -0.29717264672E+02  0.29758842631E+02  0.20424933106E+03  0.22361512838E+03  0.80729374257E+02 0.  0.
          6    2    1    2  501    0  0.30819291525E+02  0.57773032755E+02  0.94694213572E+02  0.20650271104E+03  0.17143168768E+03 0.  0.
         24    2    5    5    0    0  0.76017851930E+02  0.15321732861E+02  0.74257362572E+02  0.14104449838E+03  0.91465432369E+02 0.  0.
          5    1    5    5  501    0 -0.45198560405E+02  0.42451299894E+02  0.20436851000E+02  0.65458212656E+02  0.47000000000E+01 0. -1.
        -11    1    6    6    0    0  0.32752531486E+02 -0.26070147727E+02  0.69301468987E+02  0.80963414732E+02  0.00000000000E+00 0.  1.
         12    1    6    6    0    0  0.43265320443E+02  0.41391880587E+02  0.49558935845E+01  0.60081083652E+02  0.00000000000E+00 0. -1.
         -5    1    3    3    0  503 -0.11020268528E+01 -0.87531875386E+02  0.32728136170E+03  0.33881886516E+03  0.47000000000E+01 0.  1.
         13    1    4    4    0    0  0.50806941360E+01 -0.16315559930E+02  0.76680515789E+01  0.18729921616E+02  0.00000000000E+00 0. -1.
        -14    1    4    4    0    0 -0.34797958808E+02  0.46074402561E+02  0.19658127948E+03  0.20488520676E+03  0.00000000000E+00 0.  1.
</event>
<event>
12    1  0.1046899E+000  0.1972386E+03  0.7818608E-02  0.1152155E+00
         21   -1    0    0  503  502  0.00000000000E+00  0.00000000000E+00  0.14871018262E+03  0.14871018262E+03  0.00000000000E+00 0.  1.
         21   -1    0    0  501  503 -0.00000000000E+00 -0.00000000000E+00 -0.27197163072E+03  0.27197163072E+03  0.00000000000E+00 0.  1.
          6    2    1    2  501    0  0.25207072721E+02 -0.91538739108E+02 -0.19822731170E+02  0.19823218916E+03  0.17288239608E+03 0.  0.
         24    2    3    3    0    0 -0.43453518933E+02 -0.11841339925E+02 -0.10976476184E+02  0.92561481248E+02  0.80116909217E+02 0.  0.
         -6    2    1    2    0  502 -0.25207072721E+02  0.91538739108E+02 -0.10343871693E+03  0.22244962418E+03  0.17253848807E+03 0.  0.
        -24    2    5    5    0    0  0.50602550276E+02  0.66659542410E+02 -0.70265907166E+02  0.13591293442E+03  0.80814078877E+02 0.  0.
          5    1    3    3  501    0  0.68660591655E+02 -0.79697399183E+02 -0.88462549859E+01  0.10567070791E+03  0.47000000000E+01 0. -1.
        -13    1    4    4    0    0 -0.39382094741E+01  0.21410836604E+02  0.22268282853E+02  0.31141770006E+02  0.00000000000E+00 0.  1.
         14    1    4    4    0    0 -0.39515309459E+02 -0.33252176529E+02 -0.33244759037E+02  0.61419711242E+02  0.00000000000E+00 0. -1.
         -5    1    5    5    0  502 -0.75809622997E+02  0.24879196698E+02 -0.33172809765E+02  0.86536689762E+02  0.47000000000E+01 0.  1.
         13    1    6    6    0    0  0.16912869541E+02 -0.18304408222E+02 -0.16064506374E+02  0.29650714688E+02  0.00000000000E+00 0. -1.
        -14    1    6    6    0    0  0.33689680734E+02  0.84963950632E+02 -0.54201400792E+02  0.10626221973E+03  0.00000000000E+00 0.  1.
</event>
<event>
12    1  0.1046899E+000  0.3315936E+03  0.7818608E-02  0.1070458E+00
         21   -1    0    0  501  502  0.00000000000E+00  0.00000000000E+00  0.97641795898E+03  0.97641795898E+03  0.00000000000E+00 0.  1.
         21   -1    0    0  502  503 -0.00000000000E+00 -0.00000000000E+00 -0.11253536205E+03  0.11253536205E+03  0.00000000000E+00 0.  1.
         -6    2    1    2    0  503 -0.20001751377E+03 -0.20239113868E+03  0.43201446281E+03  0.54460149955E+03  0.17025016419E+03 0.  0.
        -24    2    3    3    0    0 -0.18985836985E+02 -0.62550284944E+02  0.10794380800E+03  0.14790033787E+03  0.77133936132E+02 0.  0.
          6    2    1    2  501    0  0.20001751377E+03  0.20239113868E+03  0.43186813412E+03  0.54435182148E+03  0.16982238206E+03 0.  0.
         24    2    5    5    0    0  0.11125031573E+03  0.44807930250E+02  0.24166610856E+03  0.28184280534E+03  0.81538184510E+02 0.  0.
          5    1    5    5  501    0  0.88767198048E+02  0.15758320843E+03  0.19020202556E+03  0.26250901614E+03  0.47000000000E+01 0. -1.
        -13    1    6    6    0    0  0.33394176914E+02 -0.19734339204E+02  0.10419200849E+03  0.11117818954E+03  0.00000000000E+00 0.  1.
         14    1    6    6    0    0  0.77856138812E+02  0.64542269455E+02  0.13747410007E+03  0.17066461580E+03  0.00000000000E+00 0. -1.
         -5    1    3    3    0  503 -0.18103167679E+03 -0.13984085373E+03  0.32407065481E+03  0.39670116168E+03  0.47000000000E+01 0.  1.
         13    1    4    4    0    0 -0.16762373760E+02 -0.16325372862E+02  0.97751447467E+02  0.10051288701E+03  0.00000000000E+00 0. -1.
        -14    1    4    4    0    0 -0.22234632254E+01 -0.46224912083E+02  0.10192360536E+02  0.47387450861E+02  0.00000000000E+00 0.  1.
</event>
<event>
12    1  0.1046899E+000  0.2561273E+03  0.7818608E-02  0.1109572E+00
         21   -1    0    0  501  502  0.00000000000E+00  0.00000000000E+00  0.43307259678E+03  0.43307259678E+03  0.00000000000E+00 0.  1.
         21   -1    0    0  502  503 -0.00000000000E+00 -0.00000000000E+00 -0.20134885404E+03  0.20134885404E+03  0.00000000000E+00 0.  1.
         -6    2    1    2    0  503  0.15040200401E+03 -0.11350587563E+03  0.27429847429E+03  0.37528768961E+03  0.17348443838E+03 0.  0.
        -24    2    3    3    0    0  0.61436287927E+02 -0.20602726190E+02  0.20828032845E+03  0.23062816039E+03  0.74898353402E+02 0.  0.
          6    2    1    2  501    0 -0.15040200401E+03  0.11350587563E+03 -0.42574731550E+02  0.25913376121E+03  0.17272333895E+03 0.  0.
         24    2    5    5    0    0 -0.13359606690E+03  0.24751943185E+02 -0.56980193949E+02  0.16754059884E+03  0.79765543766E+02 0.  0.
          5    1    5    5  501    0 -0.16805937103E+02  0.88753932446E+02  0.14405462399E+02  0.91593162373E+02  0.47000000000E+01 0. -1.
        -11    1    6    6    0    0 -0.65823238654E+02  0.51903604164E+02 -0.22462903826E+02  0.86782860752E+02  0.00000000000E+00 0.  1.
         12    1    6    6    0    0 -0.67772828250E+02 -0.27151660979E+02 -0.34517290123E+02  0.80757738084E+02  0.00000000000E+00 0. -1.
         -5    1    3    3    0  503  0.88965716081E+02 -0.92903149442E+02  0.66018145839E+02  0.14465952922E+03  0.47000000000E+01 0.  1.
         11    1    4    4    0    0  0.12843588593E+02  0.21952068259E+02  0.22563967053E+02  0.33999759969E+02  0.00000000000E+00 0. -1.
        -12    1    4    4    0    0  0.48592699333E+02 -0.42554794449E+02  0.18571636140E+03  0.19662840042E+03  0.00000000000E+00 0.  1.
</event>
<event>
12    1  0.1046899E+000  0.2135267E+03  0.7818608E-02  0.1139192E+00
         21   -1    0    0  503  502  0.00000000000E+00  0.00000000000E+00  0.15763555361E+03  0.15763555361E+03  0.00000000000E+00 0.  1.
         21   -1    0    0  501  503 -0.00000000000E+00 -0.00000000000E+00 -0.29109069040E+03  0.29109069040E+03  0.00000000000E+00 0.  1.
          6    2    1    2  501    0  0.64227226419E+02 -0.10922668553E+03 -0.38361219132E+02  0.21498168601E+03  0.16938104008E+03 0.  0.
         24    2    3    3    0    0  0.18462568915E+02 -0.83663312405E+02 -0.84997689420E+02  0.14466141665E+03  0.79761531870E+02 0.  0.
         -6    2    1    2    0  502 -0.64227226419E+02  0.10922668553E+03 -0.95093917657E+02  0.23374455801E+03  0.17186640095E+03 0.  0.
        -24    2    5    5    0    0 -0.40514322251E+02  0.84259590657E+02 -0.13399222274E+03  0.18158302248E+03  0.79229977744E+02 0.  0.
          5    1    3    3  501    0  0.45764657504E+02 -0.25563373127E+02  0.46636470288E+02  0.70320269361E+02  0.47000000000E+01 0. -1.
        -13    1    4    4    0    0 -0.23929174112E+02 -0.69418131337E+01 -0.37338953324E+02  0.44888657572E+02  0.00000000000E+00 0.  1.
         14    1    4    4    0    0  0.42391743027E+02 -0.76721499271E+02 -0.47658736096E+02  0.99772759076E+02  0.00000000000E+00 0. -1.
         -5    1    5    5    0  502 -0.23712904168E+02  0.24967094875E+02  0.38898305081E+02  0.52161535529E+02  0.47000000000E+01 0.  1.
         13    1    6    6    0    0 -0.64654026694E+02  0.60897900258E+02 -0.10100502163E+03  0.13450171679E+03  0.00000000000E+00 0. -1.
        -14    1    6    6    0    0  0.24139704443E+02  0.23361690399E+02 -0.32987201103E+02  0.47081305691E+02  0.00000000000E+00 0.  1.
</event>
<event>
12    1  0.1046899E+000  0.3030553E+03  0.7818608E-02  0.1084013E+00
         21   -1    0    0  503  502  0.00000000000E+00  0.00000000000E+00  0.24508877007E+04  0.24508877007E+04  0.00000000000E+00 0.  1.
         21   -1    0    0  501  503 -0.00000000000E+00 -0.00000000000E+00 -0.38402098538E+02  0.38402098538E+02  0.00000000000E+00 0.  1.
          6    2    1    2  501    0  0.21998487121E+03 -0.11963010768E+03  0.14323549838E+04  0.14640639669E+04  0.17069795953E+03 0.  0.
         24    2    3    3    0    0  0.19420778971E+03 -0.34125567758E+02  0.97016650218E+03  0.99330312868E+03  0.80912567221E+02 0.  0.
         -6    2    1    2    0  502 -0.21998487121E+03  0.11963010768E+03  0.98013061842E+03  0.10252258324E+04  0.16651508033E+03 0.  0.
        -24    2    5    5    0    0 -0.86353985302E+02  0.20807803516E+02  0.29371124334E+03  0.31895625923E+03  0.87044961778E+02 0.  0.
          5    1    3    3  501    0  0.25777081505E+02 -0.85504539923E+02  0.46218848158E+03  0.47076083820E+03  0.47000000000E+01 0. -1.
        -11    1    4    4    0    0 -0.76517684091E+01 -0.50746339848E+01  0.39268409768E+02  0.40327527516E+02  0.00000000000E+00 0.  1.
         12    1    4    4    0    0  0.20185955812E+03 -0.29050933773E+02  0.93089809241E+03  0.95297560116E+03  0.00000000000E+00 0. -1.
         -5    1    5    5    0  502 -0.13363088591E+03  0.98822304165E+02  0.68641937508E+03  0.70626957314E+03  0.47000000000E+01 0.  1.
         11    1    6    6    0    0 -0.62345516130E+02  0.53129848266E+02  0.22324387795E+03  0.23779733641E+03  0.00000000000E+00 0. -1.
        -12    1    6    6    0    0 -0.24008469173E+02 -0.32322044750E+02  0.70467365389E+02  0.81158922823E+02  0.00000000000E+00 0.  1.
</event>
<event>
12    1  0.1046899E+000  0.2102919E+03  0.7818608E-02  0.1141872E+00
         21   -1    0    0  501  502  0.00000000000E+00  0.00000000000E+00  0.46698092991E+03  0.46698092991E+03  0.00000000000E+00 0.  1.
         21   -1    0    0  502  503 -0.00000000000E+00 -0.00000000000E+00 -0.18118678302E+03  0.18118678302E+03  0.00000000000E+00 0.  1.
         -6    2    1    2    0  503  0.11709820861E+03  0.23439190943E+02 -0.83046919204E+02  0.22358977730E+03  0.16980639444E+03 0.  0.
        -24    2    3    3    0    0  0.19123441911E+02  0.16129503180E+02  0.16073401643E+02  0.83949473488E+02  0.78506642746E+02 0.  0.
          6    2    1    2  501    0 -0.11709820861E+03 -0.23439190943E+02  0.36884106609E+03  0.42457793563E+03  0.17309334261E+03 0.  0.
         24    2    5    5    0    0 -0.97469812246E+02  0.72729085505E+01  0.12643100096E+03  0.17939792691E+03  0.81520296103E+02 0.  0.
          5    1    5    5  501    0 -0.19628396363E+02 -0.30712099493E+02  0.24241006513E+03  0.24518000872E+03  0.47000000000E+01 0. -1.
        -11    1    6    6    0    0 -0.69855401358E+02  0.42937585099E+02  0.85981206436E+02  0.11881153636E+03  0.00000000000E+00 0.  1.
         12    1    6    6    0    0 -0.27614410889E+02 -0.35664676548E+02  0.40449794524E+02  0.60586390543E+02  0.00000000000E+00 0. -1.
         -5    1    3    3    0  503  0.97974766698E+02  0.73096877623E+01 -0.99120320847E+02  0.13964030381E+03  0.47000000000E+01 0.  1.
         13    1    4    4    0    0 -0.10517501249E+02  0.19486653250E+02 -0.24864858462E+02  0.33295775613E+02  0.00000000000E+00 0. -1.
        -14    1    4    4    0    0  0.29640943160E+02 -0.33571500692E+01  0.40938260104E+02  0.50653697874E+02  0.00000000000E+00 0.  1.
</event>
<event>
12    1  0.1046899E+000  0.1943252E+03  0.7818608E-02  0.1155671E+00
         21   -1    0    0  503  502  0.00000000000E+00  0.00000000000E+00  0.23017679694E+03  0.23017679694E+03  0.00000000000E+00 0.  1.
         21   -1    0    0  501  503 -0.00000000000E+00 -0.00000000000E+00 -0.34251899048E+03  0.34251899048E+03  0.00000000000E+00 0.  1.
          6    2    1    2  501    0 -0.20034739853E+02  0.88179578393E+02  0.15313249087E+03  0.24369869678E+03  0.16662072562E+03 0.  0.
         24    2    3    3    0    0 -0.24896074541E+02  0.12423165911E+03  0.13948480102E+03  0.20456131647E+03  0.79599012730E+02 0.  0.
         -6    2    1    2    0  502  0.20034739853E+02 -0.88179578393E+02 -0.26547468440E+03  0.32899709064E+03  0.17200363003E+03 0.  0.
        -24    2    5    5    0    0  0.61626939003E+02 -0.95541172831E+02 -0.24469869421E+03  0.28169132068E+03  0.80910777294E+02 0.  0.
          5    1    3    3  501    0  0.48613346883E+01 -0.36052080721E+02  0.13647689852E+02  0.39137380310E+02  0.47000000000E+01 0. -1.
        -11    1    4    4    0    0 -0.13064109414E+02  0.96066617699E+01 -0.74368335851E+01  0.17839994364E+02  0.00000000000E+00 0.  1.
         12    1    4    4    0    0 -0.11831965127E+02  0.11462499734E+03  0.14692163460E+03  0.18672132211E+03  0.00000000000E+00 0. -1.
         -5    1    5    5    0  502 -0.41592199151E+02  0.73615944379E+01 -0.20775990195E+02  0.47305769959E+02  0.47000000000E+01 0.  1.
         11    1    6    6    0    0  0.57469611565E+02 -0.97266885299E+02 -0.25023485348E+03  0.27455616024E+03  0.00000000000E+00 0. -1.
        -12    1    6    6    0    0  0.41573274378E+01  0.17257124682E+01  0.55361592750E+01  0.71351604373E+01  0.00000000000E+00 0.  1.
</event>
<event>
12    1  0.1046899E+000  0.2021176E+03  0.7818608E-02  0.1148044E+00
         21   -1    0    0  503  502  0.00000000000E+00  0.00000000000E+00  0.11851194959E+03  0.11851194959E+03  0.00000000000E+00 0. -1.
         21   -1    0    0  501  503 -0.00000000000E+00 -0.00000000000E+00 -0.35442769912E+03  0.35442769912E+03  0.00000000000E+00 0. -1.
          6    2    1    2  501    0 -0.60131436107E+02  0.88173304788E+02 -0.77396032533E+02  0.21607391035E+03  0.17119423938E+03 0.  0.
         24    2    3    3    0    0  0.32879501135E+02  0.42019380623E+02 -0.52124917452E+02  0.10910691348E+03  0.79628020233E+02 0.  0.
         -6    2    1    2    0  502  0.60131436107E+02 -0.88173304788E+02 -0.15851971700E+03  0.25686573836E+03  0.17164261004E+03 0.  0.
        -24    2    5    5    0    0  0.31810611620E+02 -0.83152631221E+02 -0.27872634958E+02  0.12300750624E+03  0.80172861494E+02 0.  0.
          5    1    3    3  501    0 -0.93010937242E+02  0.46153924165E+02 -0.25271115080E+02  0.10696699687E+03  0.47000000000E+01 0. -1.
        -13    1    4    4    0    0  0.51145155169E+02  0.30888660983E+01 -0.38182942923E+02  0.63900744293E+02  0.00000000000E+00 0.  1.
         14    1    4    4    0    0 -0.18265654034E+02  0.38930514525E+02 -0.13941974530E+02  0.45206169183E+02  0.00000000000E+00 0. -1.
         -5    1    5    5    0  502  0.28320824486E+02 -0.50206735671E+01 -0.13064708204E+03  0.13385823213E+03  0.47000000000E+01 0.  1.
         13    1    6    6    0    0 -0.14762109642E+02  0.28947199549E+01 -0.19752438766E+02  0.24828574705E+02  0.00000000000E+00 0. -1.
        -14    1    6    6    0    0  0.46572721262E+02 -0.86047351176E+02 -0.81201961921E+01  0.98178931530E+02  0.00000000000E+00 0.  1.
</event>
<event>
12    1  0.1046899E+000  0.1787756E+03  0.7818608E-02  0.1170068E+00
         21   -1    0    0  501  502  0.00000000000E+00  0.00000000000E+00  0.20579932703E+03  0.20579932703E+03  0.00000000000E+00 0. -1.
         21   -1    0    0  502  503 -0.00000000000E+00 -0.00000000000E+00 -0.27241629031E+03  0.27241629031E+03  0.00000000000E+00 0. -1.
         -6    2    1    2    0  503 -0.48636247025E+02  0.16295851537E+01 -0.19279842916E+03  0.26292953575E+03  0.17202490054E+03 0.  0.
        -24    2    3    3    0    0 -0.38391626350E+02  0.63893440680E+02 -0.87074227370E+02  0.13971656239E+03  0.79890600190E+02 0.  0.
          6    2    1    2  501    0  0.48636247025E+02 -0.16295851537E+01  0.12618146588E+03  0.21528608159E+03  0.16750580445E+03 0.  0.
         24    2    5    5    0    0 -0.46478659793E+01  0.35226693280E+02  0.12196779681E+03  0.15019055974E+03  0.80115779962E+02 0.  0.
          5    1    5    5  501    0  0.53284113004E+02 -0.36856278434E+02  0.42136690755E+01  0.65095521856E+02  0.47000000000E+01 0. -1.
        -13    1    6    6    0    0  0.28744323601E+02  0.11880401791E+02  0.98228540366E+02  0.10303507281E+03  0.00000000000E+00 0.  1.
         14    1    6    6    0    0 -0.33392189580E+02  0.23346291489E+02  0.23739256439E+02  0.47155486929E+02  0.00000000000E+00 0. -1.
         -5    1    3    3    0  503 -0.10244620675E+02 -0.62263855527E+02 -0.10572420179E+03  0.12321297335E+03  0.47000000000E+01 0.  1.
         11    1    4    4    0    0  0.59843701031E+01  0.34150465399E+01  0.12962348919E+02  0.14679840527E+02  0.00000000000E+00 0. -1.
        -12    1    4    4    0    0 -0.44375996453E+02  0.60478394141E+02 -0.10003657629E+03  0.12503672186E+03  0.00000000000E+00 0.  1.
</event>
<event>
12    1  0.1046899E+000  0.4974781E+03  0.7818608E-02  0.1014457E+00
         21   -1    0    0  503  502  0.00000000000E+00  0.00000000000E+00  0.34051792639E+03  0.34051792639E+03  0.00000000000E+00 0.  1.
         21   -1    0    0  501  503 -0.00000000000E+00 -0.00000000000E+00 -0.73068713777E+03  0.73068713777E+03  0.00000000000E+00 0.  1.
          6    2    1    2  501    0  0.45840202897E+03  0.88265782444E+02 -0.15402915414E+03  0.52052672679E+03  0.17117191494E+03 0.  0.
         24    2    3    3    0    0  0.14828217265E+03 -0.16510889962E+02 -0.43467778724E+02  0.17498601414E+03  0.80439077226E+02 0.  0.
         -6    2    1    2    0  502 -0.45840202897E+03 -0.88265782444E+02 -0.23614005723E+03  0.55067833737E+03  0.17193381314E+03 0.  0.
        -24    2    5    5    0    0 -0.32015447421E+03 -0.21584174127E+02 -0.21787373540E+03  0.39603496765E+03  0.80062270097E+02 0.  0.
          5    1    3    3  501    0  0.31011985632E+03  0.10477667241E+03 -0.11056137542E+03  0.34554071265E+03  0.47000000000E+01 0. -1.
        -11    1    4    4    0    0  0.75348832319E+02 -0.15373435736E+01 -0.62757783428E+02  0.98073183582E+02  0.00000000000E+00 0.  1.
         12    1    4    4    0    0  0.72933340332E+02 -0.14973546389E+02  0.19290004704E+02  0.76912830561E+02  0.00000000000E+00 0. -1.
         -5    1    5    5    0  502 -0.13824755476E+03 -0.66681608316E+02 -0.18266321829E+02  0.15464336972E+03  0.47000000000E+01 0.  1.
         13    1    6    6    0    0 -0.73258821536E+02 -0.39379007010E+02 -0.53426527314E+02  0.98853198971E+02  0.00000000000E+00 0. -1.
        -14    1    6    6    0    0 -0.24689565267E+03  0.17794832883E+02 -0.16444720809E+03  0.29718176868E+03  0.00000000000E+00 0.  1.
</event>
<event>
12    1  0.1046899E+000  0.1814372E+03  0.7818608E-02  0.1166856E+00
         21   -1    0    0  503  502  0.00000000000E+00  0.00000000000E+00  0.22552529360E+03  0.22552529360E+03  0.00000000000E+00 0.  1.
         21   -1    0    0  501  503 -0.00000000000E+00 -0.00000000000E+00 -0.15226226871E+03  0.15226226871E+03  0.00000000000E+00 0.  1.
          6    2    1    2  501    0  0.54636314825E+02 -0.35140021552E+01 -0.58058440379E+01  0.18153006985E+03  0.17297971940E+03 0.  0.
         24    2    3    3    0    0 -0.95789249515E+01  0.48304145100E+02 -0.25404858102E+02  0.96589333114E+02  0.79114134130E+02 0.  0.
         -6    2    1    2    0  502 -0.54636314825E+02  0.35140021552E+01  0.79068868928E+02  0.19625749247E+03  0.17107788346E+03 0.  0.
        -24    2    5    5    0    0 -0.41764483552E+02  0.17823811770E+02  0.11980522704E+03  0.15095853483E+03  0.79832489997E+02 0.  0.
          5    1    3    3  501    0  0.64215239777E+02 -0.51818147255E+02  0.19599014064E+02  0.84940736733E+02  0.47000000000E+01 0. -1.
        -11    1    4    4    0    0  0.57309482067E+01 -0.11973028479E+01  0.24175687577E+02  0.24874508463E+02  0.00000000000E+00 0.  1.
         12    1    4    4    0    0 -0.15309873158E+02  0.49501447947E+02 -0.49580545678E+02  0.71714824651E+02  0.00000000000E+00 0. -1.
         -5    1    5    5    0  502 -0.12871831273E+02 -0.14309809615E+02 -0.40736358109E+02  0.45298957643E+02  0.47000000000E+01 0.  1.
         13    1    6    6    0    0 -0.51899603381E+02 -0.17045360836E+02  0.82082229075E+02  0.98598202251E+02  0.00000000000E+00 0. -1.
        -14    1    6    6    0    0  0.10135119829E+02  0.34869172606E+02  0.37722997961E+02  0.52360332575E+02  0.00000000000E+00 0.  1.
</event>
<event>
12    1  0.1046899E+000  0.3638497E+03  0.7818608E-02  0.1057139E+00
         21   -1    0    0  503  502  0.00000000000E+00  0.00000000000E+00  0.51277141622E+03  0.51277141622E+03  0.00000000000E+00 0. -1.
         21   -1    0    0  501  503 -0.00000000000E+00 -0.00000000000E+00 -0.38897391087E+03  0.38897391087E+03  0.00000000000E+00 0. -1.
          6    2    1    2  501    0 -0.62878795897E+02  0.31413885462E+03 -0.20009384117E+03  0.41461884150E+03  0.17098033656E+03 0.  0.
         24    2    3    3    0    0  0.22943129044E+02  0.21562073112E+03 -0.10679674948E+03  0.25400233930E+03  0.78057387927E+02 0.  0.
         -6    2    1    2    0  502  0.62878795897E+02 -0.31413885462E+03  0.32389134652E+03  0.48712648560E+03  0.17248085593E+03 0.  0.
        -24    2    5    5    0    0  0.83430888925E+01 -0.14818909242E+03  0.23944963357E+03  0.29304928498E+03  0.80697844867E+02 0.  0.
          5    1    3    3  501    0 -0.85821924942E+02  0.98518123501E+02 -0.93297091699E+02  0.16061650220E+03  0.47000000000E+01 0. -1.
        -11    1    4    4    0    0 -0.24249840213E+02  0.92649335806E+02 -0.25091554533E+02  0.99002728672E+02  0.00000000000E+00 0.  1.
         12    1    4    4    0    0  0.47192969258E+02  0.12297139532E+03 -0.81705194943E+02  0.15499961063E+03  0.00000000000E+00 0. -1.
         -5    1    5    5    0  502  0.54535707005E+02 -0.16594976220E+03  0.84441712952E+02  0.19407720062E+03  0.47000000000E+01 0.  1.
         11    1    6    6    0    0  0.30318908465E+02 -0.12874078144E+03  0.22335884888E+03  0.25958158715E+03  0.00000000000E+00 0. -1.
        -12    1    6    6    0    0 -0.21975819573E+02 -0.19448310987E+02  0.16090784691E+02  0.33467697831E+02  0.00000000000E+00 0.  1.
</event>
<event>
12    1  0.1046899E+000  0.2230366E+03  0.7818608E-02  0.1132736E+00
         21   -1    0    0  501  502  0.00000000000E+00  0.00000000000E+00  0.56609864157E+02  0.56609864157E+02  0.00000000000E+00 0. -1.
         21   -1    0    0  502  503 -0.00000000000E+00 -0.00000000000E+00 -0.95398525746E+03  0.95398525746E+03  0.00000000000E+00 0. -1.
         -6    2    1    2    0  503  0.39259172303E+02 -0.13708154570E+03 -0.29184748513E+03  0.36731493359E+03  0.17150123347E+03 0.  0.
        -24    2    3    3    0    0  0.81006101580E+02 -0.10564278383E+03 -0.15122613945E+03  0.21722277952E+03  0.81203475433E+02 0.  0.
          6    2    1    2  501    0 -0.39259172303E+02  0.13708154570E+03 -0.60552790818E+03  0.64328018803E+03  0.16374590055E+03 0.  0.
         24    2    5    5    0    0 -0.56936102392E+02  0.12934291942E+03 -0.60141907582E+03  0.62299884938E+03  0.80320302621E+02 0.  0.
          5    1    5    5  501    0  0.17676930089E+02  0.77386262787E+01 -0.41088323624E+01  0.20281338650E+02  0.47000000000E+01 0. -1.
        -11    1    6    6    0    0 -0.11829754588E+02  0.11408278083E+03 -0.43997150726E+03  0.45467543498E+03  0.00000000000E+00 0.  1.
         12    1    6    6    0    0 -0.45106347804E+02  0.15260138595E+02 -0.16144756856E+03  0.16832341440E+03  0.00000000000E+00 0. -1.
         -5    1    3    3    0  503 -0.41746929277E+02 -0.31438761877E+02 -0.14062134568E+03  0.15009215407E+03  0.47000000000E+01 0.  1.
         13    1    4    4    0    0 -0.13274511024E+02 -0.82741062399E+01 -0.22229032603E+01  0.15799201749E+02  0.00000000000E+00 0. -1.
        -14    1    4    4    0    0  0.94280612604E+02 -0.97368677587E+02 -0.14900323619E+03  0.20142357777E+03  0.00000000000E+00 0.  1.
</event>
<event>
12    1  0.1046899E+000  0.1824247E+03  0.7818608E-02  0.1165804E+00
         21   -1    0    0  503  502  0.00000000000E+00  0.00000000000E+00  0.42377160323E+02  0.42377160323E+02  0.00000000000E+00 0.  1.
         21   -1    0    0  501  503 -0.00000000000E+00 -0.00000000000E+00 -0.78786525308E+03  0.78786525308E+03  0.00000000000E+00 0.  1.
          6    2    1    2  501    0  0.55031710023E+02 -0.88517186981E+01 -0.41435005827E+03  0.45218004534E+03  0.17226137286E+03 0.  0.
         24    2    3    3    0    0  0.71982885112E+02 -0.51775809307E+02 -0.36622497689E+03  0.38533744403E+03  0.80634619701E+02 0.  0.
         -6    2    1    2    0  502 -0.55031710023E+02  0.88517186981E+01 -0.33113803448E+03  0.37806236806E+03  0.17370064546E+03 0.  0.
        -24    2    5    5    0    0 -0.79033904509E+02 -0.32591786796E+02 -0.14939858150E+03  0.19005973974E+03  0.80586511811E+02 0.  0.
          5    1    3    3  501    0 -0.16951175089E+02  0.42924090609E+02 -0.48125081377E+02  0.66842601304E+02  0.47000000000E+01 0. -1.
        -13    1    4    4    0    0  0.58519904782E+01  0.13093504724E+02 -0.10569231134E+02  0.17815563569E+02  0.00000000000E+00 0.  1.
         14    1    4    4    0    0  0.66130894634E+02 -0.64869314031E+02 -0.35565574576E+03  0.36752188046E+03  0.00000000000E+00 0. -1.
         -5    1    5    5    0  502  0.24002194486E+02  0.41443505494E+02 -0.18173945298E+03  0.18800262832E+03  0.47000000000E+01 0.  1.
         13    1    6    6    0    0  0.11504761381E+02 -0.23244129558E+02 -0.25999214347E+02  0.36723401803E+02  0.00000000000E+00 0. -1.
        -14    1    6    6    0    0 -0.90538665890E+02 -0.93476572383E+01 -0.12339936716E+03  0.15333633794E+03  0.00000000000E+00 0.  1.
</event>
<event>
12    1  0.1046899E+000  0.1777613E+03  0.7818608E-02  0.1170302E+00
         21   -1    0    0  501  502  0.00000000000E+00  0.00000000000E+00  0.21055800479E+03  0.21055800479E+03  0.00000000000E+00 0.  1.
         21   -1    0    0  502  503 -0.00000000000E+00 -0.00000000000E+00 -0.25420760588E+03  0.25420760588E+03  0.00000000000E+00 0.  1.
         -6    2    1    2    0  503  0.47346834747E+00  0.45957170346E+02  0.12771843609E+03  0.21785250835E+03  0.17039786031E+03 0.  0.
        -24    2    3    3    0    0  0.53327023515E+02  0.55505936607E+02  0.55581755842E+02  0.12779437230E+03  0.85541741707E+02 0.  0.
          6    2    1    2  501    0 -0.47346834747E+00 -0.45957170346E+02 -0.17136803717E+03  0.24691310233E+03  0.17171718102E+03 0.  0.
         24    2    5    5    0    0  0.40805969387E+02  0.26721580034E+02 -0.88550426661E+02  0.12915470837E+03  0.80377799516E+02 0.  0.
          5    1    5    5  501    0 -0.41279437734E+02 -0.72678750381E+02 -0.82817610514E+02  0.11775839396E+03  0.47000000000E+01 0. -1.
        -13    1    6    6    0    0  0.55350432254E+02  0.32319149506E+01 -0.84737573368E+02  0.10126486047E+03  0.00000000000E+00 0.  1.
         14    1    6    6    0    0 -0.14544462867E+02  0.23489665084E+02 -0.38128532926E+01  0.27889847903E+02  0.00000000000E+00 0. -1.
         -5    1    3    3    0  503 -0.52853555168E+02 -0.95487662602E+01  0.72136680246E+02  0.90058136045E+02  0.47000000000E+01 0.  1.
         13    1    4    4    0    0  0.23900122063E+01  0.74035910239E+01 -0.21955703221E+02  0.23293308531E+02  0.00000000000E+00 0. -1.
        -14    1    4    4    0    0  0.50937011309E+02  0.48102345583E+02  0.77537459062E+02  0.10450106377E+03  0.00000000000E+00 0.  1.
</event>
<event>
12    1  0.1046899E+000  0.3457786E+03  0.7818608E-02  0.1064366E+00
         21   -1    0    0  501  502  0.00000000000E+00  0.00000000000E+00  0.91408649492E+02  0.91408649492E+02  0.00000000000E+00 0.  1.
         21   -1    0    0  502  503 -0.00000000000E+00 -0.00000000000E+00 -0.14561570190E+04  0.14561570190E+04  0.00000000000E+00 0.  1.
         -6    2    1    2    0  503  0.84670625951E+02 -0.28742706705E+03 -0.92929756369E+03  0.99152586949E+03  0.17247073437E+03 0.  0.
        -24    2    3    3    0    0  0.83143263659E+02 -0.24074781940E+03 -0.89313311780E+03  0.93227013438E+03  0.81046421972E+02 0.  0.
          6    2    1    2  501    0 -0.84670625951E+02  0.28742706705E+03 -0.43545080585E+03  0.55603979903E+03  0.17256714642E+03 0.  0.
         24    2    5    5    0    0 -0.74768499058E+02  0.23372611818E+03 -0.23921040022E+03  0.35228938596E+03  0.81657633544E+02 0.  0.
          5    1    5    5  501    0 -0.99021268932E+01  0.53700948874E+02 -0.19624040563E+03  0.20375041308E+03  0.47000000000E+01 0. -1.
        -11    1    6    6    0    0 -0.32274387921E+02  0.16609033815E+02 -0.23145085411E+02  0.43048706121E+02  0.00000000000E+00 0.  1.
         12    1    6    6    0    0 -0.42494111136E+02  0.21711708436E+03 -0.21606531481E+03  0.30924067984E+03  0.00000000000E+00 0. -1.
         -5    1    3    3    0  503  0.15273622924E+01 -0.46679247649E+02 -0.36164445897E+02  0.59255735112E+02  0.47000000000E+01 0.  1.
         11    1    4    4    0    0 -0.33501973116E+00 -0.73935235401E+02 -0.16839023431E+03  0.18390704794E+03  0.00000000000E+00 0. -1.
        -12    1    4    4    0    0  0.83478283390E+02 -0.16681258400E+03 -0.72474288348E+03  0.74836308643E+03  0.00000000000E+00 0.  1.
</event>
<event>
12    1  0.1046899E+000  0.2437690E+03  0.7818608E-02  0.1117435E+00
         21   -1    0    0  503  502  0.00000000000E+00  0.00000000000E+00  0.82143146666E+02  0.82143146666E+02  0.00000000000E+00 0.  1.
         21   -1    0    0  501  503 -0.00000000000E+00 -0.00000000000E+00 -0.11016134591E+04  0.11016134591E+04  0.00000000000E+00 0.  1.
          6    2    1    2  501    0 -0.13879333106E+03  0.10337548579E+03 -0.85813134036E+03  0.89208337148E+03  0.17167779284E+03 0.  0.
         24    2    3    3    0    0 -0.12399998159E+03  0.11228117228E+03 -0.85361830676E+03  0.87362769721E+03  0.81105379694E+02 0.  0.
         -6    2    1    2    0  502  0.13879333106E+03 -0.10337548579E+03 -0.16133897207E+03  0.29167323428E+03  0.17056650281E+03 0.  0.
        -24    2    5    5    0    0  0.13412576825E+03 -0.12189481483E+03 -0.17763577300E+03  0.26613057562E+03  0.80143295668E+02 0.  0.
          5    1    3    3  501    0 -0.14793349468E+02 -0.89056864917E+01 -0.45130335966E+01  0.18455674266E+02  0.47000000000E+01 0. -1.
        -13    1    4    4    0    0 -0.90740893720E+01  0.11033048404E+02 -0.26576879931E+03  0.26615244117E+03  0.00000000000E+00 0.  1.
         14    1    4    4    0    0 -0.11492589222E+03  0.10124812387E+03 -0.58784950745E+03  0.60747525604E+03  0.00000000000E+00 0. -1.
         -5    1    5    5    0  502  0.46675628112E+01  0.18519329048E+02  0.16296800927E+02  0.25542658660E+02  0.47000000000E+01 0.  1.
         11    1    6    6    0    0  0.12712880822E+03 -0.73656717851E+02 -0.15057245984E+03  0.21037849612E+03  0.00000000000E+00 0. -1.
        -12    1    6    6    0    0  0.69969600239E+01 -0.48238096984E+02 -0.27063313153E+02  0.55752079504E+02  0.00000000000E+00 0.  1.
</event>
<event>
12    1  0.1046899E+000  0.3315107E+03  0.7818608E-02  0.1070546E+00
         21   -1    0    0  503  502  0.00000000000E+00  0.00000000000E+00  0.23762157540E+03  0.23762157540E+03  0.00000000000E+00 0.  1.
         21   -1    0    0  501  503 -0.00000000000E+00 -0.00000000000E+00 -0.52035129873E+03  0.52035129873E+03  0.00000000000E+00 0. -1.
          6    2    1    2  501    0  0.16647408630E+03  0.22885157248E+03 -0.14087448721E+02  0.33180992673E+03  0.17266356775E+03 0.  0.
         24    2    3    3    0    0  0.18093551352E+03  0.17708325508E+03 -0.43023170057E+02  0.27058527865E+03  0.85259958821E+02 0.  0.
         -6    2    1    2    0  502 -0.16647408630E+03 -0.22885157248E+03 -0.26864227460E+03  0.42616294740E+03  0.17134620626E+03 0.  0.
        -24    2    5    5    0    0 -0.71663375950E+02 -0.94402467305E+02 -0.20402888505E+03  0.24935058135E+03  0.80625437670E+02 0.  0.
          5    1    3    3  501    0 -0.14461427216E+02  0.51768317401E+02  0.28935721336E+02  0.61224648083E+02  0.47000000000E+01 0. -1.
        -11    1    4    4    0    0  0.15216739449E+03  0.15432338813E+03 -0.36300665235E+01  0.21675747150E+03  0.00000000000E+00 0.  1.
         12    1    4    4    0    0  0.28768119028E+02  0.22759866946E+02 -0.39393103533E+02  0.53827807143E+02  0.00000000000E+00 0. -1.
         -5    1    5    5    0  502 -0.94810710351E+02 -0.13444910517E+03 -0.64613389549E+02  0.17681236605E+03  0.47000000000E+01 0.  1.
         13    1    6    6    0    0  0.62643099729E+01 -0.89278091073E+00 -0.61894159760E+02  0.62216763413E+02  0.00000000000E+00 0. -1.
        -14    1    6    6    0    0 -0.77927685923E+02 -0.93509686395E+02 -0.14213472529E+03  0.18713381794E+03  0.00000000000E+00 0.  1.
</event>
<event>
12    1  0.1046899E+000  0.2328778E+03  0.7818608E-02  0.1124860E+00
         21   -1    0    0  501  502  0.00000000000E+00  0.00000000000E+00  0.13773979714E+03  0.13773979714E+03  0.00000000000E+00 0. -1.
         21   -1    0    0  502  503 -0.00000000000E+00 -0.00000000000E+00 -0.40926556341E+03  0.40926556341E+03  0.00000000000E+00 0. -1.
         -6    2    1    2    0  503 -0.12983291535E+02 -0.15501889311E+03 -0.19238071701E+03  0.30104597253E+03  0.17151942811E+03 0.  0.
        -24    2    3    3    0    0  0.32284782590E+02 -0.20954348659E+02 -0.92981847231E+02  0.12805832578E+03  0.79195447934E+02 0.  0.
          6    2    1    2  501    0  0.12983291535E+02  0.15501889311E+03 -0.79145049260E+02  0.24595938802E+03  0.17329933252E+03 0.  0.
         24    2    5    5    0    0  0.24448495257E+02  0.12966895022E+03  0.82569172930E+01  0.15411569331E+03  0.79194094918E+02 0.  0.
          5    1    5    5  501    0 -0.11465203723E+02  0.25349942890E+02 -0.87401966553E+02  0.91843694712E+02  0.47000000000E+01 0. -1.
        -13    1    6    6    0    0  0.38270481856E+02  0.81167076818E+02 -0.25666194651E+02  0.93335297120E+02  0.00000000000E+00 0.  1.
         14    1    6    6    0    0 -0.13821986598E+02  0.48501873399E+02  0.33923111944E+02  0.60780396188E+02  0.00000000000E+00 0. -1.
         -5    1    3    3    0  503 -0.45268074125E+02 -0.13406454445E+03 -0.99398869782E+02  0.17298764675E+03  0.47000000000E+01 0.  1.
         11    1    4    4    0    0  0.51924453795E+02 -0.97465553955E+01 -0.91172428530E+02  0.10537341205E+03  0.00000000000E+00 0. -1.
        -12    1    4    4    0    0 -0.19639671205E+02 -0.11207793264E+02 -0.18094187012E+01  0.22684913729E+02  0.00000000000E+00 0.  1.
</event>
<event>
12    1  0.1046899E+000  0.2906964E+03  0.7818608E-02  0.1090065E+00
         21   -1    0    0  501  502  0.00000000000E+00  0.00000000000E+00  0.28040829658E+03  0.28040829658E+03  0.00000000000E+00 0.  1.
         21   -1    0    0  502  503 -0.00000000000E+00 -0.00000000000E+00 -0.34725030717E+03  0.34725030717E+03  0.00000000000E+00 0.  1.
         -6    2    1    2    0  503  0.23203274608E+03  0.33934829677E+02 -0.14825344423E+03  0.32577747898E+03  0.17076625594E+03 0.  0.
        -24    2    3    3    0    0  0.18608077152E+03  0.11734136368E+02 -0.17482381411E+03  0.26804941557E+03  0.80767442221E+02 0.  0.
          6    2    1    2  501    0 -0.23203274608E+03 -0.33934829677E+02  0.81411433637E+02  0.30188112477E+03  0.17179529694E+03 0.  0.
         24    2    5    5    0    0 -0.81452375460E+02 -0.53421561349E+02  0.80825029293E+02  0.14997123505E+03  0.80438381985E+02 0.  0.
          5    1    5    5  501    0 -0.15058037062E+03  0.19486731672E+02  0.58640434362E+00  0.15190988972E+03  0.47000000000E+01 0. -1.
        -13    1    6    6    0    0  0.88877170669E+00  0.16184138540E+02  0.21446626794E+02  0.26882597647E+02  0.00000000000E+00 0.  1.
         14    1    6    6    0    0 -0.82341147167E+02 -0.69605699889E+02  0.59378402500E+02  0.12308863740E+03  0.00000000000E+00 0. -1.
         -5    1    3    3    0  503  0.45951974556E+02  0.22200693309E+02  0.26570369883E+02  0.57728063407E+02  0.47000000000E+01 0.  1.
         11    1    4    4    0    0  0.14871758115E+03  0.42415091015E+02 -0.13814568284E+03  0.20736486823E+03  0.00000000000E+00 0. -1.
        -12    1    4    4    0    0  0.37363190375E+02 -0.30680954647E+02 -0.36678131273E+02  0.60684547347E+02  0.00000000000E+00 0.  1.
</event>
<event>
12    1  0.1046899E+000  0.2240889E+03  0.7818608E-02  0.1130921E+00
         21   -1    0    0  501  502  0.00000000000E+00  0.00000000000E+00  0.62833304295E+03  0.62833304295E+03  0.00000000000E+00 0. -1.
         21   -1    0    0  502  503 -0.00000000000E+00 -0.00000000000E+00 -0.10585175299E+03  0.10585175299E+03  0.00000000000E+00 0. -1.
         -6    2    1    2    0  503 -0.14220085809E+03 -0.16615834595E+02  0.44340176082E+03  0.49681080374E+03  0.17239107635E+03 0.  0.
        -24    2    3    3    0    0 -0.67732610302E+02  0.55380301545E+02  0.20920749575E+03  0.24068972428E+03  0.80678886942E+02 0.  0.
          6    2    1    2  501    0  0.14220085809E+03  0.16615834595E+02  0.79079529137E+02  0.23737399220E+03  0.17203392178E+03 0.  0.
         24    2    5    5    0    0  0.70488591860E+02 -0.55243753489E+02  0.43423136337E+02  0.12967107731E+03  0.83117420798E+02 0.  0.
          5    1    5    5  501    0  0.71712266230E+02  0.71859588085E+02  0.35656392800E+02  0.10770291489E+03  0.47000000000E+01 0. -1.
        -11    1    6    6    0    0 -0.18134563228E+02 -0.11257653529E+02  0.16938474532E+02  0.27249019540E+02  0.00000000000E+00 0.  1.
         12    1    6    6    0    0  0.88623155088E+02 -0.43986099961E+02  0.26484661805E+02  0.10242205777E+03  0.00000000000E+00 0. -1.
         -5    1    3    3    0  503 -0.74468247788E+02 -0.71996136141E+02  0.23419426507E+03  0.25612107945E+03  0.47000000000E+01 0.  1.
         13    1    4    4    0    0 -0.59091579993E+02 -0.16855005880E+01  0.12873658041E+03  0.14166073159E+03  0.00000000000E+00 0. -1.
        -14    1    4    4    0    0 -0.86410303083E+01  0.57065802133E+02  0.80470915343E+02  0.99028992694E+02  0.00000000000E+00 0.  1.
</event>
<event>
12    1  0.1046899E+000  0.2403579E+03  0.7818608E-02  0.1120234E+00
         21   -1    0    0  501  502  0.00000000000E+00  0.00000000000E+00  0.29018117389E+03  0.29018117389E+03  0.00000000000E+00 0. -1.
         21   -1    0    0  502  503 -0.00000000000E+00 -0.00000000000E+00 -0.19812201612E+03  0.19812201612E+03  0.00000000000E+00 0. -1.
         -6    2    1    2    0  503 -0.28722429365E+02  0.15958003251E+03  0.73126962501E+02  0.25123587589E+03  0.17742927595E+03 0.  0.
        -24    2    3    3    0    0 -0.48125043696E+02  0.13956063055E+03 -0.61085046823E+01  0.16710747904E+03  0.78066678481E+02 0.  0.
          6    2    1    2  501    0  0.28722429365E+02 -0.15958003251E+03  0.18932195268E+02  0.23706731412E+03  0.17190613335E+03 0.  0.
         24    2    5    5    0    0  0.32264122485E+02 -0.89161588212E+02  0.76386575414E+02  0.14599373571E+03  0.80551223147E+02 0.  0.
          5    1    5    5  501    0 -0.35416931198E+01 -0.70418444296E+02 -0.57454380146E+02  0.91073578414E+02  0.47000000000E+01 0. -1.
        -13    1    6    6    0    0  0.69710086482E+01 -0.63906217756E+02  0.29879606668E+01  0.64354700981E+02  0.00000000000E+00 0.  1.
         14    1    6    6    0    0  0.25293113837E+02 -0.25255370456E+02  0.73398614747E+02  0.81639034727E+02  0.00000000000E+00 0. -1.
         -5    1    3    3    0  503  0.19402614331E+02  0.20019401955E+02  0.79235467183E+02  0.84128396854E+02  0.47000000000E+01 0.  1.
         13    1    4    4    0    0 -0.32870172126E+01  0.71151223577E+02 -0.36269222210E+02  0.79929703980E+02  0.00000000000E+00 0. -1.
        -14    1    4    4    0    0 -0.44838026483E+02  0.68409406976E+02  0.30160717528E+02  0.87177775055E+02  0.00000000000E+00 0.  1.
</event>
<event>
12    1  0.1046899E+000  0.2248297E+03  0.7818608E-02  0.1130375E+00
         21   -1    0    0  501  502  0.00000000000E+00  0.00000000000E+00  0.15903853867E+03  0.15903853867E+03  0.00000000000E+00 0.  1.
         21   -1    0    0  502  503 -0.00000000000E+00 -0.00000000000E+00 -0.33448387058E+03  0.33448387058E+03  0.00000000000E+00 0.  1.
         -6    2    1    2    0  503 -0.14335387173E+03  0.17510139745E+02 -0.14335300809E+03  0.26664300026E+03  0.17231212124E+03 0.  0.
        -24    2    3    3    0    0 -0.85931550975E+02  0.50671304472E+02 -0.19234875159E+02  0.12584389980E+03  0.74262333290E+02 0.  0.
          6    2    1    2  501    0  0.14335387173E+03 -0.17510139745E+02 -0.32092323817E+02  0.22687940899E+03  0.17200991669E+03 0.  0.
         24    2    5    5    0    0  0.10848916243E+03 -0.10275957851E+02  0.44607233244E+02  0.14218706343E+03  0.79698570092E+02 0.  0.
          5    1    5    5  501    0  0.34864709302E+02 -0.72341818937E+01 -0.76699557061E+02  0.84692345556E+02  0.47000000000E+01 0. -1.
        -13    1    6    6    0    0  0.99388095173E+02 -0.37558049269E+02  0.35307933516E+02  0.11196093379E+03  0.00000000000E+00 0.  1.
         14    1    6    6    0    0  0.91010672566E+01  0.27282091417E+02  0.92992997278E+01  0.30226129635E+02  0.00000000000E+00 0. -1.
         -5    1    3    3    0  503 -0.57422320756E+02 -0.33161164727E+02 -0.12411813293E+03  0.14079910046E+03  0.47000000000E+01 0.  1.
         13    1    4    4    0    0 -0.52130250780E+02  0.47729867467E+02 -0.44516959676E+02  0.83531209698E+02  0.00000000000E+00 0. -1.
        -14    1    4    4    0    0 -0.33801300195E+02  0.29414370050E+01  0.25282084516E+02  0.42312690106E+02  0.00000000000E+00 0.  1.
</event>
<event>
12    1  0.1046899E+000  0.3315320E+03  0.7818608E-02  0.1070882E+00
         21   -1    0    0  501  502  0.00000000000E+00  0.00000000000E+00  0.13917139495E+04  0.13917139495E+04  0.00000000000E+00 0.  1.
         21   -1    0    0  502  503 -0.00000000000E+00 -0.00000000000E+00 -0.78666120208E+02  0.78666120208E+02  0.00000000000E+00 0.  1.
         -6    2    1    2    0  503 -0.10173329445E+02 -0.28230520087E+03  0.58890828166E+03  0.67395585056E+03  0.16614391721E+03 0.  0.
        -24    2    3    3    0    0 -0.34861899639E+02 -0.14878670350E+03  0.21774825992E+03  0.27871090577E+03  0.83142222217E+02 0.  0.
          6    2    1    2  501    0  0.10173329445E+02  0.28230520087E+03  0.72413954766E+03  0.79642421918E+03  0.17353307851E+03 0.  0.
         24    2    5    5    0    0 -0.48808545296E+02  0.16583836051E+03  0.52274885361E+03  0.55637487404E+03  0.80012502788E+02 0.  0.
          5    1    5    5  501    0  0.58981874741E+02  0.11646684036E+03  0.20139069405E+03  0.24004934513E+03  0.47000000000E+01 0. -1.
        -11    1    6    6    0    0 -0.14375642767E+02  0.70746911667E+02  0.11117888945E+03  0.13256142001E+03  0.00000000000E+00 0.  1.
         12    1    6    6    0    0 -0.34432902529E+02  0.95091448844E+02  0.41156996416E+03  0.42381345404E+03  0.00000000000E+00 0. -1.
         -5    1    3    3    0  503  0.24688570194E+02 -0.13351849737E+03  0.37116002175E+03  0.39524494479E+03  0.47000000000E+01 0.  1.
         11    1    4    4    0    0 -0.61607135792E+02 -0.87790429749E+02  0.13927144010E+03  0.17578149153E+03  0.00000000000E+00 0. -1.
        -12    1    4    4    0    0  0.26745236154E+02 -0.60996273750E+02  0.78476819816E+02  0.10292941424E+03  0.00000000000E+00 0.  1.
</event>
<event>
12    1  0.1046899E+000  0.3146865E+03  0.7818608E-02  0.1078631E+00
         21   -1    0    0  503  502  0.00000000000E+00  0.00000000000E+00  0.24521135628E+03  0.24521135628E+03  0.00000000000E+00 0. -1.
         21   -1    0    0  501  503 -0.00000000000E+00 -0.00000000000E+00 -0.46248087756E+03  0.46248087756E+03  0.00000000000E+00 0. -1.
          6    2    1    2  501    0  0.25997074675E+03 -0.43808611558E+02 -0.24105939980E+03  0.39640540389E+03  0.17182440568E+03 0.  0.
         24    2    3    3    0    0  0.42901073809E+02 -0.27902712865E+01 -0.44700524961E+02  0.10080323056E+03  0.79466134999E+02 0.  0.
         -6    2    1    2    0  502 -0.25997074675E+03  0.43808611558E+02  0.23789878512E+02  0.31128682995E+03  0.16379727887E+03 0.  0.
        -24    2    5    5    0    0 -0.23388213405E+03 -0.12738349147E+02  0.19396319554E+02  0.24868037790E+03  0.81256353435E+02 0.  0.
          5    1    3    3  501    0  0.21706967295E+03 -0.41018340271E+02 -0.19635887484E+03  0.29560217333E+03  0.47000000000E+01 0. -1.
        -13    1    4    4    0    0  0.14007131146E+02 -0.39781264521E+02 -0.12888800125E+02  0.44100679117E+02  0.00000000000E+00 0.  1.
         14    1    4    4    0    0  0.28893942662E+02  0.36990993235E+02 -0.31811724836E+02  0.56702551443E+02  0.00000000000E+00 0. -1.
         -5    1    5    5    0  502 -0.26088612708E+02  0.56546960705E+02  0.43935589578E+01  0.62606452050E+02  0.47000000000E+01 0.  1.
         11    1    6    6    0    0 -0.15738396493E+03 -0.32722878170E+02  0.42565878924E+02  0.16628996729E+03  0.00000000000E+00 0. -1.
        -12    1    6    6    0    0 -0.76498169112E+02  0.19984529024E+02 -0.23169559370E+02  0.82390410602E+02  0.00000000000E+00 0.  1.
</event>
<event>
12    1  0.1046899E+000  0.2104503E+03  0.7818608E-02  0.1141493E+00
         21   -1    0    0  503  502  0.00000000000E+00  0.00000000000E+00  0.63255679498E+02  0.63255679498E+02  0.00000000000E+00 0. -1.
         21   -1    0    0  501  503 -0.00000000000E+00 -0.00000000000E+00 -0.70259498994E+03  0.70259498994E+03  0.00000000000E+00 0. -1.
          6    2    1    2  501    0  0.11871121522E+03  0.21144360442E+02 -0.35946360096E+03  0.41653742149E+03  0.17248161201E+03 0.  0.
         24    2    3    3    0    0  0.45685717476E+02 -0.45594012383E+02 -0.12708343071E+03  0.16393226070E+03  0.80978941649E+02 0.  0.
         -6    2    1    2    0  502 -0.11871121522E+03 -0.21144360442E+02 -0.27987570948E+03  0.34931324795E+03  0.17073340576E+03 0.  0.
        -24    2    5    5    0    0 -0.10881330250E+03  0.39995334939E+02 -0.15773919868E+03  0.21228971605E+03  0.82129818699E+02 0.  0.
          5    1    3    3  501    0  0.73025497745E+02  0.66738372825E+02 -0.23238017025E+03  0.25260516079E+03  0.47000000000E+01 0. -1.
        -13    1    4    4    0    0  0.56955058149E+02 -0.13290848261E+01 -0.81172505648E+02  0.99169656591E+02  0.00000000000E+00 0.  1.
         14    1    4    4    0    0 -0.11269340673E+02 -0.44264927557E+02 -0.45910925062E+02  0.64762604108E+02  0.00000000000E+00 0. -1.
         -5    1    5    5    0  502 -0.98979127200E+01 -0.61139695381E+02 -0.12213651079E+03  0.13702353191E+03  0.47000000000E+01 0.  1.
         11    1    6    6    0    0 -0.45944709345E+02  0.57410943452E+02 -0.10609634159E+03  0.12908666253E+03  0.00000000000E+00 0. -1.
        -12    1    6    6    0    0 -0.62868593156E+02 -0.17415608513E+02 -0.51642857092E+02  0.83203053513E+02  0.00000000000E+00 0.  1.
</event>
<event>
12    1  0.1046899E+000  0.5194199E+03  0.7818608E-02  0.1009125E+00
         21   -1    0    0  501  502  0.00000000000E+00  0.00000000000E+00  0.11390866006E+04  0.11390866006E+04  0.00000000000E+00 0. -1.
         21   -1    0    0  502  503 -0.00000000000E+00 -0.00000000000E+00 -0.24265521162E+03  0.24265521162E+03  0.00000000000E+00 0. -1.
         -6    2    1    2    0  503  0.38116609443E+03  0.29966900645E+03  0.32123724501E+03  0.60672871909E+03  0.17273466939E+03 0.  0.
        -24    2    3    3    0    0  0.30718942603E+03  0.19250334760E+03  0.17239225252E+03  0.40890569794E+03  0.77858196611E+02 0.  0.
          6    2    1    2  501    0 -0.38116609443E+03 -0.29966900645E+03  0.57519414397E+03  0.77501309314E+03  0.18630052686E+03 0.  0.
         24    2    5    5    0    0 -0.73249526467E+02 -0.53373774244E+02  0.95323017330E+02  0.15390735140E+03  0.79917096282E+02 0.  0.
          5    1    5    5  501    0 -0.30791656797E+03 -0.24629523220E+03  0.47987112664E+03  0.62110574174E+03  0.47000000000E+01 0. -1.
        -11    1    6    6    0    0 -0.79902128857E+02 -0.56229454788E+02  0.10394047474E+03  0.14265245904E+03  0.00000000000E+00 0.  1.
         12    1    6    6    0    0  0.66526023903E+01  0.28556805433E+01 -0.86174574071E+01  0.11254892362E+02  0.00000000000E+00 0. -1.
         -5    1    3    3    0  503  0.73976668406E+02  0.10716565885E+03  0.14884499249E+03  0.19782302115E+03  0.47000000000E+01 0.  1.
         13    1    4    4    0    0  0.73283829912E+02  0.37263220982E+02  0.76350106192E+02  0.11219806629E+03  0.00000000000E+00 0. -1.
        -14    1    4    4    0    0  0.23390559611E+03  0.15524012661E+03  0.96042146326E+02  0.29670763164E+03  0.00000000000E+00 0.  1.
</event>
<event>
12    1  0.1046899E+000  0.2030629E+03  0.7818608E-02  0.1147606E+00
         21   -1    0    0  503  502  0.00000000000E+00  0.00000000000E+00  0.39206679080E+03  0.39206679080E+03  0.00000000000E+00 0.  1.
         21   -1    0    0  501  503 -0.00000000000E+00 -0.00000000000E+00 -0.16129012507E+03  0.16129012507E+03  0.00000000000E+00 0.  1.
          6    2    1    2  501    0  0.10555138482E+03  0.73135950927E+01 -0.49720860365E+02  0.20707174033E+03  0.17091506130E+03 0.  0.
         24    2    3    3    0    0  0.61364779643E+02  0.21596369324E+02 -0.96687544197E+02  0.14085683939E+03  0.79120974785E+02 0.  0.
         -6    2    1    2    0  502 -0.10555138482E+03 -0.73135950927E+01  0.28049752610E+03  0.34628517554E+03  0.17332044642E+03 0.  0.
        -24    2    5    5    0    0 -0.38879504377E+02 -0.98620219884E+01  0.88914770325E+01  0.66564654293E+02  0.52372888970E+02 0.  0.
          5    1    3    3  501    0  0.44186605173E+02 -0.14282774231E+02  0.46966683832E+02  0.66214900941E+02  0.47000000000E+01 0. -1.
        -11    1    4    4    0    0  0.50398255362E+02 -0.13313728914E+02 -0.89488011795E+02  0.10356323564E+03  0.00000000000E+00 0.  1.
         12    1    4    4    0    0  0.10966524281E+02  0.34910098237E+02 -0.71995324022E+01  0.37293603748E+02  0.00000000000E+00 0. -1.
         -5    1    5    5    0  502 -0.66671880439E+02  0.25484268957E+01  0.27160604906E+03  0.27972052125E+03  0.47000000000E+01 0.  1.
         13    1    6    6    0    0 -0.37030185044E+02  0.10878754793E+02 -0.83994488399E+01  0.39498514542E+02  0.00000000000E+00 0. -1.
        -14    1    6    6    0    0 -0.18493193325E+01 -0.20740776781E+02  0.17290925872E+02  0.27066139751E+02  0.00000000000E+00 0.  1.
</event>
<event>
12    1  0.1046899E+000  0.1887759E+03  0.7818608E-02  0.1159751E+00
         21   -1    0    0  501  502  0.00000000000E+00  0.00000000000E+00  0.35647866048E+02  0.35647866048E+02  0.00000000000E+00 0.  1.
         21   -1    0    0  502  503 -0.00000000000E+00 -0.00000000000E+00 -0.16450979957E+04  0.16450979957E+04  0.00000000000E+00 0.  1.
         -6    2    1    2    0  503  0.74302257056E+02 -0.39142654037E+01 -0.27560397351E+03  0.33360744555E+03  0.17262743303E+03 0.  0.
        -24    2    3    3    0    0  0.96163958256E+02 -0.24692067874E+02 -0.27546654540E+03  0.30308270245E+03  0.78231079524E+02 0.  0.
          6    2    1    2  501    0 -0.74302257056E+02  0.39142654037E+01 -0.13338461561E+04  0.13471384162E+04  0.17349408422E+03 0.  0.
         24    2    5    5    0    0 -0.45029163586E+02 -0.53626152262E+02 -0.10773729526E+04  0.10826229954E+04  0.80228932106E+02 0.  0.
          5    1    5    5  501    0 -0.29273093470E+02  0.57540417666E+02 -0.25647320352E+03  0.26451542070E+03  0.47000000000E+01 0. -1.
        -11    1    6    6    0    0  0.18334604845E+02  0.24312939387E+01 -0.32121437882E+03  0.32174640027E+03  0.00000000000E+00 0.  1.
         12    1    6    6    0    0 -0.63363768431E+02 -0.56057446201E+02 -0.75615857376E+03  0.76087659518E+03  0.00000000000E+00 0. -1.
         -5    1    3    3    0  503 -0.21861701201E+02  0.20777802470E+02 -0.13742810430E+00  0.30524743101E+02  0.47000000000E+01 0.  1.
         13    1    4    4    0    0  0.57181935155E+02 -0.52668585826E+02 -0.18521731850E+03  0.20087112464E+03  0.00000000000E+00 0. -1.
        -14    1    4    4    0    0  0.38982023101E+02  0.27976517953E+02 -0.90249226903E+02  0.10221157781E+03  0.00000000000E+00 0.  1.
</event>
<event>
12    1  0.1046899E+000  0.2773122E+03  0.7818608E-02  0.1097610E+00
         21   -1    0    0  503  502  0.00000000000E+00  0.00000000000E+00  0.13035708647E+04  0.13035708647E+04  0.00000000000E+00 0. -1.
         21   -1    0    0  501  503 -0.00000000000E+00 -0.00000000000E+00 -0.13056404695E+03  0.13056404695E+03  0.00000000000E+00 0.  1.
          6    2    1    2  501    0  0.10826677279E+03  0.18764303696E+03  0.11214235145E+04  0.11552024730E+04  0.17311975976E+03 0.  0.
         24    2    3    3    0    0  0.94921523362E+02  0.21058261826E+03  0.10652359104E+04  0.10928850843E+04  0.79467779514E+02 0.  0.
         -6    2    1    2    0  502 -0.10826677279E+03 -0.18764303696E+03  0.51583303239E+02  0.27893243869E+03  0.16796090250E+03 0.  0.
        -24    2    5    5    0    0 -0.13269091988E+03 -0.15064255011E+03  0.87675465499E+01  0.21711938174E+03  0.82242920264E+02 0.  0.
          5    1    3    3  501    0  0.13345249424E+02 -0.22939581305E+02  0.56187604126E+02  0.62317388666E+02  0.47000000000E+01 0. -1.
        -13    1    4    4    0    0  0.19150922548E+02  0.84173270558E+02  0.25128584698E+03  0.26569997027E+03  0.00000000000E+00 0.  1.
         14    1    4    4    0    0  0.75770600815E+02  0.12640934771E+03  0.81395006344E+03  0.82718511405E+03  0.00000000000E+00 0. -1.
         -5    1    5    5    0  502  0.24424147091E+02 -0.37000486853E+02  0.42815756689E+02  0.61813056949E+02  0.47000000000E+01 0.  1.
         13    1    6    6    0    0 -0.23823470444E+02 -0.87656271295E+02  0.95962011797E+01  0.91341484105E+02  0.00000000000E+00 0. -1.
        -14    1    6    6    0    0 -0.10886744943E+03 -0.62986278810E+02 -0.82865462985E+00  0.12577789763E+03  0.00000000000E+00 0.  1.
</event>
<event>
12    1  0.1046899E+000  0.2375533E+03  0.7818608E-02  0.1121629E+00
         21   -1    0    0  501  502  0.00000000000E+00  0.00000000000E+00  0.17735024822E+03  0.17735024822E+03  0.00000000000E+00 0.  1.
         21   -1    0    0  502  503 -0.00000000000E+00 -0.00000000000E+00 -0.38191362544E+03  0.38191362544E+03  0.00000000000E+00 0.  1.
         -6    2    1    2    0  503 -0.14632751396E+03 -0.70654530735E+02 -0.21808724527E+03  0.32248042268E+03  0.17328523424E+03 0.  0.
        -24    2    3    3    0    0 -0.89178691203E+02 -0.11402782328E+03 -0.15870343672E+03  0.22922937890E+03  0.80025895023E+02 0.  0.
          6    2    1    2  501    0  0.14632751396E+03  0.70654530735E+02  0.13523868053E+02  0.23678345098E+03  0.17169654509E+03 0.  0.
         24    2    5    5    0    0  0.16090592673E+02  0.64056071113E+02  0.44612550176E+01  0.10598048354E+03  0.82763957593E+02 0.  0.
          5    1    5    5  501    0  0.13023692129E+03  0.65984596222E+01  0.90626130356E+01  0.13080296744E+03  0.47000000000E+01 0. -1.
        -11    1    6    6    0    0  0.21511725619E+02  0.78166629295E+02 -0.13838140500E+02  0.82245184703E+02  0.00000000000E+00 0.  1.
         12    1    6    6    0    0 -0.54211329464E+01 -0.14110558182E+02  0.18299395518E+02  0.23735298838E+02  0.00000000000E+00 0. -1.
         -5    1    3    3    0  503 -0.57148822757E+02  0.43373292547E+02 -0.59383808551E+02  0.93251043784E+02  0.47000000000E+01 0.  1.
         13    1    4    4    0    0 -0.79912047133E+02 -0.39300129685E+02 -0.73036940902E+02  0.11517304462E+03  0.00000000000E+00 0. -1.
        -14    1    4    4    0    0 -0.92666440698E+01 -0.74727693597E+02 -0.85666495822E+02  0.11405633428E+03  0.00000000000E+00 0.  1.
</event>
<event>
12    1  0.1046899E+000  0.1844206E+03  0.7818608E-02  0.1164805E+00
         21   -1    0    0  501  502  0.00000000000E+00  0.00000000000E+00  0.82436143435E+03  0.82436143435E+03  0.00000000000E+00 0. -1.
         21   -1    0    0  502  503 -0.00000000000E+00 -0.00000000000E+00 -0.56805385867E+02  0.56805385867E+02  0.00000000000E+00 0. -1.
         -6    2    1    2    0  503  0.26779743923E+02  0.49575718649E+02  0.14884508959E+03  0.23699328658E+03  0.17560196647E+03 0.  0.
        -24    2    3    3    0    0 -0.27269722187E+02  0.29757131296E+02  0.12701833905E+02  0.89104148173E+02  0.78416120957E+02 0.  0.
          6    2    1    2  501    0 -0.26779743923E+02 -0.49575718649E+02  0.61871095889E+03  0.64417353363E+03  0.17023919706E+03 0.  0.
         24    2    5    5    0    0  0.27222975822E+01 -0.95808387432E+02  0.37996576269E+03  0.39916498515E+03  0.75973986029E+02 0.  0.
          5    1    5    5  501    0 -0.29502041506E+02  0.46232668782E+02  0.23874519621E+03  0.24500854848E+03  0.47000000000E+01 0. -1.
        -13    1    6    6    0    0  0.84046439129E+01 -0.53850024349E+02  0.32623348344E+03  0.33075481687E+03  0.00000000000E+00 0.  1.
         14    1    6    6    0    0 -0.56823463307E+01 -0.41958363082E+02  0.53732279244E+02  0.68410168288E+02  0.00000000000E+00 0. -1.
         -5    1    3    3    0  503  0.54049466111E+02  0.19818587354E+02  0.13614325568E+03  0.14788913841E+03  0.47000000000E+01 0.  1.
         11    1    4    4    0    0  0.25695197518E+02 -0.18759913846E+01  0.90390210755E+01  0.27303230966E+02  0.00000000000E+00 0. -1.
        -12    1    4    4    0    0 -0.52964919705E+02  0.31633122680E+02  0.36628128291E+01  0.61800917207E+02  0.00000000000E+00 0.  1.
</event>
<event>
12    1  0.1046899E+000  0.2378605E+03  0.7818608E-02  0.1121788E+00
         21   -1    0    0  503  502  0.00000000000E+00  0.00000000000E+00  0.22040041343E+03  0.22040041343E+03  0.00000000000E+00 0.  1.
         21   -1    0    0  501  503 -0.00000000000E+00 -0.00000000000E+00 -0.28908966716E+03  0.28908966716E+03  0.00000000000E+00 0. -1.
          6    2    1    2  501    0  0.14045717317E+03  0.77127137571E+02  0.55265871950E+02  0.24419648770E+03  0.17578622004E+03 0.  0.
         24    2    3    3    0    0  0.15539453054E+03  0.15909952365E+02  0.44853708543E+02  0.18015609766E+03  0.77741736841E+02 0.  0.
         -6    2    1    2    0  502 -0.14045717317E+03 -0.77127137571E+02 -0.12395512567E+03  0.26529359289E+03  0.17128632288E+03 0.  0.
        -24    2    5    5    0    0 -0.13713379673E+02  0.80416639975E+01 -0.32703381624E+02  0.87342237902E+02  0.79413035518E+02 0.  0.
          5    1    3    3  501    0 -0.14937357369E+02  0.61217185206E+02  0.10412163406E+02  0.64040390040E+02  0.47000000000E+01 0. -1.
        -11    1    4    4    0    0  0.15600184000E+02  0.28331814865E+02 -0.14345789670E+01  0.32374611831E+02  0.00000000000E+00 0.  1.
         12    1    4    4    0    0  0.13979434654E+03 -0.12421862500E+02  0.46288287510E+02  0.14778148583E+03  0.00000000000E+00 0. -1.
         -5    1    5    5    0  502 -0.12674379350E+03 -0.85168801568E+02 -0.91251744050E+02  0.17795135499E+03  0.47000000000E+01 0.  1.
         13    1    6    6    0    0 -0.17947029177E+00 -0.29625307958E+02 -0.36646545858E+02  0.47123883589E+02  0.00000000000E+00 0. -1.
        -14    1    6    6    0    0 -0.13533909381E+02  0.37666971956E+02  0.39431642336E+01  0.40218354313E+02  0.00000000000E+00 0.  1.
</event>
<event>
12    1  0.1046899E+000  0.3373652E+03  0.7818608E-02  0.1068057E+00
         21   -1    0    0  501  502  0.00000000000E+00  0.00000000000E+00  0.15684379868E+03  0.15684379868E+03  0.00000000000E+00 0. -1.
         21   -1    0    0  502  503 -0.00000000000E+00 -0.00000000000E+00 -0.87140939260E+03  0.87140939260E+03  0.00000000000E+00 0. -1.
         -6    2    1    2    0  503 -0.27104267458E+03  0.98793195567E+02 -0.56998969718E+03  0.66234698923E+03  0.17490297972E+03 0.  0.
        -24    2    3    3    0    0 -0.13104018316E+03 -0.17084497802E+02 -0.28615424786E+03  0.32528172891E+03  0.80377483941E+02 0.  0.
          6    2    1    2  501    0  0.27104267458E+03 -0.98793195567E+02 -0.14457589673E+03  0.36590620205E+03  0.17251357005E+03 0.  0.
         24    2    5    5    0    0  0.18420926686E+03  0.55642229682E+01 -0.67031794259E+02  0.20949108345E+03  0.73683363310E+02 0.  0.
          5    1    5    5  501    0  0.86833407718E+02 -0.10435741854E+03 -0.77544102472E+02  0.15641511860E+03  0.47000000000E+01 0. -1.
        -11    1    6    6    0    0  0.14375105238E+03 -0.26065336859E+02 -0.58785652307E+02  0.15747863272E+03  0.00000000000E+00 0.  1.
         12    1    6    6    0    0  0.40458214478E+02  0.31629559828E+02 -0.82461419517E+01  0.52012450728E+02  0.00000000000E+00 0. -1.
         -5    1    3    3    0  503 -0.14000249142E+03  0.11587769337E+03 -0.28383544932E+03  0.33706526032E+03  0.47000000000E+01 0.  1.
         11    1    4    4    0    0 -0.51418505780E+02 -0.24049101999E+02 -0.19939969983E+03  0.20732212216E+03  0.00000000000E+00 0. -1.
        -12    1    4    4    0    0 -0.79621677381E+02  0.69646041969E+01 -0.86754548027E+02  0.11795960675E+03  0.00000000000E+00 0.  1.
</event>
<event>
12    1  0.1046899E+000  0.2023015E+03  0.7818608E-02  0.1147912E+00
         21   -1    0    0  501  502  0.00000000000E+00  0.00000000000E+00  0.53943091392E+03  0.53943091392E+03  0.00000000000E+00 0. -1.
         21   -1    0    0  502  503 -0.00000000000E+00 -0.00000000000E+00 -0.14938649937E+03  0.14938649937E+03  0.00000000000E+00 0.  1.
         -6    2    1    2    0  503 -0.45359241549E+02  0.95722979484E+02  0.43681144163E+03  0.48118057082E+03  0.17178520484E+03 0.  0.
        -24    2    3    3    0    0 -0.37551123472E+02  0.12975290582E+02  0.34666256685E+03  0.35847337319E+03  0.82157038589E+02 0.  0.
          6    2    1    2  501    0  0.45359241549E+02 -0.95722979484E+02 -0.46767027071E+02  0.20763684248E+03  0.17235299225E+03 0.  0.
         24    2    5    5    0    0 -0.42412001338E+02 -0.21250218134E+02 -0.18630643993E+02  0.89046247091E+02  0.73019063245E+02 0.  0.
          5    1    5    5  501    0  0.87771242887E+02 -0.74472761350E+02 -0.28136383078E+02  0.11859059538E+03  0.47000000000E+01 0. -1.
        -13    1    6    6    0    0 -0.12350181418E+02 -0.14248329929E+01 -0.43526860263E+02  0.45267479435E+02  0.00000000000E+00 0.  1.
         14    1    6    6    0    0 -0.30061819920E+02 -0.19825385141E+02  0.24896216270E+02  0.43778767656E+02  0.00000000000E+00 0. -1.
         -5    1    3    3    0  503 -0.78081180774E+01  0.82747688902E+02  0.90148874772E+02  0.12270719763E+03  0.47000000000E+01 0.  1.
         13    1    4    4    0    0 -0.23091043906E+02 -0.24309175902E+02  0.57519611527E+02  0.66578059839E+02  0.00000000000E+00 0. -1.
        -14    1    4    4    0    0 -0.14460079566E+02  0.37284466484E+02  0.28914295533E+03  0.29189531335E+03  0.00000000000E+00 0.  1.
</event>
<event>
12    1  0.1046899E+000  0.2072872E+03  0.7818608E-02  0.1143738E+00
         21   -1    0    0  503  502  0.00000000000E+00  0.00000000000E+00  0.15434616042E+03  0.15434616042E+03  0.00000000000E+00 0. -1.
         21   -1    0    0  501  503 -0.00000000000E+00 -0.00000000000E+00 -0.29141865302E+03  0.29141865302E+03  0.00000000000E+00 0. -1.
          6    2    1    2  501    0  0.70099586530E+01  0.11538443142E+03 -0.21336691697E+02  0.20835636297E+03  0.17203026781E+03 0.  0.
         24    2    3    3    0    0 -0.15688503672E+02 -0.69058428402E+01 -0.49262394412E+01  0.82811453415E+02  0.80868097349E+02 0.  0.
         -6    2    1    2    0  502 -0.70099586530E+01 -0.11538443142E+03 -0.11573580091E+03  0.23740845048E+03  0.17206187902E+03 0.  0.
        -24    2    5    5    0    0 -0.45077413651E+01 -0.70556142785E+02 -0.14749334385E+03  0.18221363109E+03  0.80305864406E+02 0.  0.
          5    1    3    3  501    0  0.22698462325E+02  0.12229027426E+03 -0.16410452256E+02  0.12554490955E+03  0.47000000000E+01 0. -1.
        -13    1    4    4    0    0 -0.29137773301E+02  0.26172720672E+02  0.14975239095E+02  0.41931836667E+02  0.00000000000E+00 0.  1.
         14    1    4    4    0    0  0.13449269629E+02 -0.33078563512E+02 -0.19901478536E+02  0.40879616748E+02  0.00000000000E+00 0. -1.
         -5    1    5    5    0  502 -0.25022172878E+01 -0.44828288639E+02  0.31757542942E+02  0.55194819389E+02  0.47000000000E+01 0.  1.
         11    1    6    6    0    0  0.27136414244E+02 -0.48093623489E+02 -0.12664764011E+03  0.13816297023E+03  0.00000000000E+00 0. -1.
        -12    1    6    6    0    0 -0.31644155609E+02 -0.22462519296E+02 -0.20845703737E+02  0.44050660854E+02  0.00000000000E+00 0.  1.
</event>
<event>
12    1  0.1046899E+000  0.3598081E+03  0.7818608E-02  0.1058827E+00
         21   -1    0    0  503  502  0.00000000000E+00  0.00000000000E+00  0.21885434054E+03  0.21885434054E+03  0.00000000000E+00 0.  1.
         21   -1    0    0  501  503 -0.00000000000E+00 -0.00000000000E+00 -0.59362146288E+03  0.59362146288E+03  0.00000000000E+00 0.  1.
          6    2    1    2  501    0 -0.30344190931E+03 -0.82445811048E+02 -0.15114605108E+03  0.39026525287E+03  0.17489292368E+03 0.  0.
         24    2    3    3    0    0 -0.18037802972E+03 -0.21653882880E+02 -0.17416320135E+02  0.19857250932E+03  0.78246974382E+02 0.  0.
         -6    2    1    2    0  502  0.30344190931E+03  0.82445811048E+02 -0.22362107126E+03  0.42221055056E+03  0.17140904705E+03 0.  0.
        -24    2    5    5    0    0  0.24891542616E+03  0.48622822388E+01 -0.18254453258E+03  0.31876146483E+03  0.79396687096E+02 0.  0.
          5    1    3    3  501    0 -0.12306387958E+03 -0.60791928168E+02 -0.13372973095E+03  0.19169274355E+03  0.47000000000E+01 0. -1.
        -13    1    4    4    0    0 -0.50497911678E+02 -0.41394951320E+02  0.42137582243E+01  0.65431925213E+02  0.00000000000E+00 0.  1.
         14    1    4    4    0    0 -0.12988011805E+03  0.19741068440E+02 -0.21630078359E+02  0.13314058411E+03  0.00000000000E+00 0. -1.
         -5    1    5    5    0  502  0.54526483149E+02  0.77583528809E+02 -0.41076538683E+02  0.10344908572E+03  0.47000000000E+01 0.  1.
         13    1    6    6    0    0  0.16301102297E+03 -0.34328035245E+02 -0.10900552037E+03  0.19908091592E+03  0.00000000000E+00 0. -1.
        -14    1    6    6    0    0  0.85904403191E+02  0.39190317484E+02 -0.73539012207E+02  0.11968054891E+03  0.00000000000E+00 0.  1.
</event>
<event>
12    1  0.1046899E+000  0.2517820E+03  0.7818608E-02  0.1112480E+00
         21   -1    0    0  503  502  0.00000000000E+00  0.00000000000E+00  0.45674211774E+03  0.45674211774E+03  0.00000000000E+00 0.  1.
         21   -1    0    0  501  503 -0.00000000000E+00 -0.00000000000E+00 -0.15023828972E+03  0.15023828972E+03  0.00000000000E+00 0.  1.
          6    2    1    2  501    0 -0.88253705890E+02 -0.15844324304E+03  0.24019254138E+03  0.34661262667E+03  0.17191532265E+03 0.  0.
         24    2    3    3    0    0 -0.11001528503E+03 -0.14274027459E+03  0.24914390474E+03  0.31793569429E+03  0.80822469058E+02 0.  0.
         -6    2    1    2    0  502  0.88253705890E+02  0.15844324304E+03  0.66311286635E+02  0.26036778080E+03  0.17464597525E+03 0.  0.
        -24    2    5    5    0    0  0.12108520979E+03  0.15506445552E+03  0.78707117323E+02  0.22479995162E+03  0.75057275032E+02 0.  0.
          5    1    3    3  501    0  0.21761579135E+02 -0.15702968455E+02 -0.89513633594E+01  0.28676932380E+02  0.47000000000E+01 0. -1.
        -13    1    4    4    0    0 -0.71794890280E+02 -0.62194412898E+02  0.70536161237E+02  0.11831314935E+03  0.00000000000E+00 0.  1.
         14    1    4    4    0    0 -0.38220394745E+02 -0.80545861691E+02  0.17860774350E+03  0.19962254494E+03  0.00000000000E+00 0. -1.
         -5    1    5    5    0  502 -0.32831503904E+02  0.33787875213E+01 -0.12395830688E+02  0.35567829174E+02  0.47000000000E+01 0.  1.
         11    1    6    6    0    0  0.65543019545E+02  0.37066363962E+02  0.52453937919E+02  0.91767196490E+02  0.00000000000E+00 0. -1.
        -12    1    6    6    0    0  0.55542190248E+02  0.11799809156E+03  0.26253179405E+02  0.13303275513E+03  0.00000000000E+00 0.  1.
</event>
<event>
12    1  0.1046899E+000  0.2440015E+03  0.7818608E-02  0.1117176E+00
         21   -1    0    0  501  502  0.00000000000E+00  0.00000000000E+00  0.47573066017E+03  0.47573066017E+03  0.00000000000E+00 0.  1.
         21   -1    0    0  502  503 -0.00000000000E+00 -0.00000000000E+00 -0.13359531662E+03  0.13359531662E+03  0.00000000000E+00 0.  1.
         -6    2    1    2    0  503  0.15303812450E+03 -0.80445933125E+02  0.94118171691E+02  0.26140464197E+03  0.17199401412E+03 0.  0.
        -24    2    3    3    0    0  0.12112459257E+03 -0.42423042109E+02 -0.16945171348E+02  0.13966159318E+03  0.52415077510E+02 0.  0.
          6    2    1    2  501    0 -0.15303812450E+03  0.80445933125E+02  0.24801717185E+03  0.34792133482E+03  0.17217584610E+03 0.  0.
         24    2    5    5    0    0 -0.14087480527E+02 -0.87543632997E-01  0.10951583347E+03  0.13579487943E+03  0.79044713478E+02 0.  0.
          5    1    5    5  501    0 -0.13895064398E+03  0.80533476758E+02  0.13850133839E+03  0.21212645539E+03  0.47000000000E+01 0. -1.
        -11    1    6    6    0    0 -0.26304889964E+02 -0.22234319066E+02  0.14328484559E+02  0.37304391834E+02  0.00000000000E+00 0.  1.
         12    1    6    6    0    0  0.12217409438E+02  0.22146775433E+02  0.95187348908E+02  0.98490487599E+02  0.00000000000E+00 0. -1.
         -5    1    3    3    0  503  0.31913531935E+02 -0.38022891016E+02  0.11106334304E+03  0.12174304879E+03  0.47000000000E+01 0.  1.
         11    1    4    4    0    0  0.11473294527E+03 -0.36104820008E+02  0.22679198019E+00  0.12027991600E+03  0.00000000000E+00 0. -1.
        -12    1    4    4    0    0  0.63916472973E+01 -0.63182221015E+01 -0.17171963328E+02  0.19381677178E+02  0.00000000000E+00 0.  1.
</event>
<event>
12    1  0.1046899E+000  0.1821692E+03  0.7818608E-02  0.1166197E+00
         21   -1    0    0  501  502  0.00000000000E+00  0.00000000000E+00  0.36636778429E+02  0.36636778429E+02  0.00000000000E+00 0.  1.
         21   -1    0    0  502  503 -0.00000000000E+00 -0.00000000000E+00 -0.90870204749E+03  0.90870204749E+03  0.00000000000E+00 0.  1.
         -6    2    1    2    0  503 -0.56755384720E+02 -0.83042086971E+01 -0.48970841498E+03  0.52180326477E+03  0.17080451354E+03 0.  0.
        -24    2    3    3    0    0 -0.35908769461E+02 -0.29283210469E+02 -0.12407519587E+03  0.15494574365E+03  0.80415067657E+02 0.  0.
          6    2    1    2  501    0  0.56755384720E+02  0.83042086971E+01 -0.38235685408E+03  0.42353556115E+03  0.17290307724E+03 0.  0.
         24    2    5    5    0    0  0.31868432637E+02  0.65157057912E+02 -0.16267548408E+03  0.19520772410E+03  0.79885563354E+02 0.  0.
          5    1    5    5  501    0  0.24886952082E+02 -0.56852849215E+02 -0.21968137000E+03  0.22832783705E+03  0.47000000000E+01 0. -1.
        -13    1    6    6    0    0  0.10873856008E+02 -0.12618100986E+02 -0.38145248165E+01  0.17088236204E+02  0.00000000000E+00 0.  1.
         14    1    6    6    0    0  0.20994576630E+02  0.77775158899E+02 -0.15886095927E+03  0.17811948790E+03  0.00000000000E+00 0. -1.
         -5    1    3    3    0  503 -0.20846615258E+02  0.20979001772E+02 -0.36563321911E+03  0.36685752112E+03  0.47000000000E+01 0.  1.
         13    1    4    4    0    0 -0.85389175439E+01 -0.40891823607E+02 -0.11721250447E+03  0.12443402089E+03  0.00000000000E+00 0. -1.
        -14    1    4    4    0    0 -0.27369851917E+02  0.11608613138E+02 -0.68626914069E+01  0.30511722769E+02  0.00000000000E+00 0.  1.
</event>
<event>
12    1  0.1046899E+000  0.1903206E+03  0.7818608E-02  0.1161705E+00
         21   -1    0    0  503  502  0.00000000000E+00  0.00000000000E+00  0.84822189138E+02  0.84822189138E+02  0.00000000000E+00 0.  1.
         21   -1    0    0  501  503 -0.00000000000E+00 -0.00000000000E+00 -0.41092737084E+03  0.41092737084E+03  0.00000000000E+00 0.  1.
          6    2    1    2  501    0 -0.31768039118E+00  0.31093363307E+02 -0.21976576321E+03  0.29072137977E+03  0.18776323338E+03 0.  0.
         24    2    3    3    0    0  0.24037660205E+02 -0.20391016543E+02 -0.21735480790E+03  0.23352237025E+03  0.79347225697E+02 0.  0.
         -6    2    1    2    0  502  0.31768039118E+00 -0.31093363307E+02 -0.10633941849E+03  0.20502818021E+03  0.17251546189E+03 0.  0.
        -24    2    5    5    0    0  0.14131969979E+02 -0.18099010473E+02  0.12932595391E+02  0.84166312370E+02  0.79933906191E+02 0.  0.
          5    1    3    3  501    0 -0.24355340597E+02  0.51484379850E+02 -0.24109553100E+01  0.57199009516E+02  0.47000000000E+01 0. -1.
        -11    1    4    4    0    0  0.29696698086E+02 -0.46526952771E+02 -0.11249928734E+03  0.12531057762E+03  0.00000000000E+00 0.  1.
         12    1    4    4    0    0 -0.56590378805E+01  0.26135936228E+02 -0.10485552056E+03  0.10821179263E+03  0.00000000000E+00 0. -1.
         -5    1    5    5    0  502 -0.13814289588E+02 -0.12994352834E+02 -0.11927201388E+03  0.12086186784E+03  0.47000000000E+01 0.  1.
         13    1    6    6    0    0  0.14805848529E+01 -0.38684157633E+02  0.34442887455E+02  0.51816683409E+02  0.00000000000E+00 0. -1.
        -14    1    6    6    0    0  0.12651385126E+02  0.20585147161E+02 -0.21510292064E+02  0.32349628961E+02  0.00000000000E+00 0.  1.
</event>
<event>
12    1  0.1046899E+000  0.3429835E+03  0.7818608E-02  0.1065559E+00
         21   -1    0    0  503  502  0.00000000000E+00  0.00000000000E+00  0.52567649915E+03  0.52567649915E+03  0.00000000000E+00 0. -1.
         21   -1    0    0  501  503 -0.00000000000E+00 -0.00000000000E+00 -0.28979644813E+03  0.28979644813E+03  0.00000000000E+00 0.  1.
          6    2    1    2  501    0  0.26302936945E+03  0.13590079277E+03  0.31275140028E+03  0.46398060600E+03  0.17265888245E+03 0.  0.
         24    2    3    3    0    0  0.12307421908E+03  0.12580898173E+03  0.12771543162E+03  0.23170988364E+03  0.80019219037E+02 0.  0.
         -6    2    1    2    0  502 -0.26302936945E+03 -0.13590079277E+03 -0.76871349269E+02  0.35149234129E+03  0.17315942646E+03 0.  0.
        -24    2    5    5    0    0 -0.18496455765E+03 -0.75077048072E+02  0.15897186919E+02  0.21576565243E+03  0.80334584600E+02 0.  0.
          5    1    3    3  501    0  0.13995515038E+03  0.10091811040E+02  0.18503596866E+03  0.23227072236E+03  0.47000000000E+01 0. -1.
        -11    1    4    4    0    0  0.66629858417E+02  0.56677322841E+02  0.16340494480E+02  0.88988025694E+02  0.00000000000E+00 0.  1.
         12    1    4    4    0    0  0.56444360661E+02  0.69131658885E+02  0.11137493714E+03  0.14272185794E+03  0.00000000000E+00 0. -1.
         -5    1    5    5    0  502 -0.78064811801E+02 -0.60823744694E+02 -0.92768536188E+02  0.13572668885E+03  0.47000000000E+01 0.  1.
         13    1    6    6    0    0 -0.48675396637E+02 -0.20401722528E+01 -0.26464536776E+02  0.55442116188E+02  0.00000000000E+00 0. -1.
        -14    1    6    6    0    0 -0.13628916102E+03 -0.73036875819E+02  0.42361723694E+02  0.16032353625E+03  0.00000000000E+00 0.  1.
</event>
<event>
12    1  0.1046899E+000  0.1981892E+03  0.7818608E-02  0.1152220E+00
         21   -1    0    0  501  502  0.00000000000E+00  0.00000000000E+00  0.11600728927E+04  0.11600728927E+04  0.00000000000E+00 0. -1.
         21   -1    0    0  502  503 -0.00000000000E+00 -0.00000000000E+00 -0.33300990819E+02  0.33300990819E+02  0.00000000000E+00 0. -1.
         -6    2    1    2    0  503 -0.14258973133E+02  0.87407014463E+02  0.52521695128E+03  0.56136602788E+03  0.17730106275E+03 0.  0.
        -24    2    3    3    0    0  0.54535629701E+00  0.12787975065E+03  0.45417156611E+03  0.47813894515E+03  0.77404853656E+02 0.  0.
          6    2    1    2  501    0  0.14258973133E+02 -0.87407014463E+02  0.60155495056E+03  0.63200785560E+03  0.17240146898E+03 0.  0.
         24    2    5    5    0    0 -0.52397366856E+02 -0.49328514600E+02  0.43552715311E+03  0.44903146549E+03  0.82259160564E+02 0.  0.
          5    1    5    5  501    0  0.66656339989E+02 -0.38078499863E+02  0.16602779745E+03  0.18297639011E+03  0.47000000000E+01 0. -1.
        -13    1    6    6    0    0 -0.48649187941E+02 -0.65210010439E+02  0.41453386721E+03  0.42244220434E+03  0.00000000000E+00 0.  1.
         14    1    6    6    0    0 -0.37481789159E+01  0.15881495839E+02  0.20993285903E+02  0.26589261146E+02  0.00000000000E+00 0. -1.
         -5    1    3    3    0  503 -0.14804329430E+02 -0.40472736191E+02  0.71045385173E+02  0.83227082725E+02  0.47000000000E+01 0.  1.
         13    1    4    4    0    0 -0.24172737440E+02  0.44932834177E+02  0.26823988594E+03  0.27304929451E+03  0.00000000000E+00 0. -1.
        -14    1    4    4    0    0  0.24718093737E+02  0.82946916478E+02  0.18593168017E+03  0.20508965064E+03  0.00000000000E+00 0.  1.
</event>
<event>
12    1  0.1046899E+000  0.2142808E+03  0.7818608E-02  0.1138354E+00
         21   -1    0    0  501  502  0.00000000000E+00  0.00000000000E+00  0.26922251300E+03  0.26922251300E+03  0.00000000000E+00 0. -1.
         21   -1    0    0  502  503 -0.00000000000E+00 -0.00000000000E+00 -0.19281155502E+03  0.19281155502E+03  0.00000000000E+00 0. -1.
         -6    2    1    2    0  503  0.21595250675E+02  0.12715112690E+03 -0.41196911848E+02  0.21820509887E+03  0.17112134790E+03 0.  0.
        -24    2    3    3    0    0  0.99860386657E+01  0.15658717066E+03 -0.53721852607E+02  0.18385078885E+03  0.79346153832E+02 0.  0.
          6    2    1    2  501    0 -0.21595250675E+02 -0.12715112690E+03  0.11760786983E+03  0.24382896914E+03  0.17025625165E+03 0.  0.
         24    2    5    5    0    0 -0.26222474470E+02 -0.31894234833E+02  0.11844072550E+03  0.14834038169E+03  0.79194715724E+02 0.  0.
          5    1    5    5  501    0  0.46272237948E+01 -0.95256892064E+02 -0.83285567482E+00  0.95488587456E+02  0.47000000000E+01 0. -1.
        -13    1    6    6    0    0 -0.22855077763E+02 -0.21338554183E+02  0.19551761253E+01  0.31329078950E+02  0.00000000000E+00 0.  1.
         14    1    6    6    0    0 -0.33673967071E+01 -0.10555680649E+02  0.11648554938E+03  0.11701130274E+03  0.00000000000E+00 0. -1.
         -5    1    3    3    0  503  0.11609212009E+02 -0.29436043768E+02  0.12524940759E+02  0.34354310024E+02  0.47000000000E+01 0.  1.
         13    1    4    4    0    0  0.11980349583E+02  0.37536982795E+01 -0.25496698209E+02  0.28420074709E+02  0.00000000000E+00 0. -1.
        -14    1    4    4    0    0 -0.19943109175E+01  0.15283347238E+03 -0.28225154398E+02  0.15543071414E+03  0.00000000000E+00 0.  1.
</event>
<event>
12    1  0.1046899E+000  0.2233297E+03  0.7818608E-02  0.1131528E+00
         21   -1    0    0  503  502  0.00000000000E+00  0.00000000000E+00  0.46484130809E+02  0.46484130809E+02  0.00000000000E+00 0. -1.
         21   -1    0    0  501  503 -0.00000000000E+00 -0.00000000000E+00 -0.15625675514E+04  0.15625675514E+04  0.00000000000E+00 0. -1.
          6    2    1    2  501    0 -0.14076203788E+03 -0.16321514260E+02 -0.12089693530E+04  0.12293212575E+04  0.17188226986E+03 0.  0.
         24    2    3    3    0    0 -0.12688201001E+03  0.47431351543E+02 -0.89812017230E+03  0.91166360189E+03  0.78497780521E+02 0.  0.
         -6    2    1    2    0  502  0.14076203788E+03  0.16321514260E+02 -0.30711406762E+03  0.37973042466E+03  0.17261460468E+03 0.  0.
        -24    2    5    5    0    0  0.28657080226E+02  0.23472369203E+01 -0.22420778311E+03  0.23952220818E+03  0.79215026581E+02 0.  0.
          5    1    3    3  501    0 -0.13880027874E+02 -0.63752865803E+02 -0.31084918066E+03  0.31765765564E+03  0.47000000000E+01 0. -1.
        -11    1    4    4    0    0 -0.89230664967E+02 -0.65762385789E+01 -0.57313604578E+03  0.58007782707E+03  0.00000000000E+00 0.  1.
         12    1    4    4    0    0 -0.37651345039E+02  0.54007590122E+02 -0.32498412652E+03  0.33158577482E+03  0.00000000000E+00 0. -1.
         -5    1    5    5    0  502  0.11210495765E+03  0.13974277340E+02 -0.82906284507E+02  0.14020821648E+03  0.47000000000E+01 0.  1.
         11    1    6    6    0    0 -0.14303655444E+02 -0.26248086327E+02 -0.11360360267E+03  0.11747057135E+03  0.00000000000E+00 0. -1.
        -12    1    6    6    0    0  0.42960735670E+02  0.28595323248E+02 -0.11060418045E+03  0.12205163683E+03  0.00000000000E+00 0.  1.
</event>
<event>
12    1  0.1046899E+000  0.2515710E+03  0.7818608E-02  0.1112376E+00
         21   -1    0    0  501  502  0.00000000000E+00  0.00000000000E+00  0.12041543330E+04  0.12041543330E+04  0.00000000000E+00 0.  1.
         21   -1    0    0  502  503 -0.00000000000E+00 -0.00000000000E+00 -0.61659329589E+02  0.61659329589E+02  0.00000000000E+00 0.  1.
         -6    2    1    2    0  503 -0.15328315438E+03 -0.99099908041E+02  0.81584084542E+03  0.85374718260E+03  0.17312264309E+03 0.  0.
        -24    2    3    3    0    0 -0.48587339713E+02 -0.40223772181E+02  0.57576044424E+03  0.58525453463E+03  0.83929135144E+02 0.  0.
          6    2    1    2  501    0  0.15328315438E+03  0.99099908041E+02  0.32665415804E+03  0.41206648004E+03  0.17256687925E+03 0.  0.
         24    2    5    5    0    0  0.49160721083E+02  0.56107196244E+02  0.25769822732E+03  0.27990421324E+03  0.79832313368E+02 0.  0.
          5    1    5    5  501    0  0.10412243330E+03  0.42992711797E+02  0.68955930717E+02  0.13216226679E+03  0.47000000000E+01 0. -1.
        -13    1    6    6    0    0 -0.11815542724E+02 -0.12651773976E+02  0.37880740865E+02  0.41648829072E+02  0.00000000000E+00 0.  1.
         14    1    6    6    0    0  0.60976263806E+02  0.68758970220E+02  0.21981748646E+03  0.23825538417E+03  0.00000000000E+00 0. -1.
         -5    1    3    3    0  503 -0.10469581467E+03 -0.58876135860E+02  0.24008040118E+03  0.26849264797E+03  0.47000000000E+01 0.  1.
         13    1    4    4    0    0 -0.55948871818E+02 -0.59819594339E+02  0.49960894603E+03  0.50627834151E+03  0.00000000000E+00 0. -1.
        -14    1    4    4    0    0  0.73615321054E+01  0.19595822157E+02  0.76151498209E+02  0.78976193124E+02  0.00000000000E+00 0.  1.
</event>
<event>
12    1  0.1046899E+000  0.2205983E+03  0.7818608E-02  0.1133807E+00
         21   -1    0    0  503  502  0.00000000000E+00  0.00000000000E+00  0.31488451786E+03  0.31488451786E+03  0.00000000000E+00 0. -1.
         21   -1    0    0  501  503 -0.00000000000E+00 -0.00000000000E+00 -0.16687354428E+03  0.16687354428E+03  0.00000000000E+00 0. -1.
          6    2    1    2  501    0 -0.13342541726E+03  0.19127956115E+02  0.14274973851E+03  0.26109704438E+03  0.17212192791E+03 0.  0.
         24    2    3    3    0    0 -0.77781701918E+02  0.78117198584E+02  0.10067213046E+03  0.16961716199E+03  0.80515923411E+02 0.  0.
         -6    2    1    2    0  502  0.13342541726E+03 -0.19127956115E+02  0.52612350779E+01  0.22066101776E+03  0.17462927443E+03 0.  0.
        -24    2    5    5    0    0  0.74277844676E+02  0.55720897594E+02  0.22136352807E+02  0.12366799820E+03  0.78624035927E+02 0.  0.
          5    1    3    3  501    0 -0.55643715340E+02 -0.58989242469E+02  0.42077608048E+02  0.91479882395E+02  0.47000000000E+01 0. -1.
        -13    1    4    4    0    0 -0.86485044479E+02  0.66771774223E+02  0.56130027710E+02  0.12283612157E+03  0.00000000000E+00 0.  1.
         14    1    4    4    0    0  0.87033425611E+01  0.11345424361E+02  0.44542102748E+02  0.46781040421E+02  0.00000000000E+00 0. -1.
         -5    1    5    5    0  502  0.59147572582E+02 -0.74848853709E+02 -0.16875117729E+02  0.96993019555E+02  0.47000000000E+01 0.  1.
         13    1    6    6    0    0  0.26479195816E+02 -0.15952221284E+02  0.21252572843E+02  0.37513904455E+02  0.00000000000E+00 0. -1.
        -14    1    6    6    0    0  0.47798648859E+02  0.71673118878E+02  0.88377996313E+00  0.86154093748E+02  0.00000000000E+00 0.  1.
</event>
<event>
12    1  0.1046899E+000  0.1720471E+03  0.7818608E-02  0.1177558E+00
         21   -1    0    0  503  502  0.00000000000E+00  0.00000000000E+00  0.14531533066E+03  0.14531533066E+03  0.00000000000E+00 0. -1.
         21   -1    0    0  501  503 -0.00000000000E+00 -0.00000000000E+00 -0.19561127628E+03  0.19561127628E+03  0.00000000000E+00 0. -1.
          6    2    1    2  501    0  0.16722423812E+02  0.14728313944E+02 -0.29082444608E+02  0.17448783130E+03  0.17059792495E+03 0.  0.
         24    2    3    3    0    0  0.18421859648E+02  0.35412339724E+02  0.44371237618E+02  0.98013976702E+02  0.77746602392E+02 0.  0.
         -6    2    1    2    0  502 -0.16722423812E+02 -0.14728313944E+02 -0.21213501016E+02  0.16643877564E+03  0.16357044574E+03 0.  0.
        -24    2    5    5    0    0  0.37945726796E+02 -0.44857554133E+02  0.40013019789E+01  0.98953561734E+02  0.79521812211E+02 0.  0.
          5    1    3    3  501    0 -0.16994358352E+01 -0.20684025780E+02 -0.73453682226E+02  0.76473854599E+02  0.47000000000E+01 0. -1.
        -13    1    4    4    0    0  0.22768247485E+02 -0.95362062874E+01 -0.10607056242E+02  0.26867116816E+02  0.00000000000E+00 0.  1.
         14    1    4    4    0    0 -0.43463878377E+01  0.44948546011E+02  0.54978293860E+02  0.71146859885E+02  0.00000000000E+00 0. -1.
         -5    1    5    5    0  502 -0.54668150609E+02  0.30129240189E+02 -0.25214802995E+02  0.67485213902E+02  0.47000000000E+01 0.  1.
         13    1    6    6    0    0  0.14904784843E+02 -0.49576445447E+02  0.33170372464E+02  0.61483739019E+02  0.00000000000E+00 0. -1.
        -14    1    6    6    0    0  0.23040941954E+02  0.47188913137E+01 -0.29169070485E+02  0.37469822715E+02  0.00000000000E+00 0.  1.
</event>
<event>
12    1  0.1046899E+000  0.2971472E+03  0.7818608E-02  0.1087600E+00
         21   -1    0    0  501  502  0.00000000000E+00  0.00000000000E+00  0.22187537633E+04  0.22187537633E+04  0.00000000000E+00 0.  1.
         21   -1    0    0  502  503 -0.00000000000E+00 -0.00000000000E+00 -0.69321673515E+02  0.69321673515E+02  0.00000000000E+00 0.  1.
         -6    2    1    2    0  503 -0.16367715850E+03 -0.16685236363E+03  0.18259654614E+04  0.18488407126E+04  0.17155812725E+03 0.  0.
        -24    2    3    3    0    0 -0.96485303875E+02 -0.79192491235E+02  0.59019056808E+03  0.60813096596E+03  0.76925292148E+02 0.  0.
          6    2    1    2  501    0  0.16367715850E+03  0.16685236363E+03  0.32346662840E+03  0.43923472420E+03  0.18348449467E+03 0.  0.
         24    2    5    5    0    0  0.13966963077E+03  0.11842448860E+03  0.33023391965E+03  0.38455834265E+03  0.72792252056E+02 0.  0.
          5    1    5    5  501    0  0.24007527728E+02  0.48427875032E+02 -0.67672912437E+01  0.54676381541E+02  0.47000000000E+01 0. -1.
        -11    1    6    6    0    0  0.30490803503E+02  0.40684435870E+02  0.16006633892E+03  0.16794685254E+03  0.00000000000E+00 0.  1.
         12    1    6    6    0    0  0.10917882727E+03  0.77740052729E+02  0.17016758073E+03  0.21661149012E+03  0.00000000000E+00 0. -1.
         -5    1    3    3    0  503 -0.67191854621E+02 -0.87659872396E+02  0.12357748933E+04  0.12407097467E+04  0.47000000000E+01 0.  1.
         13    1    4    4    0    0 -0.95874831439E+02 -0.76243849849E+02  0.59205171072E+03  0.60459104865E+03  0.00000000000E+00 0. -1.
        -14    1    4    4    0    0 -0.61047243657E+00 -0.29486413857E+01 -0.18611426379E+01  0.35399173064E+01  0.00000000000E+00 0.  1.
</event>
<event>
12    1  0.1046899E+000  0.1850019E+03  0.7818608E-02  0.1164263E+00
         21   -1    0    0  501  502  0.00000000000E+00  0.00000000000E+00  0.59172837725E+02  0.59172837725E+02  0.00000000000E+00 0. -1.
         21   -1    0    0  502  503 -0.00000000000E+00 -0.00000000000E+00 -0.60159688003E+03  0.60159688003E+03  0.00000000000E+00 0. -1.
         -6    2    1    2    0  503  0.22555077003E+02 -0.55481781982E+02 -0.35900007833E+03  0.40386477244E+03  0.17503924858E+03 0.  0.
        -24    2    3    3    0    0 -0.40664010353E+01  0.74973025028E+01 -0.71643548731E+02  0.10844823045E+03  0.80965890666E+02 0.  0.
          6    2    1    2  501    0 -0.22555077003E+02  0.55481781982E+02 -0.18342396397E+03  0.25690494532E+03  0.16961379878E+03 0.  0.
         24    2    5    5    0    0  0.26376039911E+02  0.64330386767E+02 -0.55474395452E+02  0.11955235490E+03  0.79882807090E+02 0.  0.
          5    1    5    5  501    0 -0.48931116914E+02 -0.88486047847E+01 -0.12794956852E+03  0.13735259042E+03  0.47000000000E+01 0. -1.
        -13    1    6    6    0    0 -0.60172646729E+01  0.36119205643E+02  0.12884221079E+02  0.38817620267E+02  0.00000000000E+00 0.  1.
         14    1    6    6    0    0  0.32393304584E+02  0.28211181124E+02 -0.68358616531E+02  0.80734734633E+02  0.00000000000E+00 0. -1.
         -5    1    3    3    0  503  0.26621478039E+02 -0.62979084485E+02 -0.28735652960E+03  0.29541654199E+03  0.47000000000E+01 0.  1.
         13    1    4    4    0    0  0.24023083199E+02  0.33332015094E+02 -0.24664384750E+02  0.47921431863E+02  0.00000000000E+00 0. -1.
        -14    1    4    4    0    0 -0.28089484235E+02 -0.25834712592E+02 -0.46979163981E+02  0.60526798590E+02  0.00000000000E+00 0.  1.
</event>
<event>
12    1  0.1046899E+000  0.1723690E+03  0.7818608E-02  0.1177165E+00
         21   -1    0    0  501  502  0.00000000000E+00  0.00000000000E+00  0.11675564056E+04  0.11675564056E+04  0.00000000000E+00 0.  1.
         21   -1    0    0  502  503 -0.00000000000E+00 -0.00000000000E+00 -0.26297915271E+02  0.26297915271E+02  0.00000000000E+00 0.  1.
         -6    2    1    2    0  503  0.12101171046E+00 -0.18915789803E+01  0.71777403649E+03  0.73663430710E+03  0.16561081553E+03 0.  0.
        -24    2    3    3    0    0 -0.12092408942E+02  0.46987858228E+02  0.61318328030E+03  0.62044616955E+03  0.81275020150E+02 0.  0.
          6    2    1    2  501    0 -0.12101171046E+00  0.18915789803E+01  0.42348445379E+03  0.45722001373E+03  0.17235853803E+03 0.  0.
         24    2    5    5    0    0 -0.86501137828E+01  0.21581391503E+02  0.80792401076E+02  0.11382466243E+03  0.76733700399E+02 0.  0.
          5    1    5    5  501    0  0.85291020724E+01 -0.19689812523E+02  0.34269205272E+03  0.34339535130E+03  0.47000000000E+01 0. -1.
        -11    1    6    6    0    0  0.23701184705E+02 -0.14061647623E+02  0.48747363138E+02  0.55998049102E+02  0.00000000000E+00 0.  1.
         12    1    6    6    0    0 -0.32351298488E+02  0.35643039127E+02  0.32045037938E+02  0.57826613324E+02  0.00000000000E+00 0. -1.
         -5    1    3    3    0  503  0.12213420652E+02 -0.48879437208E+02  0.10459075619E+03  0.11618813755E+03  0.47000000000E+01 0.  1.
         13    1    4    4    0    0  0.28368743829E+02 -0.42605305964E+01  0.15479593718E+03  0.15743163569E+03  0.00000000000E+00 0. -1.
        -14    1    4    4    0    0 -0.40461152771E+02  0.51248388824E+02  0.45838734312E+03  0.46301453387E+03  0.00000000000E+00 0.  1.
</event>
<event>
12    1  0.1046899E+000  0.2873824E+03  0.7818608E-02  0.1091849E+00
         21   -1    0    0  503  502  0.00000000000E+00  0.00000000000E+00  0.26343836193E+03  0.26343836193E+03  0.00000000000E+00 0.  1.
         21   -1    0    0  501  503 -0.00000000000E+00 -0.00000000000E+00 -0.39889794634E+03  0.39889794634E+03  0.00000000000E+00 0.  1.
          6    2    1    2  501    0 -0.14402769424E+03  0.18025246943E+03 -0.22196679036E+03  0.36312243683E+03  0.17132926972E+03 0.  0.
         24    2    3    3    0    0 -0.96917058694E+00  0.52694400763E+02 -0.84678382903E+02  0.12731107389E+03  0.79120426185E+02 0.  0.
         -6    2    1    2    0  502  0.14402769424E+03 -0.18025246943E+03  0.86507205944E+02  0.29921387144E+03  0.16973660401E+03 0.  0.
        -24    2    5    5    0    0  0.27395240449E+02 -0.89423640140E+02  0.88094590314E+02  0.15130303582E+03  0.79905351447E+02 0.  0.
          5    1    3    3  501    0 -0.14305852365E+03  0.12755806866E+03 -0.13728840745E+03  0.23581136294E+03  0.47000000000E+01 0. -1.
        -11    1    4    4    0    0 -0.38089868511E+02  0.12556980038E+02 -0.40773672425E+02  0.57192728506E+02  0.00000000000E+00 0.  1.
         12    1    4    4    0    0  0.37120697924E+02  0.40137420726E+02 -0.43904710477E+02  0.70118345381E+02  0.00000000000E+00 0. -1.
         -5    1    5    5    0  502  0.11663245379E+03 -0.90828829288E+02 -0.15873843697E+01  0.14791083563E+03  0.47000000000E+01 0.  1.
         11    1    6    6    0    0  0.49316556770E+02 -0.81154837799E+02  0.51994488319E+02  0.10826660282E+03  0.00000000000E+00 0. -1.
        -12    1    6    6    0    0 -0.21921316321E+02 -0.82688023408E+01  0.36100101994E+02  0.43036433001E+02  0.00000000000E+00 0.  1.
</event>
<event>
12    1  0.1046899E+000  0.1886362E+03  0.7818608E-02  0.1159915E+00
         21   -1    0    0  501  502  0.00000000000E+00  0.00000000000E+00  0.59160568890E+02  0.59160568890E+02  0.00000000000E+00 0.  1.
         21   -1    0    0  502  503 -0.00000000000E+00 -0.00000000000E+00 -0.12329297589E+04  0.12329297589E+04  0.00000000000E+00 0.  1.
         -6    2    1    2    0  503  0.74082274190E+02 -0.21523309257E+02 -0.12415263358E+03  0.22582628130E+03  0.17214004970E+03 0.  0.
        -24    2    3    3    0    0  0.82514369413E+02 -0.67602625177E+02 -0.53941383423E+02  0.14129159473E+03  0.75331970673E+02 0.  0.
          6    2    1    2  501    0 -0.74082274190E+02  0.21523309257E+02 -0.10496165564E+04  0.10662640465E+04  0.17109256297E+03 0.  0.
         24    2    5    5    0    0 -0.10697540990E+03 -0.19958682659E+02 -0.75135033822E+03  0.76329945952E+03  0.79098968537E+02 0.  0.
          5    1    5    5  501    0  0.32893135706E+02  0.41481991916E+02 -0.29826621822E+03  0.30296458698E+03  0.47000000000E+01 0. -1.
        -11    1    6    6    0    0 -0.71527981601E+02 -0.48839979770E+02 -0.42256053670E+03  0.43134557254E+03  0.00000000000E+00 0.  1.
         12    1    6    6    0    0 -0.35447428296E+02  0.28881297111E+02 -0.32878980153E+03  0.33195388698E+03  0.00000000000E+00 0. -1.
         -5    1    3    3    0  503 -0.84320952224E+01  0.46079315921E+02 -0.70211250153E+02  0.84534686571E+02  0.47000000000E+01 0.  1.
         13    1    4    4    0    0  0.85756381815E+01 -0.34767922126E+02 -0.48390897832E+02  0.60199908407E+02  0.00000000000E+00 0. -1.
        -14    1    4    4    0    0  0.73938731231E+02 -0.32834703051E+02 -0.55504855908E+01  0.81091686324E+02  0.00000000000E+00 0.  1.
</event>
<event>
12    1  0.1046899E+000  0.3552133E+03  0.7818608E-02  0.1060689E+00
         21   -1    0    0  503  502  0.00000000000E+00  0.00000000000E+00  0.33263945584E+03  0.33263945584E+03  0.00000000000E+00 0.  1.
         21   -1    0    0  501  503 -0.00000000000E+00 -0.00000000000E+00 -0.37842882198E+03  0.37842882198E+03  0.00000000000E+00 0. -1.
          6    2    1    2  501    0  0.23178505775E+03 -0.20587642757E+03 -0.42460496529E+02  0.35583934939E+03  0.16943828488E+03 0.  0.
         24    2    3    3    0    0  0.44096499754E+02 -0.10451917727E+03 -0.27306961319E+01  0.13881208375E+03  0.79953600203E+02 0.  0.
         -6    2    1    2    0  502 -0.23178505775E+03  0.20587642757E+03 -0.33288696065E+01  0.35522892844E+03  0.17339865571E+03 0.  0.
        -24    2    5    5    0    0 -0.93500060314E+02  0.17250822520E+03 -0.14063154460E+02  0.21249318548E+03  0.80338238229E+02 0.  0.
          5    1    3    3  501    0  0.18768855800E+03 -0.10135725030E+03 -0.39729800397E+02  0.21702726564E+03  0.47000000000E+01 0. -1.
        -11    1    4    4    0    0  0.54717960534E+02 -0.97796788468E+02 -0.23532020137E+02  0.11450774215E+03  0.00000000000E+00 0.  1.
         12    1    4    4    0    0 -0.10621460780E+02 -0.67223888008E+01  0.20801324005E+02  0.24304341601E+02  0.00000000000E+00 0. -1.
         -5    1    5    5    0  502 -0.13828499744E+03  0.33368202363E+02  0.10734284853E+02  0.14273574296E+03  0.47000000000E+01 0.  1.
         13    1    6    6    0    0 -0.81289816857E+02  0.76340032823E+02 -0.26878336755E+02  0.11470954591E+03  0.00000000000E+00 0. -1.
        -14    1    6    6    0    0 -0.12210243457E+02  0.96168192379E+02  0.12815182295E+02  0.97783639572E+02  0.00000000000E+00 0.  1.
</event>
<event>
12    1  0.1046899E+000  0.2300866E+03  0.7818608E-02  0.1126608E+00
         21   -1    0    0  501  502  0.00000000000E+00  0.00000000000E+00  0.56341945149E+03  0.56341945149E+03  0.00000000000E+00 0.  1.
         21   -1    0    0  502  503 -0.00000000000E+00 -0.00000000000E+00 -0.15493164079E+03  0.15493164079E+03  0.00000000000E+00 0.  1.
         -6    2    1    2    0  503 -0.74700385091E+02  0.13375041590E+03  0.42973062420E+03  0.48745077766E+03  0.17166982839E+03 0.  0.
        -24    2    3    3    0    0 -0.14609427988E+02  0.10732870890E+03  0.38393832804E+03  0.40727563117E+03  0.82048235019E+02 0.  0.
          6    2    1    2  501    0  0.74700385091E+02 -0.13375041590E+03 -0.21242813496E+02  0.23090031462E+03  0.17144788386E+03 0.  0.
         24    2    5    5    0    0  0.86813629246E+02 -0.16110502080E+03 -0.18298276236E+02  0.20047392158E+03  0.79771751718E+02 0.  0.
          5    1    5    5  501    0 -0.12113244155E+02  0.27354604906E+02 -0.29445372603E+01  0.30426393036E+02  0.47000000000E+01 0. -1.
        -13    1    6    6    0    0  0.16129030696E+02 -0.40043602099E+02 -0.39717226494E+02  0.58660836856E+02  0.00000000000E+00 0.  1.
         14    1    6    6    0    0  0.70684598550E+02 -0.12106141870E+03  0.21418950257E+02  0.14181308473E+03  0.00000000000E+00 0. -1.
         -5    1    3    3    0  503 -0.60090957104E+02  0.26421706994E+02  0.45792296162E+02  0.80175146485E+02  0.47000000000E+01 0.  1.
         13    1    4    4    0    0  0.24855489987E+02  0.70043789416E+02  0.15375652329E+03  0.17077762228E+03  0.00000000000E+00 0. -1.
        -14    1    4    4    0    0 -0.39464917975E+02  0.37284919485E+02  0.23018180475E+03  0.23649800889E+03  0.00000000000E+00 0.  1.
</event>
<event>
12    1  0.1046899E+000  0.2190699E+03  0.7818608E-02  0.1134768E+00
         21   -1    0    0  501  502  0.00000000000E+00  0.00000000000E+00  0.29900942569E+03  0.29900942569E+03  0.00000000000E+00 0.  1.
         21   -1    0    0  502  503 -0.00000000000E+00 -0.00000000000E+00 -0.17238916716E+03  0.17238916716E+03  0.00000000000E+00 0.  1.
         -6    2    1    2    0  503  0.73532928186E+02 -0.11218875388E+03  0.12696600868E+03  0.25232838947E+03  0.17191812222E+03 0.  0.
        -24    2    3    3    0    0  0.35271903236E+02 -0.89470702138E+02  0.88968228389E+01  0.12606501968E+03  0.81019269508E+02 0.  0.
          6    2    1    2  501    0 -0.73532928186E+02  0.11218875388E+03 -0.34575014514E+00  0.21907020338E+03  0.17319996086E+03 0.  0.
         24    2    5    5    0    0 -0.10425242185E+03  0.38025275477E+02 -0.10046989523E+02  0.13807567970E+03  0.81544235168E+02 0.  0.
          5    1    5    5  501    0  0.30719493667E+02  0.74163478407E+02  0.97012393776E+01  0.80994523679E+02  0.47000000000E+01 0. -1.
        -11    1    6    6    0    0 -0.33030621383E+02  0.53188928312E+02  0.78215809758E+01  0.63097235858E+02  0.00000000000E+00 0.  1.
         12    1    6    6    0    0 -0.71221800470E+02 -0.15163652835E+02 -0.17868570499E+02  0.74978443843E+02  0.00000000000E+00 0. -1.
         -5    1    3    3    0  503  0.38261024950E+02 -0.22718051746E+02  0.11806918584E+03  0.12626336979E+03  0.47000000000E+01 0.  1.
         11    1    4    4    0    0  0.49567052138E+01 -0.35031015143E+02  0.42476986081E+02  0.55281419076E+02  0.00000000000E+00 0. -1.
        -12    1    4    4    0    0  0.30315198022E+02 -0.54439686995E+02 -0.33580163242E+02  0.70783600605E+02  0.00000000000E+00 0.  1.
</event>
<event>
12    1  0.1046899E+000  0.2134975E+03  0.7818608E-02  0.1138839E+00
         21   -1    0    0  503  502  0.00000000000E+00  0.00000000000E+00  0.39579421565E+03  0.39579421565E+03  0.00000000000E+00 0.  1.
         21   -1    0    0  501  503 -0.00000000000E+00 -0.00000000000E+00 -0.15890028307E+03  0.15890028307E+03  0.00000000000E+00 0. -1.
          6    2    1    2  501    0  0.12194606546E+03  0.20958853094E+02 -0.27136814991E+02  0.21514564583E+03  0.17389975787E+03 0.  0.
         24    2    3    3    0    0  0.15144323478E+03  0.41843921074E+02 -0.14491724374E+02  0.17656770681E+03  0.79247573588E+02 0.  0.
         -6    2    1    2    0  502 -0.12194606546E+03 -0.20958853094E+02  0.26403074758E+03  0.33954885289E+03  0.17398583685E+03 0.  0.
        -24    2    5    5    0    0 -0.14446290880E+03  0.14994801436E+02  0.17749362354E+03  0.24305824535E+03  0.80491913513E+02 0.  0.
          5    1    3    3  501    0 -0.29497169320E+02 -0.20885067980E+02 -0.12645090617E+02  0.38577939022E+02  0.47000000000E+01 0. -1.
        -13    1    4    4    0    0  0.52134440883E+02  0.53768059538E+02  0.33436743975E+01  0.74967888534E+02  0.00000000000E+00 0.  1.
         14    1    4    4    0    0  0.99308793901E+02 -0.11924138464E+02 -0.17835398772E+02  0.10159981828E+03  0.00000000000E+00 0. -1.
         -5    1    5    5    0  502  0.22516843340E+02 -0.35953654530E+02  0.86537124033E+02  0.96490607542E+02  0.47000000000E+01 0.  1.
         13    1    6    6    0    0 -0.66081519567E+02  0.43110896697E+02  0.60356871342E+02  0.99339159250E+02  0.00000000000E+00 0. -1.
        -14    1    6    6    0    0 -0.78381389238E+02 -0.28116095262E+02  0.11713675220E+03  0.14371908609E+03  0.00000000000E+00 0.  1.
</event>
<event>
12    1  0.1046899E+000  0.1833497E+03  0.7818608E-02  0.1165462E+00
         21   -1    0    0  501  502  0.00000000000E+00  0.00000000000E+00  0.46467518211E+03  0.46467518211E+03  0.00000000000E+00 0. -1.
         21   -1    0    0  502  503 -0.00000000000E+00 -0.00000000000E+00 -0.88135236498E+02  0.88135236498E+02  0.00000000000E+00 0. -1.
         -6    2    1    2    0  503  0.35859624436E+02  0.47585275723E+02  0.64634877933E+02  0.19100675376E+03  0.16957488437E+03 0.  0.
        -24    2    3    3    0    0  0.14076055588E+02  0.57224092850E+01  0.10225331471E+03  0.13047362033E+03  0.79603667786E+02 0.  0.
          6    2    1    2  501    0 -0.35859624436E+02 -0.47585275723E+02  0.31190506768E+03  0.36180366485E+03  0.17339795132E+03 0.  0.
         24    2    5    5    0    0  0.15851861205E+02  0.11668460984E+02  0.67804254893E+02  0.10530341170E+03  0.78127825058E+02 0.  0.
          5    1    5    5  501    0 -0.51711485641E+02 -0.59253736707E+02  0.24410081279E+03  0.25650025315E+03  0.47000000000E+01 0. -1.
        -11    1    6    6    0    0 -0.27236164853E+02  0.23283309274E+02  0.32956769228E+02  0.48683362709E+02  0.00000000000E+00 0.  1.
         12    1    6    6    0    0  0.43088026058E+02 -0.11614848290E+02  0.34847485664E+02  0.56620048989E+02  0.00000000000E+00 0. -1.
         -5    1    3    3    0  503  0.21783568848E+02  0.41862866438E+02 -0.37618436772E+02  0.60533133434E+02  0.47000000000E+01 0.  1.
         11    1    4    4    0    0  0.16705706152E+02 -0.17180562778E+02  0.10459178159E+03  0.10730187851E+03  0.00000000000E+00 0. -1.
        -12    1    4    4    0    0 -0.26296505638E+01  0.22902972063E+02 -0.23384668898E+01  0.23171741817E+02  0.00000000000E+00 0.  1.
</event>
<event>
12    1  0.1046899E+000  0.4469247E+03  0.7818608E-02  0.1028707E+00
         21   -1    0    0  501  502  0.00000000000E+00  0.00000000000E+00  0.10949990479E+04  0.10949990479E+04  0.00000000000E+00 0.  1.
         21   -1    0    0  502  503 -0.00000000000E+00 -0.00000000000E+00 -0.20939012008E+03  0.20939012008E+03  0.00000000000E+00 0.  1.
         -6    2    1    2    0  503 -0.72064516618E+02  0.40533026015E+03  0.20756809000E+03  0.49277394504E+03  0.17394175625E+03 0.  0.
        -24    2    3    3    0    0 -0.97825232672E+02  0.34564922238E+03  0.21702833635E+03  0.42691783656E+03  0.78194496732E+02 0.  0.
          6    2    1    2  501    0  0.72064516618E+02 -0.40533026015E+03  0.67804083777E+03  0.81161522291E+03  0.17173810879E+03 0.  0.
         24    2    5    5    0    0  0.53786815341E+02 -0.93798845530E+02  0.20624861158E+03  0.24593342953E+03  0.79079182177E+02 0.  0.
          5    1    5    5  501    0  0.18277701277E+02 -0.31153141462E+03  0.47179222620E+03  0.56568179338E+03  0.47000000000E+01 0. -1.
        -13    1    6    6    0    0  0.65290681833E+02 -0.50720800915E+02  0.16778100527E+03  0.18704528465E+03  0.00000000000E+00 0.  1.
         14    1    6    6    0    0 -0.11503866492E+02 -0.43078044615E+02  0.38467606305E+02  0.58888144876E+02  0.00000000000E+00 0. -1.
         -5    1    3    3    0  503  0.25760716054E+02  0.59681037778E+02 -0.94602463565E+01  0.65856108471E+02  0.47000000000E+01 0.  1.
         11    1    4    4    0    0 -0.44905179077E+01  0.24395098026E+01  0.19324896975E+02  0.19989187134E+02  0.00000000000E+00 0. -1.
        -12    1    4    4    0    0 -0.93334714764E+02  0.34320971257E+03  0.19770343938E+03  0.40692864943E+03  0.00000000000E+00 0.  1.
</event>
<event>
12    1  0.1046899E+000  0.3390966E+03  0.7818608E-02  0.1067261E+00
         21   -1    0    0  503  502  0.00000000000E+00  0.00000000000E+00  0.12991907618E+03  0.12991907618E+03  0.00000000000E+00 0.  1.
         21   -1    0    0  501  503 -0.00000000000E+00 -0.00000000000E+00 -0.98253131586E+03  0.98253131586E+03  0.00000000000E+00 0. -1.
          6    2    1    2  501    0 -0.23442789401E+03 -0.17418233969E+03 -0.60364649824E+03  0.69236955176E+03  0.17230953664E+03 0.  0.
         24    2    3    3    0    0 -0.14623871535E+03 -0.56615512340E+02 -0.43432029779E+03  0.46810911770E+03  0.76817621013E+02 0.  0.
         -6    2    1    2    0  502  0.23442789401E+03  0.17418233969E+03 -0.24896574144E+03  0.42008084028E+03  0.17084509653E+03 0.  0.
        -24    2    5    5    0    0  0.18886341267E+03  0.62154270019E+02 -0.13079406655E+03  0.25092693077E+03  0.79527949904E+02 0.  0.
          5    1    3    3  501    0 -0.88189178655E+02 -0.11756682735E+03 -0.16932620046E+03  0.22426043406E+03  0.47000000000E+01 0. -1.
        -13    1    4    4    0    0 -0.51604823779E+02  0.10916083862E+02 -0.85874912901E+02  0.10078055065E+03  0.00000000000E+00 0.  1.
         14    1    4    4    0    0 -0.94633891574E+02 -0.67531596203E+02 -0.34844538489E+03  0.36732856705E+03  0.00000000000E+00 0. -1.
         -5    1    5    5    0  502  0.45564481338E+02  0.11202806967E+03 -0.11817167489E+03  0.16915390950E+03  0.47000000000E+01 0.  1.
         13    1    6    6    0    0  0.12421762077E+03  0.19967590941E+02 -0.11836464774E+03  0.17273943335E+03  0.00000000000E+00 0. -1.
        -14    1    6    6    0    0  0.64645791901E+02  0.42186679078E+02 -0.12429418808E+02  0.78187497428E+02  0.00000000000E+00 0.  1.
</event>
<event>
12    1  0.1046899E+000  0.3198480E+03  0.7818608E-02  0.1075996E+00
         21   -1    0    0  503  502  0.00000000000E+00  0.00000000000E+00  0.10331298441E+04  0.10331298441E+04  0.00000000000E+00 0. -1.
         21   -1    0    0  501  503 -0.00000000000E+00 -0.00000000000E+00 -0.10450168652E+03  0.10450168652E+03  0.00000000000E+00 0. -1.
          6    2    1    2  501    0 -0.58302203539E+01  0.26883216679E+03  0.60143852909E+03  0.68007735451E+03  0.16873700981E+03 0.  0.
         24    2    3    3    0    0  0.20868142299E+02  0.26727973468E+03  0.47875005861E+03  0.55442002921E+03  0.79410416436E+02 0.  0.
         -6    2    1    2    0  502  0.58302203539E+01 -0.26883216679E+03  0.32718962849E+03  0.45755417611E+03  0.17319943912E+03 0.  0.
        -24    2    5    5    0    0  0.33468890542E+02 -0.50196350435E+02  0.10613610631E+03  0.14538072120E+03  0.78935675088E+02 0.  0.
          5    1    3    3  501    0 -0.26698362652E+02  0.15524321109E+01  0.12268847048E+03  0.12565732530E+03  0.47000000000E+01 0. -1.
        -11    1    4    4    0    0  0.19196898687E+02  0.13378989137E+03  0.16393625100E+03  0.21246964570E+03  0.00000000000E+00 0.  1.
         12    1    4    4    0    0  0.16712436115E+01  0.13348984331E+03  0.31481380761E+03  0.34195038352E+03  0.00000000000E+00 0. -1.
         -5    1    5    5    0  502 -0.27638670188E+02 -0.21863581635E+03  0.22105352218E+03  0.31217345491E+03  0.47000000000E+01 0.  1.
         13    1    6    6    0    0  0.70487883553E+01 -0.65427121495E+02  0.54644441906E+02  0.85536008064E+02  0.00000000000E+00 0. -1.
        -14    1    6    6    0    0  0.26420102187E+02  0.15230771060E+02  0.51491664407E+02  0.59844713133E+02  0.00000000000E+00 0.  1.
</event>
<event>
12    1  0.1046899E+000  0.1994297E+03  0.7818608E-02  0.1152001E+00
         21   -1    0    0  503  502  0.00000000000E+00  0.00000000000E+00  0.79471514176E+02  0.79471514176E+02  0.00000000000E+00 0.  1.
         21   -1    0    0  501  503 -0.00000000000E+00 -0.00000000000E+00 -0.60249540836E+03  0.60249540836E+03  0.00000000000E+00 0.  1.
          6    2    1    2  501    0 -0.42498454070E+02 -0.93937824462E+02 -0.41959052942E+03  0.46457337677E+03  0.17070962644E+03 0.  0.
         24    2    3    3    0    0 -0.16886712972E+02 -0.17517797007E+02 -0.82652107648E+02  0.11809744406E+03  0.80768812723E+02 0.  0.
         -6    2    1    2    0  502  0.42498454070E+02  0.93937824462E+02 -0.10343336477E+03  0.21739354577E+03  0.16103123713E+03 0.  0.
        -24    2    5    5    0    0 -0.29790554841E+02  0.76364039036E+02 -0.76319184685E+02  0.13807263109E+03  0.80749550404E+02 0.  0.
          5    1    3    3  501    0 -0.25611741098E+02 -0.76420027455E+02 -0.33693842177E+03  0.34647593271E+03  0.47000000000E+01 0. -1.
        -11    1    4    4    0    0 -0.10693132230E+02  0.30190026157E+02 -0.15741113652E+02  0.35687020263E+02  0.00000000000E+00 0.  1.
         12    1    4    4    0    0 -0.61935807420E+01 -0.47707823164E+02 -0.66910993996E+02  0.82410423800E+02  0.00000000000E+00 0. -1.
         -5    1    5    5    0  502  0.72289008910E+02  0.17573785425E+02 -0.27114180082E+02  0.79320914675E+02  0.47000000000E+01 0.  1.
         13    1    6    6    0    0  0.19532419856E+02  0.11473772248E+02  0.47140109570E+01  0.23138383140E+02  0.00000000000E+00 0. -1.
        -14    1    6    6    0    0 -0.49322974696E+02  0.64890266789E+02 -0.81033195642E+02  0.11493424795E+03  0.00000000000E+00 0.  1.
</event>
<event>
12    1  0.1046899E+000  0.1850447E+03  0.7818608E-02  0.1163201E+00
         21   -1    0    0  503  502  0.00000000000E+00  0.00000000000E+00  0.37150670981E+02  0.37150670981E+02  0.00000000000E+00 0.  1.
         21   -1    0    0  501  503 -0.00000000000E+00 -0.00000000000E+00 -0.11850149685E+04  0.11850149685E+04  0.00000000000E+00 0.  1.
          6    2    1    2  501    0 -0.65892890609E+02 -0.78282025863E+01 -0.28463194406E+03  0.33949503652E+03  0.17273790103E+03 0.  0.
         24    2    3    3    0    0 -0.41735444908E+02 -0.63448791517E+02 -0.24062533233E+03  0.26442237857E+03  0.79063564434E+02 0.  0.
         -6    2    1    2    0  502  0.65892890609E+02  0.78282025863E+01 -0.86323235344E+03  0.88267060294E+03  0.17185500717E+03 0.  0.
        -24    2    5    5    0    0  0.93467207525E+01  0.62998296609E+02 -0.57670470450E+03  0.58541416112E+03  0.77879890094E+02 0.  0.
          5    1    3    3  501    0 -0.24157445702E+02  0.55620588931E+02 -0.44006611728E+02  0.75072657950E+02  0.47000000000E+01 0. -1.
        -13    1    4    4    0    0  0.20084955660E+02 -0.15542458881E+02 -0.27662362561E+02  0.37552360437E+02  0.00000000000E+00 0.  1.
         14    1    4    4    0    0 -0.61820400568E+02 -0.47906332636E+02 -0.21296296977E+03  0.22687001813E+03  0.00000000000E+00 0. -1.
         -5    1    5    5    0  502  0.56546169857E+02 -0.55170094023E+02 -0.28652764894E+03  0.29725644182E+03  0.47000000000E+01 0.  1.
         11    1    6    6    0    0  0.36320359672E+02  0.14327756301E+02 -0.34110539203E+03  0.34333269812E+03  0.00000000000E+00 0. -1.
        -12    1    6    6    0    0 -0.26973638920E+02  0.48670540308E+02 -0.23559931247E+03  0.24208146300E+03  0.00000000000E+00 0.  1.
</event>
<event>
12    1  0.1046899E+000  0.3222529E+03  0.7818608E-02  0.1074696E+00
         21   -1    0    0  503  502  0.00000000000E+00  0.00000000000E+00  0.15311006876E+03  0.15311006876E+03  0.00000000000E+00 0. -1.
         21   -1    0    0  501  503 -0.00000000000E+00 -0.00000000000E+00 -0.71292406567E+03  0.71292406567E+03  0.00000000000E+00 0.  1.
          6    2    1    2  501    0 -0.25577724529E+03 -0.92128903920E+02 -0.18213289256E+03  0.36955660761E+03  0.17172641478E+03 0.  0.
         24    2    3    3    0    0 -0.12069248297E+03  0.17412318960E+02 -0.74404680606E+02  0.16492369195E+03  0.82425137996E+02 0.  0.
         -6    2    1    2    0  502  0.25577724529E+03  0.92128903920E+02 -0.37768110436E+03  0.49647752682E+03  0.17302365128E+03 0.  0.
        -24    2    5    5    0    0  0.23580754382E+03  0.94232369698E+02 -0.24554257958E+03  0.36273937491E+03  0.82484898648E+02 0.  0.
          5    1    3    3  501    0 -0.13508476232E+03 -0.10954122288E+03 -0.10772821195E+03  0.20463291566E+03  0.47000000000E+01 0. -1.
        -13    1    4    4    0    0 -0.12564002316E+02  0.53233528945E+01 -0.52102035910E+02  0.53859208926E+02  0.00000000000E+00 0.  1.
         14    1    4    4    0    0 -0.10812848066E+03  0.12088966065E+02 -0.22302644697E+02  0.11106448303E+03  0.00000000000E+00 0. -1.
         -5    1    5    5    0  502  0.19969701474E+02 -0.21034657776E+01 -0.13213852478E+03  0.13373815191E+03  0.47000000000E+01 0.  1.
         13    1    6    6    0    0  0.17912819637E+03  0.57324980403E+02 -0.22237486725E+03  0.29124499257E+03  0.00000000000E+00 0. -1.
        -14    1    6    6    0    0  0.56679347450E+02  0.36907389295E+02 -0.23167712328E+02  0.71494382342E+02  0.00000000000E+00 0.  1.
</event>
<event>
12    1  0.1046899E+000  0.1780131E+03  0.7818608E-02  0.1170343E+00
         21   -1    0    0  503  502  0.00000000000E+00  0.00000000000E+00  0.12122004150E+03  0.12122004150E+03  0.00000000000E+00 0.  1.
         21   -1    0    0  501  503 -0.00000000000E+00 -0.00000000000E+00 -0.26155021981E+03  0.26155021981E+03  0.00000000000E+00 0.  1.
          6    2    1    2  501    0  0.36180299376E+02 -0.33527804056E+02 -0.93415439641E+02  0.20103511963E+03  0.17104253055E+03 0.  0.
         24    2    3    3    0    0  0.78820199971E+02 -0.16274130397E+02 -0.10608697226E+03  0.15309236089E+03  0.75533793988E+02 0.  0.
         -6    2    1    2    0  502 -0.36180299376E+02  0.33527804056E+02 -0.46914738671E+02  0.18173514167E+03  0.16850383172E+03 0.  0.
        -24    2    5    5    0    0 -0.42492206596E+02 -0.33871860007E+02 -0.55792657241E+02  0.11329931533E+03  0.82286230504E+02 0.  0.
          5    1    3    3  501    0 -0.42639900594E+02 -0.17253673659E+02  0.12671532622E+02  0.47942758749E+02  0.47000000000E+01 0. -1.
        -11    1    4    4    0    0  0.38379577506E+02  0.29947662423E+02 -0.52340935043E+02  0.71480262558E+02  0.00000000000E+00 0.  1.
         12    1    4    4    0    0  0.40440622465E+02 -0.46221792819E+02 -0.53746037220E+02  0.81612098328E+02  0.00000000000E+00 0. -1.
         -5    1    5    5    0  502  0.63119072195E+01  0.67399664063E+02  0.88779185697E+01  0.68435826339E+02  0.47000000000E+01 0.  1.
         11    1    6    6    0    0 -0.51690327230E+01 -0.11104336671E+02 -0.67045409318E+02  0.68155059261E+02  0.00000000000E+00 0. -1.
        -12    1    6    6    0    0 -0.37323173873E+02 -0.22767523336E+02  0.11252752077E+02  0.45144256070E+02  0.00000000000E+00 0.  1.
</event>
<event>
12    1  0.1046899E+000  0.2224187E+03  0.7818608E-02  0.1134464E+00
         21   -1    0    0  503  502  0.00000000000E+00  0.00000000000E+00  0.28421102984E+03  0.28421102984E+03  0.00000000000E+00 0. -1.
         21   -1    0    0  501  503 -0.00000000000E+00 -0.00000000000E+00 -0.18284964680E+03  0.18284964680E+03  0.00000000000E+00 0. -1.
          6    2    1    2  501    0  0.13032569876E+03  0.46802070764E+02  0.12613703578E+03  0.25569634455E+03  0.17405415029E+03 0.  0.
         24    2    3    3    0    0  0.42201738485E+02  0.94467915219E+01  0.13164195730E+03  0.15970861917E+03  0.79416682834E+02 0.  0.
         -6    2    1    2    0  502 -0.13032569876E+03 -0.46802070764E+02 -0.24775652737E+02  0.21136433210E+03  0.15775242099E+03 0.  0.
        -24    2    5    5    0    0 -0.32872672232E+02 -0.47606067541E+01  0.24337276443E+02  0.94322686136E+02  0.84859826413E+02 0.  0.
          5    1    3    3  501    0  0.88123960279E+02  0.37355279242E+02 -0.55049215277E+01  0.95987725380E+02  0.47000000000E+01 0. -1.
        -13    1    4    4    0    0  0.58228016184E+02 -0.12642702605E+02  0.67702359410E+02  0.90188409829E+02  0.00000000000E+00 0.  1.
         14    1    4    4    0    0 -0.16026277698E+02  0.22089494127E+02  0.63939597893E+02  0.69520209338E+02  0.00000000000E+00 0. -1.
         -5    1    5    5    0  502 -0.97453026533E+02 -0.42041464010E+02 -0.49112929179E+02  0.11704164596E+03  0.47000000000E+01 0.  1.
         13    1    6    6    0    0  0.64364159240E+01  0.34454758676E+02  0.14505584649E+02  0.37933755830E+02  0.00000000000E+00 0. -1.
        -14    1    6    6    0    0 -0.39309088156E+02 -0.39215365430E+02  0.98316917931E+01  0.56388930305E+02  0.00000000000E+00 0.  1.
</event>
<event>
12    1  0.1046899E+000  0.2044517E+03  0.7818608E-02  0.1146116E+00
         21   -1    0    0  503  502  0.00000000000E+00  0.00000000000E+00  0.81273979922E+03  0.81273979922E+03  0.00000000000E+00 0.  1.
         21   -1    0    0  501  503 -0.00000000000E+00 -0.00000000000E+00 -0.51334297709E+02  0.51334297709E+02  0.00000000000E+00 0.  1.
          6    2    1    2  501    0  0.80804338320E+02 -0.68154450288E+02  0.37968322417E+03  0.43104709824E+03  0.17455050846E+03 0.  0.
         24    2    3    3    0    0  0.10609713841E+03 -0.89710508158E+02  0.24872695991E+03  0.29585825804E+03  0.79764843199E+02 0.  0.
         -6    2    1    2    0  502 -0.80804338320E+02  0.68154450288E+02  0.38172227734E+03  0.43302699868E+03  0.17500318393E+03 0.  0.
        -24    2    5    5    0    0 -0.15040821040E+02 -0.19320807978E+02  0.23815839414E+03  0.25244615925E+03  0.80063241867E+02 0.  0.
          5    1    3    3  501    0 -0.25292800092E+02  0.21556057870E+02  0.13095626426E+03  0.13518884021E+03  0.47000000000E+01 0. -1.
        -11    1    4    4    0    0  0.74534057874E+02 -0.48959810257E+02  0.21875456793E+03  0.23623282962E+03  0.00000000000E+00 0.  1.
         12    1    4    4    0    0  0.31563080537E+02 -0.40750697901E+02  0.29972391984E+02  0.59625428415E+02  0.00000000000E+00 0. -1.
         -5    1    5    5    0  502 -0.65763517279E+02  0.87475258266E+02  0.14356388319E+03  0.18058083944E+03  0.47000000000E+01 0.  1.
         11    1    6    6    0    0 -0.16909034063E+02  0.24584910920E+02  0.16019657362E+03  0.16295175813E+03  0.00000000000E+00 0. -1.
        -12    1    6    6    0    0  0.18682130228E+01 -0.43905718898E+02  0.77961820527E+02  0.89494401119E+02  0.00000000000E+00 0.  1.
</event>
<event>
12    1  0.1046899E+000  0.3595525E+03  0.7818608E-02  0.1058771E+00
         21   -1    0    0  501  502  0.00000000000E+00  0.00000000000E+00  0.42248730209E+03  0.42248730209E+03  0.00000000000E+00 0. -1.
         21   -1    0    0  502  503 -0.00000000000E+00 -0.00000000000E+00 -0.30911491902E+03  0.30911491902E+03  0.00000000000E+00 0. -1.
         -6    2    1    2    0  503 -0.22624821689E+03 -0.21970519179E+03  0.93960860887E+02  0.37162698647E+03  0.17268279227E+03 0.  0.
        -24    2    3    3    0    0 -0.10702255816E+03 -0.50649320448E+02  0.82006859089E+02  0.16435992808E+03  0.79182570071E+02 0.  0.
          6    2    1    2  501    0  0.22624821689E+03  0.21970519179E+03  0.19411522185E+02  0.35997523465E+03  0.17247241930E+03 0.  0.
         24    2    5    5    0    0  0.13484685783E+03  0.76810806897E+02  0.58050157991E+02  0.18594061783E+03  0.84383158245E+02 0.  0.
          5    1    5    5  501    0  0.91401359062E+02  0.14289438489E+03 -0.38638635806E+02  0.17403461681E+03  0.47000000000E+01 0. -1.
        -13    1    6    6    0    0  0.46492763492E+02  0.69247450562E+02  0.71979936850E+01  0.83717367251E+02  0.00000000000E+00 0.  1.
         14    1    6    6    0    0  0.88354094337E+02  0.75633563348E+01  0.50852164306E+02  0.10222325058E+03  0.00000000000E+00 0. -1.
         -5    1    3    3    0  503 -0.11922565873E+03 -0.16905587134E+03  0.11954001798E+02  0.20726705839E+03  0.47000000000E+01 0.  1.
         11    1    4    4    0    0  0.61567156851E+01  0.14198823998E+01 -0.83421679634E+01  0.10464844977E+02  0.00000000000E+00 0. -1.
        -12    1    4    4    0    0 -0.11317927384E+03 -0.52069202848E+02  0.90349027053E+02  0.15389508310E+03  0.00000000000E+00 0.  1.
</event>
<event>
12    1  0.1046899E+000  0.3231086E+03  0.7818608E-02  0.1074245E+00
         21   -1    0    0  503  502  0.00000000000E+00  0.00000000000E+00  0.19216060742E+03  0.19216060742E+03  0.00000000000E+00 0. -1.
         21   -1    0    0  501  503 -0.00000000000E+00 -0.00000000000E+00 -0.92845775052E+03  0.92845775052E+03  0.00000000000E+00 0. -1.
          6    2    1    2  501    0  0.75642729268E+02 -0.26282572439E+03 -0.71934794270E+01  0.32318864568E+03  0.17204642007E+03 0.  0.
         24    2    3    3    0    0 -0.27122803805E+02 -0.13385190583E+03 -0.51523102348E+01  0.15819998839E+03  0.79678797979E+02 0.  0.
         -6    2    1    2    0  502 -0.75642729268E+02  0.26282572439E+03 -0.72910366368E+03  0.79742971225E+03  0.17176381955E+03 0.  0.
        -24    2    5    5    0    0 -0.86880123816E+02  0.18251397791E+03 -0.36637221600E+03  0.42571416402E+03  0.78386483213E+02 0.  0.
          5    1    3    3  501    0  0.10276553307E+03 -0.12897381856E+03 -0.20411691922E+01  0.16498865729E+03  0.47000000000E+01 0. -1.
        -11    1    4    4    0    0 -0.47522073998E+00 -0.12604959715E+03  0.10216859029E+02  0.12646387225E+03  0.00000000000E+00 0.  1.
         12    1    4    4    0    0 -0.26647583065E+02 -0.78023086758E+01 -0.15369169264E+02  0.31736116141E+02  0.00000000000E+00 0. -1.
         -5    1    5    5    0  502  0.11237394548E+02  0.80311746481E+02 -0.36273144768E+03  0.37171554823E+03  0.47000000000E+01 0.  1.
         13    1    6    6    0    0  0.91216698169E+01 -0.12023641239E+01 -0.11389052201E+02  0.14641074065E+02  0.00000000000E+00 0. -1.
        -14    1    6    6    0    0 -0.96001793633E+02  0.18371634203E+03 -0.35498316379E+03  0.41107308996E+03  0.00000000000E+00 0.  1.
</event>
<event>
12    1  0.1046899E+000  0.1798042E+03  0.7818608E-02  0.1168304E+00
         21   -1    0    0  501  502  0.00000000000E+00  0.00000000000E+00  0.41287436552E+03  0.41287436552E+03  0.00000000000E+00 0. -1.
         21   -1    0    0  502  503 -0.00000000000E+00 -0.00000000000E+00 -0.79768057768E+02  0.79768057768E+02  0.00000000000E+00 0. -1.
         -6    2    1    2    0  503 -0.51310515030E+02 -0.23090313720E+01  0.12676724238E+03  0.21895401556E+03  0.17097609954E+03 0.  0.
        -24    2    3    3    0    0 -0.83323259079E+02  0.17358079576E+02  0.36989594945E+02  0.12151825717E+03  0.78449909256E+02 0.  0.
          6    2    1    2  501    0  0.51310515030E+02  0.23090313720E+01  0.20633906538E+03  0.27368840773E+03  0.17231202525E+03 0.  0.
         24    2    5    5    0    0  0.55817055937E+02  0.33048130083E+02  0.52342027263E+02  0.11651850333E+03  0.81419599389E+02 0.  0.
          5    1    5    5  501    0 -0.45065409075E+01 -0.30739098711E+02  0.15399703811E+03  0.15716990440E+03  0.47000000000E+01 0. -1.
        -13    1    6    6    0    0  0.15876982875E+02  0.16980965153E+02  0.67096473705E+02  0.71009636997E+02  0.00000000000E+00 0.  1.
         14    1    6    6    0    0  0.39940073062E+02  0.16067164930E+02 -0.14754446442E+02  0.45508866333E+02  0.00000000000E+00 0. -1.
         -5    1    3    3    0  503  0.32012744049E+02 -0.19667110948E+02  0.89777647432E+02  0.97435758390E+02  0.47000000000E+01 0.  1.
         13    1    4    4    0    0 -0.27142701941E+02  0.28432959250E+01  0.54463776197E+02  0.60918909363E+02  0.00000000000E+00 0. -1.
        -14    1    4    4    0    0 -0.56180557138E+02  0.14514783651E+02 -0.17474181251E+02  0.60599347811E+02  0.00000000000E+00 0.  1.
</event>
<event>
12    1  0.1046899E+000  0.1885747E+03  0.7818608E-02  0.1160147E+00
         21   -1    0    0  501  502  0.00000000000E+00  0.00000000000E+00  0.12840179682E+04  0.12840179682E+04  0.00000000000E+00 0.  1.
         21   -1    0    0  502  503 -0.00000000000E+00 -0.00000000000E+00 -0.52170182690E+02  0.52170182690E+02  0.00000000000E+00 0.  1.
         -6    2    1    2    0  503 -0.29970352933E+02  0.69592744376E+02  0.10773635684E+04  0.10937425016E+04  0.17268187250E+03 0.  0.
        -24    2    3    3    0    0  0.33509453722E+02 -0.41433805597E+01  0.61006734899E+03  0.61640137758E+03  0.81415212869E+02 0.  0.
          6    2    1    2  501    0  0.29970352933E+02 -0.69592744376E+02  0.15448421711E+03  0.24244564933E+03  0.17080148540E+03 0.  0.
         24    2    5    5    0    0  0.12357319685E+02 -0.13047569355E+02  0.58448373755E+01  0.82372756660E+02  0.80175847360E+02 0.  0.
          5    1    5    5  501    0  0.17613033248E+02 -0.56545175021E+02  0.14863937974E+03  0.16007289267E+03  0.47000000000E+01 0. -1.
        -13    1    6    6    0    0 -0.22172672003E+02 -0.64776111241E+01  0.31352569279E+02  0.38943169234E+02  0.00000000000E+00 0.  1.
         14    1    6    6    0    0  0.34529991688E+02 -0.65699582313E+01 -0.25507731903E+02  0.43429587426E+02  0.00000000000E+00 0. -1.
         -5    1    3    3    0  503 -0.63479806654E+02  0.73736124936E+02  0.46729621940E+03  0.47734112398E+03  0.47000000000E+01 0.  1.
         13    1    4    4    0    0  0.20646326520E+02  0.28142668415E+02  0.49427597348E+03  0.49550682997E+03  0.00000000000E+00 0. -1.
        -14    1    4    4    0    0  0.12863127202E+02 -0.32286048975E+02  0.11579137551E+03  0.12089454761E+03  0.00000000000E+00 0.  1.
</event>
<event>
12    1  0.1046899E+000  0.1995656E+03  0.7818608E-02  0.1150727E+00
         21   -1    0    0  503  502  0.00000000000E+00  0.00000000000E+00  0.50853296626E+02  0.50853296626E+02  0.00000000000E+00 0. -1.
         21   -1    0    0  501  503 -0.00000000000E+00 -0.00000000000E+00 -0.89857166775E+03  0.89857166775E+03  0.00000000000E+00 0. -1.
          6    2    1    2  501    0 -0.75138030643E+01 -0.99952110540E+02 -0.60486171025E+03  0.63693337887E+03  0.17256754898E+03 0.  0.
         24    2    3    3    0    0 -0.54326549753E+02 -0.70831549010E+02 -0.53375899043E+03  0.54683827844E+03  0.78517262830E+02 0.  0.
         -6    2    1    2    0  502  0.75138030643E+01  0.99952110540E+02 -0.24285666087E+03  0.31249158550E+03  0.16918850918E+03 0.  0.
        -24    2    5    5    0    0  0.53474527295E+02  0.74675120485E+02 -0.22149957143E+03  0.25566263454E+03  0.88687224921E+02 0.  0.
          5    1    3    3  501    0  0.46812746689E+02 -0.29120561530E+02 -0.71102719822E+02  0.90095100435E+02  0.47000000000E+01 0. -1.
        -11    1    4    4    0    0 -0.60842888109E+01 -0.32395747370E+02 -0.37611626681E+03  0.37755787527E+03  0.00000000000E+00 0.  1.
         12    1    4    4    0    0 -0.48242260942E+02 -0.38435801640E+02 -0.15764272362E+03  0.16928040317E+03  0.00000000000E+00 0. -1.
         -5    1    5    5    0  502 -0.45960724230E+02  0.25276990055E+02 -0.21357089438E+02  0.56828950961E+02  0.47000000000E+01 0.  1.
         13    1    6    6    0    0 -0.13663234583E+02  0.19046313393E+02 -0.75451693705E+01  0.24624695205E+02  0.00000000000E+00 0. -1.
        -14    1    6    6    0    0  0.67137761878E+02  0.55628807092E+02 -0.21395440206E+03  0.23103793933E+03  0.00000000000E+00 0.  1.
</event>
<event>
12    1  0.1046899E+000  0.1853604E+03  0.7818608E-02  0.1163612E+00
         21   -1    0    0  503  502  0.00000000000E+00  0.00000000000E+00  0.22533803137E+03  0.22533803137E+03  0.00000000000E+00 0. -1.
         21   -1    0    0  501  503 -0.00000000000E+00 -0.00000000000E+00 -0.18679220083E+03  0.18679220083E+03  0.00000000000E+00 0. -1.
          6    2    1    2  501    0 -0.58215164175E+02  0.31410234934E+02  0.11168451215E+03  0.21640682523E+03  0.17315563969E+03 0.  0.
         24    2    3    3    0    0 -0.74226060855E+02 -0.13483766469E+02  0.12560720773E+03  0.16652945936E+03  0.79142720008E+02 0.  0.
         -6    2    1    2    0  502  0.58215164175E+02 -0.31410234934E+02 -0.73138681610E+02  0.19572340696E+03  0.16906441698E+03 0.  0.
        -24    2    5    5    0    0  0.16826770028E+02 -0.60187288490E+02 -0.98183314909E+02  0.13923941243E+03  0.76432982159E+02 0.  0.
          5    1    3    3  501    0  0.16010896680E+02  0.44894001402E+02 -0.13922695588E+02  0.49877365877E+02  0.47000000000E+01 0. -1.
        -13    1    4    4    0    0 -0.10173751851E+02  0.15738049548E+01 -0.10899252833E+02  0.14992524840E+02  0.00000000000E+00 0.  1.
         14    1    4    4    0    0 -0.64052309004E+02 -0.15057571423E+02  0.13650646057E+03  0.15153693452E+03  0.00000000000E+00 0. -1.
         -5    1    5    5    0  502  0.41388394147E+02  0.28777053556E+02  0.25044633299E+02  0.56483994534E+02  0.47000000000E+01 0.  1.
         13    1    6    6    0    0  0.90229100951E+01  0.17078969497E+02 -0.31139479022E+02  0.36643843404E+02  0.00000000000E+00 0. -1.
        -14    1    6    6    0    0  0.78038599325E+01 -0.77266257987E+02 -0.67043835886E+02  0.10259556902E+03  0.00000000000E+00 0.  1.
</event>
<event>
12    1  0.1046899E+000  0.2814864E+03  0.7818608E-02  0.1095052E+00
         21   -1    0    0  503  502  0.00000000000E+00  0.00000000000E+00  0.20013805554E+03  0.20013805554E+03  0.00000000000E+00 0.  1.
         21   -1    0    0  501  503 -0.00000000000E+00 -0.00000000000E+00 -0.50387686755E+03  0.50387686755E+03  0.00000000000E+00 0.  1.
          6    2    1    2  501    0 -0.17584980584E+03 -0.13670653931E+03 -0.31641984190E+03  0.42350452919E+03  0.17211257302E+03 0.  0.
         24    2    3    3    0    0 -0.21015701968E+02 -0.81925362645E+02 -0.14973733882E+03  0.18945384265E+03  0.79486244615E+02 0.  0.
         -6    2    1    2    0  502  0.17584980584E+03  0.13670653931E+03  0.12681029884E+02  0.28051039390E+03  0.17003952618E+03 0.  0.
        -24    2    5    5    0    0  0.10183205668E+03  0.15487250856E+03 -0.24295459549E+01  0.20267049968E+03  0.81940021194E+02 0.  0.
          5    1    3    3  501    0 -0.15483410387E+03 -0.54781176664E+02 -0.16668250307E+03  0.23405068654E+03  0.47000000000E+01 0. -1.
        -11    1    4    4    0    0 -0.86923516413E+01  0.10471813167E+02 -0.65115987292E+00  0.13624971825E+02  0.00000000000E+00 0.  1.
         12    1    4    4    0    0 -0.12323350327E+02 -0.92397175811E+02 -0.14908617895E+03  0.17582887082E+03  0.00000000000E+00 0. -1.
         -5    1    5    5    0  502  0.74017749158E+02 -0.18165969251E+02  0.15110575839E+02  0.77839894216E+02  0.47000000000E+01 0.  1.
         13    1    6    6    0    0  0.38881575299E+02  0.12007129693E+03 -0.22030223639E+02  0.12811800809E+03  0.00000000000E+00 0. -1.
        -14    1    6    6    0    0  0.62950481382E+02  0.34801211634E+02  0.19600677684E+02  0.74552491595E+02  0.00000000000E+00 0.  1.
</event>
<event>
12    1  0.1046899E+000  0.2045943E+03  0.7818608E-02  0.1147395E+00
         21   -1    0    0  503  502  0.00000000000E+00  0.00000000000E+00  0.63463886372E+02  0.63463886372E+02  0.00000000000E+00 0. -1.
         21   -1    0    0  501  503 -0.00000000000E+00 -0.00000000000E+00 -0.65975905938E+03  0.65975905938E+03  0.00000000000E+00 0. -1.
          6    2    1    2  501    0  0.95184406275E+02 -0.15025817067E+02 -0.37039085041E+03  0.42314090627E+03  0.18047991055E+03 0.  0.
         24    2    3    3    0    0  0.39534914298E+02 -0.46025725224E+02 -0.90443962842E+02  0.13599946007E+03  0.81451616895E+02 0.  0.
         -6    2    1    2    0  502 -0.95184406275E+02  0.15025817067E+02 -0.22590432260E+03  0.30008203949E+03  0.17242569726E+03 0.  0.
        -24    2    5    5    0    0  0.12086678339E+02 -0.30907468425E+01 -0.13773322380E+03  0.15996948421E+03  0.80399965368E+02 0.  0.
          5    1    3    3  501    0  0.55649491978E+02  0.30999908157E+02 -0.27994688757E+03  0.28714144619E+03  0.47000000000E+01 0. -1.
        -13    1    4    4    0    0 -0.23223166784E+02 -0.14837561343E+02 -0.10014735734E+02  0.29321726311E+02  0.00000000000E+00 0.  1.
         14    1    4    4    0    0  0.62758081082E+02 -0.31188163881E+02 -0.80429227109E+02  0.10667773376E+03  0.00000000000E+00 0. -1.
         -5    1    5    5    0  502 -0.10727108461E+03  0.18116563909E+02 -0.88171098800E+02  0.14011255528E+03  0.47000000000E+01 0.  1.
         11    1    6    6    0    0  0.20597912629E+02  0.28152183845E+02 -0.25638872131E+02  0.43291699251E+02  0.00000000000E+00 0. -1.
        -12    1    6    6    0    0 -0.85112342904E+01 -0.31242930687E+02 -0.11209435167E+03  0.11667778496E+03  0.00000000000E+00 0.  1.
</event>
<event>
12    1  0.1046899E+000  0.2487627E+03  0.7818608E-02  0.1114325E+00
         21   -1    0    0  501  502  0.00000000000E+00  0.00000000000E+00  0.92176340840E+03  0.92176340840E+03  0.00000000000E+00 0.  1.
         21   -1    0    0  502  503 -0.00000000000E+00 -0.00000000000E+00 -0.87027900055E+02  0.87027900055E+02  0.00000000000E+00 0. -1.
         -6    2    1    2    0  503 -0.43608384380E+02  0.17184964917E+03  0.17286444233E+03  0.30171549618E+03  0.17238367703E+03 0.  0.
        -24    2    3    3    0    0  0.87843250392E+01  0.13298581534E+03  0.50625516658E+02  0.16307986393E+03  0.79181485431E+02 0.  0.
          6    2    1    2  501    0  0.43608384380E+02 -0.17184964917E+03  0.66187106601E+03  0.70707581227E+03  0.17449614083E+03 0.  0.
         24    2    5    5    0    0  0.93895627743E+02 -0.14815015534E+03  0.49175862408E+03  0.52804842400E+03  0.79017316393E+02 0.  0.
          5    1    5    5  501    0 -0.50287243363E+02 -0.23699493833E+02  0.17011244193E+03  0.17902738828E+03  0.47000000000E+01 0. -1.
        -11    1    6    6    0    0 -0.11374253036E+02 -0.16725389886E+02  0.93360693409E+02  0.95526600341E+02  0.00000000000E+00 0.  1.
         12    1    6    6    0    0  0.10526988078E+03 -0.13142476545E+03  0.39839793067E+03  0.43252182366E+03  0.00000000000E+00 0. -1.
         -5    1    3    3    0  503 -0.52392709419E+02  0.38863833832E+02  0.12223892567E+03  0.13863563225E+03  0.47000000000E+01 0.  1.
         13    1    4    4    0    0  0.34198024382E+02  0.12308627097E+03  0.41571255759E+02  0.13434248873E+03  0.00000000000E+00 0. -1.
        -14    1    4    4    0    0 -0.25413699343E+02  0.98995443699E+01  0.90542608994E+01  0.28737375201E+02  0.00000000000E+00 0.  1.
</event>
<event>
12    1  0.1046899E+000  0.5349561E+03  0.7818608E-02  0.1005040E+00
         21   -1    0    0  503  502  0.00000000000E+00  0.00000000000E+00  0.10290234508E+04  0.10290234508E+04  0.00000000000E+00 0. -1.
         21   -1    0    0  501  503 -0.00000000000E+00 -0.00000000000E+00 -0.28383926451E+03  0.28383926451E+03  0.00000000000E+00 0. -1.
          6    2    1    2  501    0 -0.20547446937E+03 -0.46303322294E+03  0.27912649123E+03  0.60336440713E+03  0.17180653819E+03 0.  0.
         24    2    3    3    0    0 -0.57433103318E+02 -0.27307241035E+03  0.11715064791E+03  0.31308933034E+03  0.80209424724E+02 0.  0.
         -6    2    1    2    0  502  0.20547446937E+03  0.46303322294E+03  0.46605769509E+03  0.70949830821E+03  0.17192600472E+03 0.  0.
        -24    2    5    5    0    0  0.17966385560E+03  0.23947794793E+03  0.26471317057E+03  0.40749689047E+03  0.79698585375E+02 0.  0.
          5    1    3    3  501    0 -0.14804136605E+03 -0.18996081259E+03  0.16197584333E+03  0.29027507679E+03  0.47000000000E+01 0. -1.
        -13    1    4    4    0    0 -0.36940206211E+02 -0.10323978745E+03  0.75145769774E+01  0.10990678512E+03  0.00000000000E+00 0.  1.
         14    1    4    4    0    0 -0.20492897106E+02 -0.16983262290E+03  0.10963607093E+03  0.20318254522E+03  0.00000000000E+00 0. -1.
         -5    1    5    5    0  502  0.25810613765E+02  0.22355527502E+03  0.20134452451E+03  0.30200141775E+03  0.47000000000E+01 0.  1.
         13    1    6    6    0    0  0.25658782014E+02  0.95685318680E+02  0.87837124039E+02  0.13239869208E+03  0.00000000000E+00 0. -1.
        -14    1    6    6    0    0  0.15400507359E+03  0.14379262925E+03  0.17687604653E+03  0.27509819838E+03  0.00000000000E+00 0.  1.
</event>
<event>
12    1  0.1046899E+000  0.2056649E+03  0.7818608E-02  0.1145491E+00
         21   -1    0    0  503  502  0.00000000000E+00  0.00000000000E+00  0.13785569527E+03  0.13785569527E+03  0.00000000000E+00 0. -1.
         21   -1    0    0  501  503 -0.00000000000E+00 -0.00000000000E+00 -0.36248023329E+03  0.36248023329E+03  0.00000000000E+00 0. -1.
          6    2    1    2  501    0 -0.10202658657E+03  0.39185070598E+02 -0.11976951917E+02  0.20601338342E+03  0.17422161934E+03 0.  0.
         24    2    3    3    0    0 -0.11631911956E+03 -0.14885959009E+02  0.16173755596E+02  0.14322401270E+03  0.80621325295E+02 0.  0.
         -6    2    1    2    0  502  0.10202658657E+03 -0.39185070598E+02 -0.21264758611E+03  0.29432254514E+03  0.17164460543E+03 0.  0.
        -24    2    5    5    0    0  0.82426402067E+02 -0.83526945970E+02 -0.19237695036E+03  0.24156500712E+03  0.87028151620E+02 0.  0.
          5    1    3    3  501    0  0.14292532992E+02  0.54071029608E+02 -0.28150707513E+02  0.62789370722E+02  0.47000000000E+01 0. -1.
        -11    1    4    4    0    0 -0.73744676787E+02 -0.13689083705E+02 -0.29660089433E+02  0.80655993406E+02  0.00000000000E+00 0.  1.
         12    1    4    4    0    0 -0.42574442775E+02 -0.11968753043E+01  0.45833845030E+02  0.62568019293E+02  0.00000000000E+00 0. -1.
         -5    1    5    5    0  502  0.19600184503E+02  0.44341875372E+02 -0.20270635746E+02  0.52757538017E+02  0.47000000000E+01 0.  1.
         11    1    6    6    0    0  0.17093282550E+02 -0.76662194923E+02 -0.85399980984E+02  0.11602770872E+03  0.00000000000E+00 0. -1.
        -12    1    6    6    0    0  0.65333119517E+02 -0.68647510472E+01 -0.10697696938E+03  0.12553729840E+03  0.00000000000E+00 0.  1.
</event>
<event>
12    1  0.1046899E+000  0.1965867E+03  0.7818608E-02  0.1152672E+00
         21   -1    0    0  503  502  0.00000000000E+00  0.00000000000E+00  0.71323496506E+02  0.71323496506E+02  0.00000000000E+00 0.  1.
         21   -1    0    0  501  503 -0.00000000000E+00 -0.00000000000E+00 -0.64127202112E+03  0.64127202112E+03  0.00000000000E+00 0.  1.
          6    2    1    2  501    0 -0.87691529949E+02  0.29478388068E+02 -0.14442960864E+03  0.24386031624E+03  0.17334694170E+03 0.  0.
         24    2    3    3    0    0 -0.81187946418E+01  0.59460803361E+02 -0.35542056790E+02  0.10562372782E+03  0.79319809092E+02 0.  0.
         -6    2    1    2    0  502  0.87691529949E+02 -0.29478388068E+02 -0.42551891597E+03  0.46873520138E+03  0.17345766451E+03 0.  0.
        -24    2    5    5    0    0  0.96875959462E+02  0.19428983674E+02 -0.19568814628E+03  0.23353197552E+03  0.80504012761E+02 0.  0.
          5    1    3    3  501    0 -0.79572735307E+02 -0.29982415293E+02 -0.10888755186E+03  0.13823658843E+03  0.47000000000E+01 0. -1.
        -13    1    4    4    0    0 -0.42027695478E+02  0.43580081727E+02 -0.30656557826E+02  0.67862915118E+02  0.00000000000E+00 0.  1.
         14    1    4    4    0    0  0.33908900837E+02  0.15880721634E+02 -0.48854989635E+01  0.37760812699E+02  0.00000000000E+00 0. -1.
         -5    1    5    5    0  502 -0.91844295134E+01 -0.48907371742E+02 -0.22983076969E+03  0.23520322586E+03  0.47000000000E+01 0.  1.
         13    1    6    6    0    0  0.33186753876E+02  0.11969071130E+02 -0.15175333880E+03  0.15580017694E+03  0.00000000000E+00 0. -1.
        -14    1    6    6    0    0  0.63689205585E+02  0.74599125444E+01 -0.43934807472E+02  0.77731798582E+02  0.00000000000E+00 0.  1.
</event>
<event>
12    1  0.1046899E+000  0.2174415E+03  0.7818608E-02  0.1137090E+00
         21   -1    0    0  501  502  0.00000000000E+00  0.00000000000E+00  0.12396976289E+03  0.12396976289E+03  0.00000000000E+00 0. -1.
         21   -1    0    0  502  503 -0.00000000000E+00 -0.00000000000E+00 -0.80770929975E+03  0.80770929975E+03  0.00000000000E+00 0. -1.
         -6    2    1    2    0  503  0.43631772983E+02 -0.12480930060E+03  0.35700144081E+01  0.21079403473E+03  0.16413496564E+03 0.  0.
        -24    2    3    3    0    0  0.69073024498E+02 -0.31775773230E+02  0.24923302219E+02  0.11189738467E+03  0.78224492488E+02 0.  0.
          6    2    1    2  501    0 -0.43631772983E+02  0.12480930060E+03 -0.68730955126E+03  0.72088502791E+03  0.17262592817E+03 0.  0.
         24    2    5    5    0    0 -0.22547721036E+02  0.15237470509E+03 -0.49126800110E+03  0.52173993467E+03  0.84509526373E+02 0.  0.
          5    1    5    5  501    0 -0.21084051947E+02 -0.27565404496E+02 -0.19604155016E+03  0.19914509324E+03  0.47000000000E+01 0. -1.
        -13    1    6    6    0    0 -0.26646751003E+02  0.11417951303E+03 -0.45139082922E+03  0.46636969374E+03  0.00000000000E+00 0.  1.
         14    1    6    6    0    0  0.40990299664E+01  0.38195192064E+02 -0.39877171879E+02  0.55370240929E+02  0.00000000000E+00 0. -1.
         -5    1    3    3    0  503 -0.25441251515E+02 -0.93033527366E+02 -0.21353287811E+02  0.98896650061E+02  0.47000000000E+01 0.  1.
         13    1    4    4    0    0  0.12515052375E+02 -0.21116462670E+02 -0.25489260450E+02  0.35386917497E+02  0.00000000000E+00 0. -1.
        -14    1    4    4    0    0  0.56557972123E+02 -0.10659310560E+02  0.50412562669E+02  0.76510467174E+02  0.00000000000E+00 0.  1.
</event>
<event>
12    1  0.1046899E+000  0.1826420E+03  0.7818608E-02  0.1165564E+00
         21   -1    0    0  503  502  0.00000000000E+00  0.00000000000E+00  0.76224105965E+03  0.76224105965E+03  0.00000000000E+00 0. -1.
         21   -1    0    0  501  503 -0.00000000000E+00 -0.00000000000E+00 -0.54285728960E+02  0.54285728960E+02  0.00000000000E+00 0. -1.
          6    2    1    2  501    0 -0.38170941910E+02 -0.48528471603E+02  0.17076988621E+03  0.24914128476E+03  0.17057840535E+03 0.  0.
         24    2    3    3    0    0 -0.52418781904E+02  0.31130778091E+02  0.95983018216E+02  0.13885183544E+03  0.79688382962E+02 0.  0.
         -6    2    1    2    0  502  0.38170941910E+02  0.48528471603E+02  0.53718544448E+03  0.56738550385E+03  0.17188971714E+03 0.  0.
        -24    2    5    5    0    0  0.82016497073E+02 -0.11286922451E+01  0.36881218404E+03  0.38638851089E+03  0.80905342931E+02 0.  0.
          5    1    3    3  501    0  0.14247839994E+02 -0.79659249694E+02  0.74786867997E+02  0.11028944932E+03  0.47000000000E+01 0. -1.
        -13    1    4    4    0    0 -0.47643786925E+01 -0.23333162698E+02  0.84328942037E+01  0.25263600109E+02  0.00000000000E+00 0.  1.
         14    1    4    4    0    0 -0.47654403212E+02  0.54463940789E+02  0.87550124012E+02  0.11358823533E+03  0.00000000000E+00 0. -1.
         -5    1    5    5    0  502 -0.43845555163E+02  0.49657163848E+02  0.16837326044E+03  0.18099699296E+03  0.47000000000E+01 0.  1.
         11    1    6    6    0    0 -0.13619570815E+02 -0.10875498209E+02  0.36441155543E+02  0.40394640582E+02  0.00000000000E+00 0. -1.
        -12    1    6    6    0    0  0.95636067889E+02  0.97468059639E+01  0.33237102849E+03  0.34599387031E+03  0.00000000000E+00 0.  1.
</event>
<event>
12    1  0.1046899E+000  0.2051788E+03  0.7818608E-02  0.1145769E+00
         21   -1    0    0  501  502  0.00000000000E+00  0.00000000000E+00  0.37362000045E+02  0.37362000045E+02  0.00000000000E+00 0. -1.
         21   -1    0    0  502  503 -0.00000000000E+00 -0.00000000000E+00 -0.12407089716E+04  0.12407089716E+04  0.00000000000E+00 0. -1.
         -6    2    1    2    0  503 -0.86482377402E+02 -0.66156043392E+02 -0.40284151040E+03  0.45208365394E+03  0.17390377794E+03 0.  0.
        -24    2    3    3    0    0  0.17296943754E+02 -0.28992362129E+02 -0.12364583606E+03  0.15187772250E+03  0.81478883712E+02 0.  0.
          6    2    1    2  501    0  0.86482377402E+02  0.66156043392E+02 -0.80050546112E+03  0.82598731767E+03  0.17201811528E+03 0.  0.
         24    2    5    5    0    0  0.18937834968E+02 -0.27767566430E+02 -0.32371795397E+03  0.33534251063E+03  0.80818354208E+02 0.  0.
          5    1    5    5  501    0  0.67544542433E+02  0.93923609822E+02 -0.47678750715E+03  0.49064480704E+03  0.47000000000E+01 0. -1.
        -11    1    6    6    0    0  0.50229536032E+02 -0.14166820311E+02 -0.22210353981E+03  0.22815277224E+03  0.00000000000E+00 0.  1.
         12    1    6    6    0    0 -0.31291701063E+02 -0.13600746119E+02 -0.10161441416E+03  0.10718973839E+03  0.00000000000E+00 0. -1.
         -5    1    3    3    0  503 -0.10377932116E+03 -0.37163681263E+02 -0.27919567433E+03  0.30020593144E+03  0.47000000000E+01 0.  1.
         13    1    4    4    0    0  0.20492986010E+02 -0.65144782518E+01 -0.12710553943E+03  0.12891167153E+03  0.00000000000E+00 0. -1.
        -14    1    4    4    0    0 -0.31960422558E+01 -0.22477883877E+02  0.34597033694E+01  0.22966050969E+02  0.00000000000E+00 0.  1.
</event>
<event>
12    1  0.1046899E+000  0.2524201E+03  0.7818608E-02  0.1112526E+00
         21   -1    0    0  501  502  0.00000000000E+00  0.00000000000E+00  0.12700386148E+03  0.12700386148E+03  0.00000000000E+00 0. -1.
         21   -1    0    0  502  503 -0.00000000000E+00 -0.00000000000E+00 -0.58021947785E+03  0.58021947785E+03  0.00000000000E+00 0. -1.
         -6    2    1    2    0  503 -0.17162683712E+03 -0.39799172786E+02 -0.36599033646E+03  0.44459511811E+03  0.18076544828E+03 0.  0.
        -24    2    3    3    0    0 -0.58377948260E+02 -0.26529807119E+02 -0.29050888177E+03  0.30777067989E+03  0.78838857834E+02 0.  0.
          6    2    1    2  501    0  0.17162683712E+03  0.39799172786E+02 -0.87225279903E+02  0.26262822122E+03  0.17414243524E+03 0.  0.
         24    2    5    5    0    0  0.11345595192E+03 -0.40785436636E+02 -0.71767088901E+02  0.16193672789E+03  0.80853471922E+02 0.  0.
          5    1    5    5  501    0  0.58170885196E+02  0.80584609421E+02 -0.15458191002E+02  0.10069149333E+03  0.47000000000E+01 0. -1.
        -11    1    6    6    0    0  0.27924196531E+02 -0.41986870531E+02 -0.55277792945E+02  0.74821737762E+02  0.00000000000E+00 0.  1.
         12    1    6    6    0    0  0.85531755390E+02  0.12014338952E+01 -0.16489295956E+02  0.87114990126E+02  0.00000000000E+00 0. -1.
         -5    1    3    3    0  503 -0.11324888886E+03 -0.13269365666E+02 -0.75481454695E+02  0.13682443823E+03  0.47000000000E+01 0.  1.
         11    1    4    4    0    0 -0.28127944346E+02  0.23747066969E+02 -0.64459980509E+02  0.74230677823E+02  0.00000000000E+00 0. -1.
        -12    1    4    4    0    0 -0.30250003914E+02 -0.50276874089E+02 -0.22604890126E+03  0.23354000206E+03  0.00000000000E+00 0.  1.
</event>
<event>
12    1  0.1046899E+000  0.1795562E+03  0.7818608E-02  0.1168395E+00
         21   -1    0    0  501  502  0.00000000000E+00  0.00000000000E+00  0.65776841309E+03  0.65776841309E+03  0.00000000000E+00 0.  1.
         21   -1    0    0  502  503 -0.00000000000E+00 -0.00000000000E+00 -0.48918189799E+02  0.48918189799E+02  0.00000000000E+00 0.  1.
         -6    2    1    2    0  503 -0.16690418785E+02  0.48006377410E+02  0.31860026480E+03  0.36538694068E+03  0.17151765314E+03 0.  0.
        -24    2    3    3    0    0 -0.29518089283E+02  0.96280812095E+02  0.21618525022E+03  0.25134354813E+03  0.79348625685E+02 0.  0.
          6    2    1    2  501    0  0.16690418785E+02 -0.48006377410E+02  0.29024995849E+03  0.34129966220E+03  0.17221277150E+03 0.  0.
         24    2    5    5    0    0  0.38835822544E+01 -0.63731883796E+02  0.79655438462E+02  0.12967866023E+03  0.79967060836E+02 0.  0.
          5    1    5    5  501    0  0.12806836531E+02  0.15725506387E+02  0.21059452002E+03  0.21162100198E+03  0.47000000000E+01 0. -1.
        -11    1    6    6    0    0 -0.49642168196E+01 -0.47595598580E+02  0.94571900451E+02  0.10598975803E+03  0.00000000000E+00 0.  1.
         12    1    6    6    0    0  0.88477990740E+01 -0.16136285217E+02 -0.14916461988E+02  0.23688902197E+02  0.00000000000E+00 0. -1.
         -5    1    3    3    0  503  0.12827670498E+02 -0.48274434685E+02  0.10241501458E+03  0.11404339256E+03  0.47000000000E+01 0.  1.
         13    1    4    4    0    0 -0.47004495768E+00  0.98781510113E+02  0.15981663599E+03  0.18788125192E+03  0.00000000000E+00 0. -1.
        -14    1    4    4    0    0 -0.29048044325E+02 -0.25006980180E+01  0.56368614234E+02  0.63462296210E+02  0.00000000000E+00 0.  1.
</event>
<event>
12    1  0.1046899E+000  0.1968999E+03  0.7818608E-02  0.1152515E+00
         21   -1    0    0  501  502  0.00000000000E+00  0.00000000000E+00  0.94546527724E+03  0.94546527724E+03  0.00000000000E+00 0. -1.
         21   -1    0    0  502  503 -0.00000000000E+00 -0.00000000000E+00 -0.47795184600E+02  0.47795184600E+02  0.00000000000E+00 0. -1.
         -6    2    1    2    0  503 -0.72355361179E+02  0.62182352052E+02  0.26048877057E+03  0.32653328640E+03  0.17224298051E+03 0.  0.
        -24    2    3    3    0    0 -0.35916086041E+02  0.10197022315E+03  0.20582261311E+03  0.24958282031E+03  0.90778546365E+02 0.  0.
          6    2    1    2  501    0  0.72355361179E+02 -0.62182352052E+02  0.63718132207E+03  0.66672717544E+03  0.17153176406E+03 0.  0.
         24    2    5    5    0    0  0.81701654602E+02 -0.18512160078E+01  0.25108658952E+03  0.27580719428E+03  0.79665209531E+02 0.  0.
          5    1    5    5  501    0 -0.93462934233E+01 -0.60331136044E+02  0.38609473254E+03  0.39091998117E+03  0.47000000000E+01 0. -1.
        -11    1    6    6    0    0  0.53321868498E+02  0.21872079403E+02  0.22020236683E+03  0.22761962102E+03  0.00000000000E+00 0.  1.
         12    1    6    6    0    0  0.28379786104E+02 -0.23723295410E+02  0.30884222694E+02  0.48187573252E+02  0.00000000000E+00 0. -1.
         -5    1    3    3    0  503 -0.36439275138E+02 -0.39787871103E+02  0.54666157460E+02  0.76950466087E+02  0.47000000000E+01 0.  1.
         11    1    4    4    0    0  0.30156285145E+02  0.41161769295E+02  0.83125967871E+02  0.97537784062E+02  0.00000000000E+00 0. -1.
        -12    1    4    4    0    0 -0.66072371187E+02  0.60808453859E+02  0.12269664524E+03  0.15204503625E+03  0.00000000000E+00 0.  1.
</event>
<event>
12    1  0.1046899E+000  0.3270013E+03  0.7818608E-02  0.1072751E+00
         21   -1    0    0  503  502  0.00000000000E+00  0.00000000000E+00  0.68613720016E+03  0.68613720016E+03  0.00000000000E+00 0. -1.
         21   -1    0    0  501  503 -0.00000000000E+00 -0.00000000000E+00 -0.18955021320E+03  0.18955021320E+03  0.00000000000E+00 0. -1.
          6    2    1    2  501    0  0.37017173918E+02  0.27441469938E+03  0.43536953464E+03  0.54300522152E+03  0.16921684462E+03 0.  0.
         24    2    3    3    0    0 -0.37221384796E+02  0.12199069728E+03  0.16279728327E+03  0.22197226024E+03  0.80632296034E+02 0.  0.
         -6    2    1    2    0  502 -0.37017173918E+02 -0.27441469938E+03  0.61217452317E+02  0.33268219184E+03  0.17394299613E+03 0.  0.
        -24    2    5    5    0    0  0.35969009720E+02 -0.19292109999E+03  0.71617779150E+02  0.22268925325E+03  0.77130258260E+02 0.  0.
          5    1    3    3  501    0  0.74238558714E+02  0.15242400210E+03  0.27257225136E+03  0.32103296128E+03  0.47000000000E+01 0. -1.
        -11    1    4    4    0    0 -0.34341522146E+02  0.18139280508E+02  0.80697642300E+02  0.89557149985E+02  0.00000000000E+00 0.  1.
         12    1    4    4    0    0 -0.28798626496E+01  0.10385141678E+03  0.82099640975E+02  0.13241511025E+03  0.00000000000E+00 0. -1.
         -5    1    5    5    0  502 -0.72986183637E+02 -0.81493599388E+02 -0.10400326833E+02  0.10999293860E+03  0.47000000000E+01 0.  1.
         13    1    6    6    0    0  0.14399813177E+02 -0.18823657167E+03  0.64194209396E+02  0.19940225187E+03  0.00000000000E+00 0. -1.
        -14    1    6    6    0    0  0.21569196542E+02 -0.46845283256E+01  0.74235697532E+01  0.23287001374E+02  0.00000000000E+00 0.  1.
</event>
<event>
12    1  0.1046899E+000  0.2693426E+03  0.7818608E-02  0.1101813E+00
         21   -1    0    0  501  502  0.00000000000E+00  0.00000000000E+00  0.31064400040E+03  0.31064400040E+03  0.00000000000E+00 0.  1.
         21   -1    0    0  502  503 -0.00000000000E+00 -0.00000000000E+00 -0.29329182503E+03  0.29329182503E+03  0.00000000000E+00 0.  1.
         -6    2    1    2    0  503 -0.66356508385E+02  0.19479586320E+03 -0.12868585667E+03  0.29850538280E+03  0.17377226282E+03 0.  0.
        -24    2    3    3    0    0  0.29269553269E+02  0.13344675811E+03 -0.65728183900E+02  0.16852917373E+03  0.73601251616E+02 0.  0.
          6    2    1    2  501    0  0.66356508385E+02 -0.19479586320E+03  0.14603803205E+03  0.30543044263E+03  0.17208147476E+03 0.  0.
         24    2    5    5    0    0  0.92622022504E+02 -0.20010554348E+03  0.10613454981E+03  0.25713502016E+03  0.78948137071E+02 0.  0.
          5    1    5    5  501    0 -0.26265514120E+02  0.53096802748E+01  0.39903482238E+02  0.48295422467E+02  0.47000000000E+01 0. -1.
        -11    1    6    6    0    0  0.44864788366E+02 -0.13295345904E+03  0.27010803765E+02  0.14289525894E+03  0.00000000000E+00 0.  1.
         12    1    6    6    0    0  0.47757234139E+02 -0.67152084436E+02  0.79123746047E+02  0.11423976123E+03  0.00000000000E+00 0. -1.
         -5    1    3    3    0  503 -0.95626061654E+02  0.61349105089E+02 -0.62957672773E+02  0.12997620907E+03  0.47000000000E+01 0.  1.
         11    1    4    4    0    0  0.28562420793E+02  0.78907320549E+02 -0.75776293624E+02  0.11306734185E+03  0.00000000000E+00 0. -1.
        -12    1    4    4    0    0  0.70713247584E+00  0.54539437566E+02  0.10048109725E+02  0.55461831879E+02  0.00000000000E+00 0.  1.
</event>
<event>
12    1  0.1046899E+000  0.1924469E+03  0.7818608E-02  0.1157084E+00
         21   -1    0    0  501  502  0.00000000000E+00  0.00000000000E+00  0.23253223137E+02  0.23253223137E+02  0.00000000000E+00 0. -1.
         21   -1    0    0  502  503 -0.00000000000E+00 -0.00000000000E+00 -0.15929282313E+04  0.15929282313E+04  0.00000000000E+00 0. -1.
         -6    2    1    2    0  503  0.71088522794E+02 -0.31796586003E+02 -0.90308295523E+03  0.92336051442E+03  0.17598640463E+03 0.  0.
        -24    2    3    3    0    0 -0.29147767959E+02 -0.31508818345E+02 -0.50131804148E+03  0.50925360466E+03  0.78594256366E+02 0.  0.
          6    2    1    2  501    0 -0.71088522794E+02  0.31796586003E+02 -0.66659205295E+03  0.69282094003E+03  0.17202118746E+03 0.  0.
         24    2    5    5    0    0 -0.61346279624E+01 -0.25081651501E+02 -0.17963402670E+03  0.19824601983E+03  0.79789585353E+02 0.  0.
          5    1    5    5  501    0 -0.64953894832E+02  0.56878237504E+02 -0.48695802625E+03  0.49457492020E+03  0.47000000000E+01 0. -1.
        -11    1    6    6    0    0 -0.10031939397E+02 -0.10545388804E+02  0.31099098598E+01  0.14883432817E+02  0.00000000000E+00 0.  1.
         12    1    6    6    0    0  0.38973114346E+01 -0.14536262697E+02 -0.18274393656E+03  0.18336258702E+03  0.00000000000E+00 0. -1.
         -5    1    3    3    0  503  0.10023629075E+03 -0.28776765780E+00 -0.40176491374E+03  0.41410690976E+03  0.47000000000E+01 0.  1.
         13    1    4    4    0    0  0.13429844772E+02 -0.42954623384E+02 -0.22751756570E+03  0.23192607249E+03  0.00000000000E+00 0. -1.
        -14    1    4    4    0    0 -0.42577612731E+02  0.11445805039E+02 -0.27380047579E+03  0.27732753217E+03  0.00000000000E+00 0.  1.
</event>
<event>
12    1  0.1046899E+000  0.1862643E+03  0.7818608E-02  0.1163086E+00
         21   -1    0    0  501  502  0.00000000000E+00  0.00000000000E+00  0.35213317471E+03  0.35213317471E+03  0.00000000000E+00 0.  1.
         21   -1    0    0  502  503 -0.00000000000E+00 -0.00000000000E+00 -0.97484145847E+02  0.97484145847E+02  0.00000000000E+00 0.  1.
         -6    2    1    2    0  503 -0.59333605954E+02 -0.70775485153E+01  0.15495710966E+03  0.23835241808E+03  0.17096666600E+03 0.  0.
        -24    2    3    3    0    0 -0.39016318561E+02 -0.52777687911E+02  0.15783969084E+03  0.18803647446E+03  0.78336391725E+02 0.  0.
          6    2    1    2  501    0  0.59333605954E+02  0.70775485153E+01  0.99691919208E+02  0.21126490248E+03  0.17641942007E+03 0.  0.
         24    2    5    5    0    0  0.68529769002E+02 -0.45594623308E+02  0.10858236305E+03  0.15685849577E+03  0.77712670879E+02 0.  0.
          5    1    5    5  501    0 -0.91961630480E+01  0.52672171823E+02 -0.88904438442E+01  0.54406406710E+02  0.47000000000E+01 0. -1.
        -11    1    6    6    0    0  0.15038810101E+02 -0.50306111545E+02  0.80899341758E+02  0.96444668930E+02  0.00000000000E+00 0.  1.
         12    1    6    6    0    0  0.53490958901E+02  0.47114882368E+01  0.27683021294E+02  0.60413826841E+02  0.00000000000E+00 0. -1.
         -5    1    3    3    0  503 -0.20317287392E+02  0.45700139396E+02 -0.28825811837E+01  0.50315943617E+02  0.47000000000E+01 0.  1.
         11    1    4    4    0    0  0.12610629836E+02  0.13157570612E+01  0.76519669933E+02  0.77563000768E+02  0.00000000000E+00 0. -1.
        -12    1    4    4    0    0 -0.51626948398E+02 -0.54093444972E+02  0.81320020907E+02  0.11047347369E+03  0.00000000000E+00 0.  1.
</event>
<event>
12    1  0.1046899E+000  0.3461482E+03  0.7818608E-02  0.1064228E+00
         21   -1    0    0  501  502  0.00000000000E+00  0.00000000000E+00  0.65060288090E+02  0.65060288090E+02  0.00000000000E+00 0.  1.
         21   -1    0    0  502  503 -0.00000000000E+00 -0.00000000000E+00 -0.22964882514E+04  0.22964882514E+04  0.00000000000E+00 0. -1.
         -6    2    1    2    0  503 -0.23573378718E+03  0.18623967699E+03 -0.16415509682E+04  0.16776089003E+04  0.17154126442E+03 0.  0.
        -24    2    3    3    0    0 -0.22705630285E+03  0.20853866478E+03 -0.14563771239E+04  0.14908363482E+04  0.80720200603E+02 0.  0.
          6    2    1    2  501    0  0.23573378718E+03 -0.18623967699E+03 -0.58987699509E+03  0.68393963919E+03  0.17193872458E+03 0.  0.
         24    2    5    5    0    0  0.87405947676E+02 -0.15244359852E+03 -0.30928543099E+03  0.36472648355E+03  0.80554823302E+02 0.  0.
          5    1    5    5  501    0  0.14832783951E+03 -0.33796078477E+02 -0.28059156410E+03  0.31921315564E+03  0.47000000000E+01 0. -1.
        -11    1    6    6    0    0  0.35126512148E+02 -0.15527189940E+02 -0.11578762584E+03  0.12199073646E+03  0.00000000000E+00 0.  1.
         12    1    6    6    0    0  0.52279435528E+02 -0.13691640858E+03 -0.19349780515E+03  0.24273574709E+03  0.00000000000E+00 0. -1.
         -5    1    3    3    0  503 -0.86774843362E+01 -0.22298987786E+02 -0.18517384431E+03  0.18677255207E+03  0.47000000000E+01 0.  1.
         11    1    4    4    0    0 -0.15934796247E+03  0.10224291684E+03 -0.76605613320E+03  0.78910543427E+03  0.00000000000E+00 0. -1.
        -12    1    4    4    0    0 -0.67708340375E+02  0.10629574794E+03 -0.69032099071E+03  0.70173091396E+03  0.00000000000E+00 0.  1.
</event>
<event>
12    1  0.1046899E+000  0.2189942E+03  0.7818608E-02  0.1134839E+00
         21   -1    0    0  501  502  0.00000000000E+00  0.00000000000E+00  0.79806724423E+03  0.79806724423E+03  0.00000000000E+00 0.  1.
         21   -1    0    0  502  503 -0.00000000000E+00 -0.00000000000E+00 -0.83544137221E+02  0.83544137221E+02  0.00000000000E+00 0.  1.
         -6    2    1    2    0  503 -0.12301624859E+03 -0.63397610699E+02  0.12287843984E+03  0.25111269078E+03  0.16972394655E+03 0.  0.
        -24    2    3    3    0    0 -0.92525597878E+02 -0.15268783087E+02  0.65854368235E+01  0.12152790626E+03  0.77016504867E+02 0.  0.
          6    2    1    2  501    0  0.12301624859E+03  0.63397610699E+02  0.59164466717E+03  0.63049869067E+03  0.16832389104E+03 0.  0.
         24    2    5    5    0    0  0.12144907499E+03  0.38480466332E+02  0.28119115589E+03  0.31900745038E+03  0.80415565296E+02 0.  0.
          5    1    5    5  501    0  0.15671735996E+01  0.24917144367E+02  0.31045351127E+03  0.31149124029E+03  0.47000000000E+01 0. -1.
        -13    1    6    6    0    0 -0.30729635063E+01  0.13851278321E+02  0.49991085711E+01  0.15043008420E+02  0.00000000000E+00 0.  1.
         14    1    6    6    0    0  0.12452203849E+03  0.24629188011E+02  0.27619204732E+03  0.30396444196E+03  0.00000000000E+00 0. -1.
         -5    1    3    3    0  503 -0.30490650709E+02 -0.48128827612E+02  0.11629300302E+03  0.12958478452E+03  0.47000000000E+01 0.  1.
         13    1    4    4    0    0 -0.60275574794E+02  0.13441303044E+02  0.33887124134E+02  0.70442534923E+02  0.00000000000E+00 0. -1.
        -14    1    4    4    0    0 -0.32250023084E+02 -0.28710086131E+02 -0.27301687310E+02  0.51085371336E+02  0.00000000000E+00 0.  1.
</event>
<event>
12    1  0.1046899E+000  0.4181259E+03  0.7818608E-02  0.1037722E+00
         21   -1    0    0  503  502  0.00000000000E+00  0.00000000000E+00  0.28680805643E+03  0.28680805643E+03  0.00000000000E+00 0.  1.
         21   -1    0    0  501  503 -0.00000000000E+00 -0.00000000000E+00 -0.61681766724E+03  0.61681766724E+03  0.00000000000E+00 0.  1.
          6    2    1    2  501    0 -0.37620075937E+03 -0.60659894301E+02 -0.11334260620E+03  0.43269703892E+03  0.17080265509E+03 0.  0.
         24    2    3    3    0    0 -0.17192257957E+03 -0.26392721129E+02  0.10947068493E+02  0.19109027756E+03  0.78369042199E+02 0.  0.
         -6    2    1    2    0  502  0.37620075937E+03  0.60659894301E+02 -0.21666700461E+03  0.47092868474E+03  0.17211217593E+03 0.  0.
        -24    2    5    5    0    0  0.10182930199E+03  0.17447225885E+02 -0.24027317908E+02  0.13287666178E+03  0.80033010730E+02 0.  0.
          5    1    3    3  501    0 -0.20427817979E+03 -0.34267173172E+02 -0.12428967470E+03  0.24160676135E+03  0.47000000000E+01 0. -1.
        -13    1    4    4    0    0 -0.20616398345E+02  0.21702606915E+02  0.12185713543E+02  0.32319199282E+02  0.00000000000E+00 0.  1.
         14    1    4    4    0    0 -0.15130618123E+03 -0.48095328044E+02 -0.12386450504E+01  0.15877107828E+03  0.00000000000E+00 0. -1.
         -5    1    5    5    0  502  0.27437145738E+03  0.43212668416E+02 -0.19263968670E+03  0.33805202296E+03  0.47000000000E+01 0.  1.
         13    1    6    6    0    0  0.96372201450E+02 -0.32824205247E+00 -0.43690635935E+02  0.10581389617E+03  0.00000000000E+00 0. -1.
        -14    1    6    6    0    0  0.54571005396E+01  0.17775467938E+02  0.19663318027E+02  0.27062765611E+02  0.00000000000E+00 0.  1.
</event>
<event>
12    1  0.1046899E+000  0.1950081E+03  0.7818608E-02  0.1154244E+00
         21   -1    0    0  501  502  0.00000000000E+00  0.00000000000E+00  0.15247882247E+03  0.15247882247E+03  0.00000000000E+00 0.  1.
         21   -1    0    0  502  503 -0.00000000000E+00 -0.00000000000E+00 -0.26324782820E+03  0.26324782820E+03  0.00000000000E+00 0.  1.
         -6    2    1    2    0  503  0.88587457737E+02  0.25877369636E+02 -0.10512292528E+03  0.22063687607E+03  0.17062363768E+03 0.  0.
        -24    2    3    3    0    0  0.64787300000E+02  0.37012099988E+02  0.16174248272E+02  0.96437342897E+02  0.58917442333E+02 0.  0.
          6    2    1    2  501    0 -0.88587457737E+02 -0.25877369636E+02 -0.56460804442E+01  0.19508977460E+03  0.17178697856E+03 0.  0.
         24    2    5    5    0    0 -0.52223453837E+02  0.51886240619E+02  0.56490672069E+01  0.10837651022E+03  0.79335269017E+02 0.  0.
          5    1    5    5  501    0 -0.36364003900E+02 -0.77763610256E+02 -0.11295147651E+02  0.86713264384E+02  0.47000000000E+01 0. -1.
        -13    1    6    6    0    0 -0.82425590852E+01  0.14125569937E+00  0.33852783199E+02  0.34842081794E+02  0.00000000000E+00 0.  1.
         14    1    6    6    0    0 -0.43980894751E+02  0.51744984920E+02 -0.28203715992E+02  0.73534428421E+02  0.00000000000E+00 0. -1.
         -5    1    3    3    0  503  0.23800157737E+02 -0.11134730352E+02 -0.12129717355E+03  0.12419953317E+03  0.47000000000E+01 0.  1.
         13    1    4    4    0    0  0.29074535331E+02 -0.96621796961E+01  0.21496443673E+02  0.37427041184E+02  0.00000000000E+00 0. -1.
        -14    1    4    4    0    0  0.35712764669E+02  0.46674279685E+02 -0.53221954013E+01  0.59010301713E+02  0.00000000000E+00 0.  1.
</event>
<event>
12    1  0.1046899E+000  0.1933428E+03  0.7818608E-02  0.1155757E+00
         21   -1    0    0  501  502  0.00000000000E+00  0.00000000000E+00  0.11279854446E+03  0.11279854446E+03  0.00000000000E+00 0.  1.
         21   -1    0    0  502  503 -0.00000000000E+00 -0.00000000000E+00 -0.33989646173E+03  0.33989646173E+03  0.00000000000E+00 0.  1.
         -6    2    1    2    0  503 -0.52647897319E+02 -0.70343930907E+02 -0.15394038262E+03  0.24714182530E+03  0.17222476798E+03 0.  0.
        -24    2    3    3    0    0 -0.62094673096E+02 -0.28728872801E+02 -0.20333173619E+02  0.10680640237E+03  0.79454849302E+02 0.  0.
          6    2    1    2  501    0  0.52647897319E+02  0.70343930907E+02 -0.73157534648E+02  0.20555318088E+03  0.17082158993E+03 0.  0.
         24    2    5    5    0    0 -0.28127249907E+02  0.53814534206E+02 -0.70468701228E+02  0.12292651938E+03  0.80361340433E+02 0.  0.
          5    1    5    5  501    0  0.80775147226E+02  0.16529396701E+02 -0.26888334203E+01  0.82626661495E+02  0.47000000000E+01 0. -1.
        -13    1    6    6    0    0 -0.19253667616E+02 -0.13767579871E+02 -0.43695989104E+02  0.49694963889E+02  0.00000000000E+00 0.  1.
         14    1    6    6    0    0 -0.88735822917E+01  0.67582114077E+02 -0.26772712124E+02  0.73231555496E+02  0.00000000000E+00 0. -1.
         -5    1    3    3    0  503  0.94467757775E+01 -0.41615058106E+02 -0.13360720900E+03  0.14033542294E+03  0.47000000000E+01 0.  1.
         13    1    4    4    0    0 -0.58038014338E+02 -0.24174872216E+02 -0.47604915553E+02  0.78861039428E+02  0.00000000000E+00 0. -1.
        -14    1    4    4    0    0 -0.40566587588E+01 -0.45540005858E+01  0.27271741934E+02  0.27945362938E+02  0.00000000000E+00 0.  1.
</event>
<event>
12    1  0.1046899E+000  0.2509201E+03  0.7818608E-02  0.1112796E+00
         21   -1    0    0  503  502  0.00000000000E+00  0.00000000000E+00  0.84866755468E+02  0.84866755468E+02  0.00000000000E+00 0. -1.
         21   -1    0    0  501  503 -0.00000000000E+00 -0.00000000000E+00 -0.11621372362E+04  0.11621372362E+04  0.00000000000E+00 0. -1.
          6    2    1    2  501    0 -0.72758140826E+02 -0.16714604040E+03 -0.16340436901E+03  0.29943594567E+03  0.17242201679E+03 0.  0.
         24    2    3    3    0    0  0.16691920078E+02 -0.10437971424E+03 -0.12661544600E+03  0.18403906551E+03  0.81640440518E+02 0.  0.
         -6    2    1    2    0  502  0.72758140826E+02  0.16714604040E+03 -0.91386611176E+03  0.94756804603E+03  0.17176258547E+03 0.  0.
        -24    2    5    5    0    0 -0.19716162015E+02  0.37211606028E+02 -0.26818796586E+03  0.28246894664E+03  0.78041592224E+02 0.  0.
          5    1    3    3  501    0 -0.89450060904E+02 -0.62766326155E+02 -0.36788923012E+02  0.11539688016E+03  0.47000000000E+01 0. -1.
        -11    1    4    4    0    0 -0.27025120405E+02 -0.77246543009E+02 -0.83396724163E+02  0.11684348138E+03  0.00000000000E+00 0.  1.
         12    1    4    4    0    0  0.43717040483E+02 -0.27133171231E+02 -0.43218721834E+02  0.67195584131E+02  0.00000000000E+00 0. -1.
         -5    1    5    5    0  502  0.92474302841E+02  0.12993443437E+03 -0.64567814589E+03  0.66509909939E+03  0.47000000000E+01 0.  1.
         11    1    6    6    0    0  0.17387248985E+02 -0.13522770328E+02 -0.11129982189E+03  0.11345850386E+03  0.00000000000E+00 0. -1.
        -12    1    6    6    0    0 -0.37103411001E+02  0.50734376355E+02 -0.15688814397E+03  0.16901044279E+03  0.00000000000E+00 0.  1.
</event>
<event>
12    1  0.1046899E+000  0.2693910E+03  0.7818608E-02  0.1102069E+00
         21   -1    0    0  503  502  0.00000000000E+00  0.00000000000E+00  0.11863632310E+03  0.11863632310E+03  0.00000000000E+00 0. -1.
         21   -1    0    0  501  503 -0.00000000000E+00 -0.00000000000E+00 -0.75431474729E+03  0.75431474729E+03  0.00000000000E+00 0. -1.
          6    2    1    2  501    0 -0.16130279730E+03 -0.12325200459E+03 -0.51360543784E+03  0.57996728830E+03  0.17709280239E+03 0.  0.
         24    2    3    3    0    0 -0.29351956656E+02 -0.11385459426E+02 -0.98864691703E+02  0.13057088779E+03  0.79267669500E+02 0.  0.
         -6    2    1    2    0  502  0.16130279730E+03  0.12325200459E+03 -0.12207298635E+03  0.29298378209E+03  0.17241819369E+03 0.  0.
        -24    2    5    5    0    0  0.47049803905E+02  0.46739792569E+02 -0.11661528846E+03  0.15528940473E+03  0.78213691008E+02 0.  0.
          5    1    3    3  501    0 -0.13195084065E+03 -0.11186654517E+03 -0.41474074614E+03  0.44939640050E+03  0.47000000000E+01 0. -1.
        -11    1    4    4    0    0 -0.34481939773E+02 -0.38359932721E+01 -0.11047930232E+03  0.11579894324E+03  0.00000000000E+00 0.  1.
         12    1    4    4    0    0  0.51299831168E+01 -0.75494661535E+01  0.11614610619E+02  0.14771944550E+02  0.00000000000E+00 0. -1.
         -5    1    5    5    0  502  0.11425299340E+03  0.76512212025E+02 -0.54576978837E+01  0.13769437736E+03  0.47000000000E+01 0.  1.
         11    1    6    6    0    0  0.12388700539E+02  0.62845207904E+02 -0.78419389793E+02  0.10125512705E+03  0.00000000000E+00 0. -1.
        -12    1    6    6    0    0  0.34661103366E+02 -0.16105415335E+02 -0.38195898671E+02  0.54034277685E+02  0.00000000000E+00 0.  1.
</event>
<event>
12    1  0.1046899E+000  0.2287934E+03  0.7818608E-02  0.1127529E+00
         21   -1    0    0  501  502  0.00000000000E+00  0.00000000000E+00  0.73286947484E+02  0.73286947484E+02  0.00000000000E+00 0. -1.
         21   -1    0    0  502  503 -0.00000000000E+00 -0.00000000000E+00 -0.77492004900E+03  0.77492004900E+03  0.00000000000E+00 0. -1.
         -6    2    1    2    0  503 -0.83688977440E+02 -0.12431267432E+03 -0.23138558818E+03  0.32525467685E+03  0.17260888868E+03 0.  0.
        -24    2    3    3    0    0 -0.14814446049E+02 -0.97904284948E+02 -0.21482811464E+03  0.24950941935E+03  0.79366962158E+02 0.  0.
          6    2    1    2  501    0  0.83688977440E+02  0.12431267432E+03 -0.47024751333E+03  0.52295231963E+03  0.17288411978E+03 0.  0.
         24    2    5    5    0    0  0.88239595146E+02  0.10324002126E+03 -0.47520464316E+03  0.50033754648E+03  0.77932531037E+02 0.  0.
          5    1    5    5  501    0 -0.45506177060E+01  0.21072653063E+02  0.49571298286E+01  0.22614773153E+02  0.47000000000E+01 0. -1.
        -11    1    6    6    0    0  0.90952669745E+02  0.54027508640E+02 -0.35480071371E+03  0.37023628439E+03  0.00000000000E+00 0.  1.
         12    1    6    6    0    0 -0.27130745990E+01  0.49212512620E+02 -0.12040392945E+03  0.13010126210E+03  0.00000000000E+00 0. -1.
         -5    1    3    3    0  503 -0.68874531392E+02 -0.26408389375E+02 -0.16557473545E+02  0.75745257502E+02  0.47000000000E+01 0.  1.
         11    1    4    4    0    0 -0.43898292803E+02 -0.30406458829E+02 -0.89521261136E+02  0.10423851997E+03  0.00000000000E+00 0. -1.
        -12    1    4    4    0    0  0.29083846754E+02 -0.67497826119E+02 -0.12530685350E+03  0.14527089938E+03  0.00000000000E+00 0.  1.
</event>
<event>
12    1  0.1046899E+000  0.1774412E+03  0.7818608E-02  0.1170320E+00
         21   -1    0    0  501  502  0.00000000000E+00  0.00000000000E+00  0.55150733033E+02  0.55150733033E+02  0.00000000000E+00 0. -1.
         21   -1    0    0  502  503 -0.00000000000E+00 -0.00000000000E+00 -0.57966855953E+03  0.57966855953E+03  0.00000000000E+00 0. -1.
         -6    2    1    2    0  503  0.18613509141E+01  0.42746327952E+02 -0.22266564484E+03  0.28467629815E+03  0.17213335574E+03 0.  0.
        -24    2    3    3    0    0 -0.30996299837E+02  0.19213242661E+02 -0.39692879908E+02  0.97234163022E+02  0.80926129564E+02 0.  0.
          6    2    1    2  501    0 -0.18613509141E+01 -0.42746327952E+02 -0.30185218166E+03  0.35014299441E+03  0.17220529545E+03 0.  0.
         24    2    5    5    0    0  0.69782912778E+01  0.42284871704E+02 -0.13647937120E+03  0.16392081359E+03  0.80041910530E+02 0.  0.
          5    1    5    5  501    0 -0.88396421919E+01 -0.85031199656E+02 -0.16537281046E+03  0.18622218082E+03  0.47000000000E+01 0. -1.
        -13    1    6    6    0    0 -0.23907394852E+02  0.50349230979E+02 -0.64917040980E+02  0.85561853640E+02  0.00000000000E+00 0.  1.
         14    1    6    6    0    0  0.30885686130E+02 -0.80643592744E+01 -0.71562330218E+02  0.78358959950E+02  0.00000000000E+00 0. -1.
         -5    1    3    3    0  503  0.32857650751E+02  0.23533085291E+02 -0.18297276493E+03  0.18744213513E+03  0.47000000000E+01 0.  1.
         13    1    4    4    0    0 -0.11376781122E+01  0.47538620216E+02 -0.19573782587E+02  0.51423221295E+02  0.00000000000E+00 0. -1.
        -14    1    4    4    0    0 -0.29858621725E+02 -0.28325377556E+02 -0.20119097321E+02  0.45810941728E+02  0.00000000000E+00 0.  1.
</event>
<event>
12    1  0.1046899E+000  0.2133206E+03  0.7818608E-02  0.1139232E+00
         21   -1    0    0  503  502  0.00000000000E+00  0.00000000000E+00  0.37014923990E+02  0.37014923990E+02  0.00000000000E+00 0. -1.
         21   -1    0    0  501  503 -0.00000000000E+00 -0.00000000000E+00 -0.14072291324E+04  0.14072291324E+04  0.00000000000E+00 0. -1.
          6    2    1    2  501    0 -0.11604622234E+03  0.44683421760E+02 -0.42465636933E+03  0.47522492117E+03  0.17332731981E+03 0.  0.
         24    2    3    3    0    0 -0.13032461863E+03  0.78243877405E+02 -0.38226119291E+03  0.41910346567E+03  0.80109205216E+02 0.  0.
         -6    2    1    2    0  502  0.11604622234E+03 -0.44683421760E+02 -0.94555783912E+03  0.96901913525E+03  0.17162495003E+03 0.  0.
        -24    2    5    5    0    0  0.10820756553E+03  0.15175258492E+02 -0.79948122684E+03  0.81088952766E+03  0.80202420769E+02 0.  0.
          5    1    3    3  501    0  0.14278396292E+02 -0.33560455645E+02 -0.42395176416E+02  0.56121455496E+02  0.47000000000E+01 0. -1.
        -13    1    4    4    0    0 -0.13642620090E+03  0.53832251171E+02 -0.32604562269E+03  0.35751331113E+03  0.00000000000E+00 0.  1.
         14    1    4    4    0    0  0.61015822692E+01  0.24411626234E+02 -0.56215570226E+02  0.61590154549E+02  0.00000000000E+00 0. -1.
         -5    1    5    5    0  502  0.78386568137E+01 -0.59858680252E+02 -0.14607661228E+03  0.15812960759E+03  0.47000000000E+01 0.  1.
         11    1    6    6    0    0  0.39876300041E+02 -0.14930834319E+02 -0.51550229593E+03  0.51725783342E+03  0.00000000000E+00 0. -1.
        -12    1    6    6    0    0  0.68331265487E+02  0.30106092811E+02 -0.28397893091E+03  0.29363169425E+03  0.00000000000E+00 0.  1.
</event>
<event>
12    1  0.1046899E+000  0.4707343E+03  0.7818608E-02  0.1021765E+00
         21   -1    0    0  501  502  0.00000000000E+00  0.00000000000E+00  0.66163401258E+03  0.66163401258E+03  0.00000000000E+00 0.  1.
         21   -1    0    0  502  503 -0.00000000000E+00 -0.00000000000E+00 -0.35232650815E+03  0.35232650815E+03  0.00000000000E+00 0.  1.
         -6    2    1    2    0  503  0.72565282358E+02  0.43145991761E+03  0.40397258510E+02  0.47246456257E+03  0.17368777642E+03 0.  0.
        -24    2    3    3    0    0  0.89444610692E+02  0.21084001595E+03  0.47739423132E+01  0.24830131091E+03  0.95796136504E+02 0.  0.
          6    2    1    2  501    0 -0.72565282358E+02 -0.43145991761E+03  0.26891024593E+03  0.54149595817E+03  0.17170256737E+03 0.  0.
         24    2    5    5    0    0 -0.78839522577E+02 -0.37845630793E+03  0.28347747307E+03  0.48597080318E+03  0.79770273124E+02 0.  0.
          5    1    5    5  501    0  0.62742402189E+01 -0.53003609685E+02 -0.14567227145E+02  0.55525154990E+02  0.47000000000E+01 0. -1.
        -13    1    6    6    0    0  0.54730252853E+01 -0.13880122659E+03  0.12251822228E+03  0.18522000243E+03  0.00000000000E+00 0.  1.
         14    1    6    6    0    0 -0.84312547862E+02 -0.23965508133E+03  0.16095925079E+03  0.30075080075E+03  0.00000000000E+00 0. -1.
         -5    1    3    3    0  503 -0.16879328334E+02  0.22061990166E+03  0.35623316197E+02  0.22416325165E+03  0.47000000000E+01 0.  1.
         11    1    4    4    0    0  0.65672646662E+02  0.20109054263E+03 -0.20156351215E+02  0.21250077964E+03  0.00000000000E+00 0. -1.
        -12    1    4    4    0    0  0.23771964029E+02  0.97494733191E+01  0.24930293529E+02  0.35800531270E+02  0.00000000000E+00 0.  1.
</event>
<event>
12    1  0.1046899E+000  0.2145526E+03  0.7818608E-02  0.1138235E+00
         21   -1    0    0  501  502  0.00000000000E+00  0.00000000000E+00  0.13231373977E+03  0.13231373977E+03  0.00000000000E+00 0. -1.
         21   -1    0    0  502  503 -0.00000000000E+00 -0.00000000000E+00 -0.41473999275E+03  0.41473999275E+03  0.00000000000E+00 0.  1.
         -6    2    1    2    0  503 -0.66196219487E+02  0.10916406686E+03 -0.25286520283E+03  0.33162274268E+03  0.17243578426E+03 0.  0.
        -24    2    3    3    0    0 -0.11114588240E+03  0.79953971513E+02 -0.20954880529E+03  0.26254233908E+03  0.79194275524E+02 0.  0.
          6    2    1    2  501    0  0.66196219487E+02 -0.10916406686E+03 -0.29561050147E+02  0.21543098984E+03  0.17099100190E+03 0.  0.
         24    2    5    5    0    0  0.96960633036E+01 -0.44976183031E+02 -0.79266381697E+02  0.11641047649E+03  0.71773038714E+02 0.  0.
          5    1    5    5  501    0  0.56500156183E+02 -0.64187883829E+02  0.49705331550E+02  0.99020513348E+02  0.47000000000E+01 0. -1.
        -11    1    6    6    0    0  0.23703162916E+02 -0.59572192784E+02 -0.52546881091E+02  0.82896687495E+02  0.00000000000E+00 0.  1.
         12    1    6    6    0    0 -0.14007099612E+02  0.14596009754E+02 -0.26719500607E+02  0.33513788997E+02  0.00000000000E+00 0. -1.
         -5    1    3    3    0  503  0.44949662910E+02  0.29210095347E+02 -0.43316397548E+02  0.69080403606E+02  0.47000000000E+01 0.  1.
         13    1    4    4    0    0 -0.24531075680E+02  0.27712924369E+02 -0.92447565285E+01  0.38147678492E+02  0.00000000000E+00 0. -1.
        -14    1    4    4    0    0 -0.86614806717E+02  0.52241047144E+02 -0.20030404876E+03  0.22439466058E+03  0.00000000000E+00 0.  1.
</event>
<event>
12    1  0.1046899E+000  0.1963827E+03  0.7818608E-02  0.1153102E+00
         21   -1    0    0  501  502  0.00000000000E+00  0.00000000000E+00  0.45622607363E+02  0.45622607363E+02  0.00000000000E+00 0. -1.
         21   -1    0    0  502  503 -0.00000000000E+00 -0.00000000000E+00 -0.18722897970E+04  0.18722897970E+04  0.00000000000E+00 0. -1.
         -6    2    1    2    0  503  0.85516551479E+02  0.40113016091E+02 -0.16267526846E+04  0.16385635338E+04  0.17217439639E+03 0.  0.
        -24    2    3    3    0    0  0.28064310697E+02  0.74608062462E+02 -0.66012769394E+03  0.66960706895E+03  0.79063809387E+02 0.  0.
          6    2    1    2  501    0 -0.85516551479E+02 -0.40113016091E+02 -0.19991450501E+03  0.27934887054E+03  0.17072740707E+03 0.  0.
         24    2    5    5    0    0 -0.64409162277E+02 -0.91549503292E+02 -0.12367404250E+03  0.18487171871E+03  0.79702144599E+02 0.  0.
          5    1    5    5  501    0 -0.21107389203E+02  0.51436487201E+02 -0.76240462509E+02  0.94477151831E+02  0.47000000000E+01 0. -1.
        -11    1    6    6    0    0  0.35440021219E+01 -0.69329520742E+01  0.10010706857E+02  0.12682272166E+02  0.00000000000E+00 0.  1.
         12    1    6    6    0    0 -0.67953164399E+02 -0.84616551218E+02 -0.13368474936E+03  0.17218944655E+03  0.00000000000E+00 0. -1.
         -5    1    3    3    0  503  0.57452240783E+02 -0.34495046371E+02 -0.96662499064E+03  0.96895646482E+03  0.47000000000E+01 0.  1.
         11    1    4    4    0    0 -0.72421145237E+01  0.28219250621E+02 -0.60468659100E+02  0.67121032931E+02  0.00000000000E+00 0. -1.
        -12    1    4    4    0    0  0.35306425220E+02  0.46388811841E+02 -0.59965903484E+03  0.60248603602E+03  0.00000000000E+00 0.  1.
</event>
<event>
12    1  0.1046899E+000  0.1773120E+03  0.7818608E-02  0.1170498E+00
         21   -1    0    0  501  502  0.00000000000E+00  0.00000000000E+00  0.11918862430E+03  0.11918862430E+03  0.00000000000E+00 0. -1.
         21   -1    0    0  502  503 -0.00000000000E+00 -0.00000000000E+00 -0.27352283334E+03  0.27352283334E+03  0.00000000000E+00 0. -1.
         -6    2    1    2    0  503 -0.43446200476E+02  0.10796362266E+01 -0.39278013008E+02  0.18134096760E+03  0.17161889836E+03 0.  0.
        -24    2    3    3    0    0 -0.38171197535E+02  0.45689770002E+02 -0.74714392711E+02  0.12393263460E+03  0.78945943757E+02 0.  0.
          6    2    1    2  501    0  0.43446200476E+02 -0.10796362266E+01 -0.11505619602E+03  0.21137049004E+03  0.17190351325E+03 0.  0.
         24    2    5    5    0    0  0.88831636714E+02 -0.27407793985E+02 -0.95073677287E+02  0.15502866926E+03  0.79703433607E+02 0.  0.
          5    1    5    5  501    0 -0.45385436238E+02  0.26328157758E+02 -0.19982518736E+02  0.56341820778E+02  0.47000000000E+01 0. -1.
        -11    1    6    6    0    0  0.13256899264E+02  0.23808294101E+02 -0.40028581020E+02  0.48423832402E+02  0.00000000000E+00 0.  1.
         12    1    6    6    0    0  0.75574737449E+02 -0.51216088086E+02 -0.55045096268E+02  0.10660483686E+03  0.00000000000E+00 0. -1.
         -5    1    3    3    0  503 -0.52750029409E+01 -0.44610133776E+02  0.35436379702E+02  0.57408333001E+02  0.47000000000E+01 0.  1.
         13    1    4    4    0    0  0.22195801403E+02  0.24630935014E+02 -0.37087327666E+02  0.49747426396E+02  0.00000000000E+00 0. -1.
        -14    1    4    4    0    0 -0.60366998938E+02  0.21058834988E+02 -0.37627065044E+02  0.74185208200E+02  0.00000000000E+00 0.  1.
</event>
<event>
12    1  0.1046899E+000  0.2425509E+03  0.7818608E-02  0.1118650E+00
         21   -1    0    0  503  502  0.00000000000E+00  0.00000000000E+00  0.21498234906E+03  0.21498234906E+03  0.00000000000E+00 0. -1.
         21   -1    0    0  501  503 -0.00000000000E+00 -0.00000000000E+00 -0.49858058929E+03  0.49858058929E+03  0.00000000000E+00 0.  1.
          6    2    1    2  501    0 -0.16304258919E+03  0.61105290276E+02  0.10032417504E+03  0.25944033079E+03  0.16409632157E+03 0.  0.
         24    2    3    3    0    0 -0.14357397361E+03  0.10209552869E+03  0.78412235051E+02  0.20882956363E+03  0.80151888083E+02 0.  0.
         -6    2    1    2    0  502  0.16304258919E+03 -0.61105290276E+02 -0.38392241527E+03  0.45412260755E+03  0.16886142055E+03 0.  0.
        -24    2    5    5    0    0  0.15309223407E+03 -0.83544101602E+02 -0.38426640362E+03  0.42912824521E+03  0.77932873931E+02 0.  0.
          5    1    3    3  501    0 -0.19468615585E+02 -0.40990238419E+02  0.21911939992E+02  0.50610767161E+02  0.47000000000E+01 0. -1.
        -13    1    4    4    0    0 -0.61198400035E+02  0.22548253545E+02 -0.75292293921E+01  0.65653310655E+02  0.00000000000E+00 0.  1.
         14    1    4    4    0    0 -0.82375573571E+02  0.79547275150E+02  0.85941464443E+02  0.14317625297E+03  0.00000000000E+00 0. -1.
         -5    1    5    5    0  502  0.99503551226E+01  0.22438811327E+02  0.34398835050E+00  0.24994362340E+02  0.47000000000E+01 0.  1.
         11    1    6    6    0    0  0.15963853792E+03 -0.74278605897E+02 -0.33367848192E+03  0.37728384988E+03  0.00000000000E+00 0. -1.
        -12    1    6    6    0    0 -0.65463038553E+01 -0.92654957059E+01 -0.50587921704E+02  0.51844395330E+02  0.00000000000E+00 0.  1.
</event>
<event>
12    1  0.1046899E+000  0.1946283E+03  0.7818608E-02  0.1154583E+00
         21   -1    0    0  501  502  0.00000000000E+00  0.00000000000E+00  0.27019793934E+03  0.27019793934E+03  0.00000000000E+00 0. -1.
         21   -1    0    0  502  503 -0.00000000000E+00 -0.00000000000E+00 -0.23447998443E+03  0.23447998443E+03  0.00000000000E+00 0.  1.
         -6    2    1    2    0  503  0.61525126976E+01 -0.90474893801E+02  0.17854294975E+03  0.26411693092E+03  0.17221094179E+03 0.  0.
        -24    2    3    3    0    0 -0.41136349467E+02 -0.20840760886E+02  0.14820509749E+03  0.17451992075E+03  0.79786685957E+02 0.  0.
          6    2    1    2  501    0 -0.61525126976E+01  0.90474893801E+02 -0.14282499485E+03  0.24056099285E+03  0.17101769589E+03 0.  0.
         24    2    5    5    0    0 -0.59852979064E+02  0.42076914010E+02 -0.40997983724E+02  0.11559325809E+03  0.79549486808E+02 0.  0.
          5    1    5    5  501    0  0.53700466366E+02  0.48397979791E+02 -0.10182701113E+03  0.12496773476E+03  0.47000000000E+01 0. -1.
        -11    1    6    6    0    0 -0.43771481026E+02  0.48591579354E+02 -0.60778589634E+02  0.89281135147E+02  0.00000000000E+00 0.  1.
         12    1    6    6    0    0 -0.16081498038E+02 -0.65146653440E+01  0.19780605909E+02  0.26312122944E+02  0.00000000000E+00 0. -1.
         -5    1    3    3    0  503  0.47288862164E+02 -0.69634132915E+02  0.30337852268E+02  0.89597010172E+02  0.47000000000E+01 0.  1.
         11    1    4    4    0    0  0.20925731588E+02  0.94209104012E+01  0.41534824490E+02  0.47452939221E+02  0.00000000000E+00 0. -1.
        -12    1    4    4    0    0 -0.62062081054E+02 -0.30261671287E+02  0.10667027300E+03  0.12706698153E+03  0.00000000000E+00 0.  1.
</event>
<event>
12    1  0.1046899E+000  0.1803095E+03  0.7818608E-02  0.1168397E+00
         21   -1    0    0  501  502  0.00000000000E+00  0.00000000000E+00  0.14407673945E+04  0.14407673945E+04  0.00000000000E+00 0. -1.
         21   -1    0    0  502  503 -0.00000000000E+00 -0.00000000000E+00 -0.37450736517E+02  0.37450736517E+02  0.00000000000E+00 0. -1.
         -6    2    1    2    0  503  0.40772232939E+02 -0.36973910814E+02  0.11704438006E+04  0.11836993851E+04  0.16785737683E+03 0.  0.
        -24    2    3    3    0    0  0.48479797329E+02 -0.34975843262E+02  0.37437446534E+03  0.38757635736E+03  0.80533174057E+02 0.  0.
          6    2    1    2  501    0 -0.40772232939E+02  0.36973910814E+02  0.23287285738E+03  0.29451874588E+03  0.17170346213E+03 0.  0.
         24    2    5    5    0    0  0.18218607753E+02 -0.94075405388E+00  0.44404809534E+02  0.93372689099E+02  0.80086636046E+02 0.  0.
          5    1    5    5  501    0 -0.58990840691E+02  0.37914664868E+02  0.18846804785E+03  0.20114605678E+03  0.47000000000E+01 0. -1.
        -11    1    6    6    0    0 -0.71936986625E+01 -0.38457129848E+01 -0.21330222536E+02  0.22836751131E+02  0.00000000000E+00 0.  1.
         12    1    6    6    0    0  0.25412306415E+02  0.29049589309E+01  0.65735032070E+02  0.70535937967E+02  0.00000000000E+00 0. -1.
         -5    1    3    3    0  503 -0.77075643901E+01 -0.19980675521E+01  0.79606933524E+03  0.79612302776E+03  0.47000000000E+01 0.  1.
         11    1    4    4    0    0  0.55393707178E+02 -0.54428777806E+02  0.32309474488E+03  0.33229680832E+03  0.00000000000E+00 0. -1.
        -12    1    4    4    0    0 -0.69139098494E+01  0.19452934544E+02  0.51279720457E+02  0.55279549039E+02  0.00000000000E+00 0.  1.
</event>
<event>
12    1  0.1046899E+000  0.4082783E+03  0.7818608E-02  0.1041033E+00
         21   -1    0    0  501  502  0.00000000000E+00  0.00000000000E+00  0.16643438339E+03  0.16643438339E+03  0.00000000000E+00 0. -1.
         21   -1    0    0  502  503 -0.00000000000E+00 -0.00000000000E+00 -0.10681621359E+04  0.10681621359E+04  0.00000000000E+00 0. -1.
         -6    2    1    2    0  503  0.35036203925E+03 -0.11606507870E+03 -0.29343135637E+03  0.50198771114E+03  0.17223542082E+03 0.  0.
        -24    2    3    3    0    0  0.26886219774E+03 -0.54149375109E+02 -0.27651982926E+03  0.39814230552E+03  0.82674320524E+02 0.  0.
          6    2    1    2  501    0 -0.35036203925E+03  0.11606507870E+03 -0.60829639615E+03  0.73260880816E+03  0.17454655305E+03 0.  0.
         24    2    5    5    0    0 -0.10581326596E+03 -0.46673357936E+01 -0.24205443377E+03  0.27595173394E+03  0.79629010291E+02 0.  0.
          5    1    5    5  501    0 -0.24454877329E+03  0.12073241449E+03 -0.36624196238E+03  0.45665707422E+03  0.47000000000E+01 0. -1.
        -13    1    6    6    0    0 -0.48970586154E+02  0.30831205046E+02 -0.67130411663E+02  0.88629417706E+02  0.00000000000E+00 0.  1.
         14    1    6    6    0    0 -0.56842679811E+02 -0.35498540839E+02 -0.17492402210E+03  0.18732231623E+03  0.00000000000E+00 0. -1.
         -5    1    3    3    0  503  0.81499841511E+02 -0.61915703590E+02 -0.16911527113E+02  0.10384540561E+03  0.47000000000E+01 0.  1.
         11    1    4    4    0    0  0.73815876139E+01  0.14306192442E+02 -0.13722447957E+02  0.21153263479E+02  0.00000000000E+00 0. -1.
        -12    1    4    4    0    0  0.26148061013E+03 -0.68455567551E+02 -0.26279738130E+03  0.37698904204E+03  0.00000000000E+00 0.  1.
</event>
<event>
12    1  0.1046899E+000  0.1759123E+03  0.7818608E-02  0.1173462E+00
         21   -1    0    0  501  502  0.00000000000E+00  0.00000000000E+00  0.41401084643E+03  0.41401084643E+03  0.00000000000E+00 0.  1.
         21   -1    0    0  502  503 -0.00000000000E+00 -0.00000000000E+00 -0.11352193359E+03  0.11352193359E+03  0.00000000000E+00 0.  1.
         -6    2    1    2    0  503 -0.11830029374E+02 -0.28120073192E+02  0.31148295123E+03  0.35772440827E+03  0.17324674673E+03 0.  0.
        -24    2    3    3    0    0 -0.42617177282E+02 -0.41968960306E+02  0.13502394074E+03  0.17800375688E+03  0.99379351294E+02 0.  0.
          6    2    1    2  501    0  0.11830029374E+02  0.28120073192E+02 -0.10994038395E+02  0.16980837175E+03  0.16668331088E+03 0.  0.
         24    2    5    5    0    0  0.13246422020E+02  0.72743236089E+02  0.26934111028E+02  0.11103875925E+03  0.78339732101E+02 0.  0.
          5    1    5    5  501    0 -0.14163926459E+01 -0.44623162896E+02 -0.37928149423E+02  0.58769612502E+02  0.47000000000E+01 0. -1.
        -11    1    6    6    0    0  0.48542464788E+01  0.69852960922E+00  0.37431333224E+02  0.37751243151E+02  0.00000000000E+00 0.  1.
         12    1    6    6    0    0  0.83921755408E+01  0.72044706479E+02 -0.10497222196E+02  0.73287516098E+02  0.00000000000E+00 0. -1.
         -5    1    3    3    0  503  0.30787147909E+02  0.13848887114E+02  0.17645901050E+03  0.17972065139E+03  0.47000000000E+01 0.  1.
         13    1    4    4    0    0  0.25504552475E+02 -0.39500943788E+02  0.65582113875E+02  0.80695851302E+02  0.00000000000E+00 0. -1.
        -14    1    4    4    0    0 -0.68121729757E+02 -0.24680165183E+01  0.69441826862E+02  0.97307905581E+02  0.00000000000E+00 0.  1.
</event>
<event>
12    1  0.1046899E+000  0.4594126E+03  0.7818608E-02  0.1025076E+00
         21   -1    0    0  503  502  0.00000000000E+00  0.00000000000E+00  0.29167104935E+03  0.29167104935E+03  0.00000000000E+00 0. -1.
         21   -1    0    0  501  503 -0.00000000000E+00 -0.00000000000E+00 -0.73713203448E+03  0.73713203448E+03  0.00000000000E+00 0. -1.
          6    2    1    2  501    0 -0.42528642113E+03 -0.20504476530E+02 -0.29939347907E+03  0.54835787788E+03  0.17254255522E+03 0.  0.
         24    2    3    3    0    0 -0.38971776890E+03  0.20165570766E+02 -0.29079694260E+03  0.49344729412E+03  0.81490984854E+02 0.  0.
         -6    2    1    2    0  502  0.42528642113E+03  0.20504476530E+02 -0.14606750607E+03  0.48044520595E+03  0.16793720861E+03 0.  0.
        -24    2    5    5    0    0  0.22547448319E+03  0.71883587920E+02 -0.59897409233E+02  0.25681157874E+03  0.79740169051E+02 0.  0.
          5    1    3    3  501    0 -0.35568652233E+02 -0.40670047297E+02 -0.85965364681E+01  0.54910583752E+02  0.47000000000E+01 0. -1.
        -11    1    4    4    0    0 -0.25395207306E+03  0.88613834891E+01 -0.13960552090E+03  0.28993082105E+03  0.00000000000E+00 0.  1.
         12    1    4    4    0    0 -0.13576569584E+03  0.11304187277E+02 -0.15119142170E+03  0.20351647308E+03  0.00000000000E+00 0. -1.
         -5    1    5    5    0  502  0.19981193794E+03 -0.51379111389E+02 -0.86170096836E+02  0.22363362721E+03  0.47000000000E+01 0.  1.
         11    1    6    6    0    0  0.32853881552E+02  0.13402335964E+02  0.19416400230E+02  0.40447456536E+02  0.00000000000E+00 0. -1.
        -12    1    6    6    0    0  0.19262060164E+03  0.58481251955E+02 -0.79313809463E+02  0.21636412221E+03  0.00000000000E+00 0.  1.
</event>
<event>
12    1  0.1046899E+000  0.7437784E+03  0.7818608E-02  0.9646565E-01
         21   -1    0    0  501  502  0.00000000000E+00  0.00000000000E+00  0.11998586347E+04  0.11998586347E+04  0.00000000000E+00 0.  1.
         21   -1    0    0  502  503 -0.00000000000E+00 -0.00000000000E+00 -0.91133194768E+03  0.91133194768E+03  0.00000000000E+00 0.  1.
         -6    2    1    2    0  503 -0.21303099702E+03  0.68797202444E+03  0.88787668013E+03  0.11559802900E+04  0.17110733346E+03 0.  0.
        -24    2    3    3    0    0 -0.11014278180E+03  0.55700513917E+03  0.67408198146E+03  0.88492942195E+03  0.79544997767E+02 0.  0.
          6    2    1    2  501    0  0.21303099702E+03 -0.68797202444E+03 -0.59934999311E+03  0.95521029242E+03  0.18579175550E+03 0.  0.
         24    2    5    5    0    0  0.58521007849E+02 -0.28550945750E+03 -0.16664365618E+03  0.34438599808E+03  0.76754471193E+02 0.  0.
          5    1    5    5  501    0  0.15450998917E+03 -0.40246256694E+03 -0.43270633693E+03  0.61082429434E+03  0.47000000000E+01 0. -1.
        -11    1    6    6    0    0  0.49447026205E+02 -0.27618399618E+03 -0.13747153775E+03  0.31244364586E+03  0.00000000000E+00 0.  1.
         12    1    6    6    0    0  0.90739816441E+01 -0.93254613184E+01 -0.29172118432E+02  0.31942352222E+02  0.00000000000E+00 0. -1.
         -5    1    3    3    0  503 -0.10288821522E+03  0.13096688527E+03  0.21379469868E+03  0.27105086802E+03  0.47000000000E+01 0.  1.
         11    1    4    4    0    0 -0.94090474844E+02  0.39514672073E+03  0.42906449811E+03  0.59083863440E+03  0.00000000000E+00 0. -1.
        -12    1    4    4    0    0 -0.16052306958E+02  0.16185841844E+03  0.24501748335E+03  0.29409078756E+03  0.00000000000E+00 0.  1.
</event>
<event>
12    1  0.1046899E+000  0.1910145E+03  0.7818608E-02  0.1158731E+00
         21   -1    0    0  501  502  0.00000000000E+00  0.00000000000E+00  0.82088311179E+03  0.82088311179E+03  0.00000000000E+00 0.  1.
         21   -1    0    0  502  503 -0.00000000000E+00 -0.00000000000E+00 -0.68295894509E+02  0.68295894509E+02  0.00000000000E+00 0.  1.
         -6    2    1    2    0  503 -0.86794255012E+02  0.17500349445E+01  0.11034399898E+03  0.22059540828E+03  0.17014767327E+03 0.  0.
        -24    2    3    3    0    0 -0.12569914071E+02 -0.40466009337E+02  0.13333081711E+02  0.91271569602E+02  0.79732224968E+02 0.  0.
          6    2    1    2  501    0  0.86794255012E+02 -0.17500349445E+01  0.64224321831E+03  0.66858359802E+03  0.16429050719E+03 0.  0.
         24    2    5    5    0    0  0.12251329208E+03  0.10326951874E+02  0.54097301270E+03  0.56041961250E+03  0.79386327124E+02 0.  0.
          5    1    5    5  501    0 -0.35719037064E+02 -0.12076986818E+02  0.10127020561E+03  0.10816398552E+03  0.47000000000E+01 0. -1.
        -13    1    6    6    0    0  0.79933360638E+02  0.44493661263E+02  0.35513812616E+03  0.36673166851E+03  0.00000000000E+00 0.  1.
         14    1    6    6    0    0  0.42579931437E+02 -0.34166709389E+02  0.18583488654E+03  0.19368794399E+03  0.00000000000E+00 0. -1.
         -5    1    3    3    0  503 -0.74224340941E+02  0.42216044281E+02  0.97010917264E+02  0.12932383868E+03  0.47000000000E+01 0.  1.
         11    1    4    4    0    0 -0.39932047104E+02 -0.64702093197E+01 -0.10161441992E+02  0.41709554037E+02  0.00000000000E+00 0. -1.
        -12    1    4    4    0    0  0.27362133033E+02 -0.33995800017E+02  0.23494523703E+02  0.49562015566E+02  0.00000000000E+00 0.  1.
</event>
<event>
12    1  0.1046899E+000  0.1897676E+03  0.7818608E-02  0.1159229E+00
         21   -1    0    0  503  502  0.00000000000E+00  0.00000000000E+00  0.22691274928E+03  0.22691274928E+03  0.00000000000E+00 0. -1.
         21   -1    0    0  501  503 -0.00000000000E+00 -0.00000000000E+00 -0.23200458647E+03  0.23200458647E+03  0.00000000000E+00 0. -1.
          6    2    1    2  501    0  0.61574590294E+02 -0.41201446941E+02  0.12820551385E+03  0.22901610867E+03  0.17470756952E+03 0.  0.
         24    2    3    3    0    0 -0.35378915670E+02 -0.14852759771E+02  0.75505868379E+02  0.11546621538E+03  0.78479542475E+02 0.  0.
         -6    2    1    2    0  502 -0.61574590294E+02  0.41201446941E+02 -0.13329735104E+03  0.22990122707E+03  0.17203895203E+03 0.  0.
        -24    2    5    5    0    0 -0.16208679441E+02  0.38773610457E+02 -0.51230427121E+01  0.93832481311E+02  0.83738729542E+02 0.  0.
          5    1    3    3  501    0  0.96953505963E+02 -0.26348687170E+02  0.52699645474E+02  0.11354989330E+03  0.47000000000E+01 0. -1.
        -11    1    4    4    0    0 -0.13851740490E+02 -0.80805695054E+01 -0.15139538150E+02  0.22053841695E+02  0.00000000000E+00 0.  1.
         12    1    4    4    0    0 -0.21527175180E+02 -0.67721902652E+01  0.90645406528E+02  0.93412373682E+02  0.00000000000E+00 0. -1.
         -5    1    5    5    0  502 -0.45365910853E+02  0.24278364835E+01 -0.12817430833E+03  0.13606874576E+03  0.47000000000E+01 0.  1.
         13    1    6    6    0    0  0.21333013443E+02  0.41396124760E+01 -0.29980334226E+02  0.37027750327E+02  0.00000000000E+00 0. -1.
        -14    1    6    6    0    0 -0.37541692884E+02  0.34633997981E+02  0.24857291513E+02  0.56804730984E+02  0.00000000000E+00 0.  1.
</event>
<event>
12    1  0.1046899E+000  0.1960576E+03  0.7818608E-02  0.1153729E+00
         21   -1    0    0  503  502  0.00000000000E+00  0.00000000000E+00  0.39792172803E+02  0.39792172803E+02  0.00000000000E+00 0. -1.
         21   -1    0    0  501  503 -0.00000000000E+00 -0.00000000000E+00 -0.95912458072E+03  0.95912458072E+03  0.00000000000E+00 0. -1.
          6    2    1    2  501    0  0.28354957204E+02  0.89366439240E+02 -0.50598344380E+03  0.54263968625E+03  0.17218658377E+03 0.  0.
         24    2    3    3    0    0 -0.22890392096E+02  0.10641043022E+03 -0.42167118928E+03  0.44240381585E+03  0.77893483004E+02 0.  0.
         -6    2    1    2    0  502 -0.28354957204E+02 -0.89366439240E+02 -0.41334896412E+03  0.45627706727E+03  0.16894091252E+03 0.  0.
        -24    2    5    5    0    0  0.15022496523E+02 -0.11597063060E+03 -0.28705894750E+03  0.32003960992E+03  0.79672140772E+02 0.  0.
          5    1    3    3  501    0  0.51245349300E+02 -0.17043990979E+02 -0.84312254520E+02  0.10023587040E+03  0.47000000000E+01 0. -1.
        -11    1    4    4    0    0 -0.38206426104E+02  0.10388103874E+03 -0.30038688224E+03  0.32013009891E+03  0.00000000000E+00 0.  1.
         12    1    4    4    0    0  0.15316034009E+02  0.25293914802E+01 -0.12128430704E+03  0.12227371694E+03  0.00000000000E+00 0. -1.
         -5    1    5    5    0  502 -0.43377453727E+02  0.26604191356E+02 -0.12629001662E+03  0.13623745736E+03  0.47000000000E+01 0.  1.
         13    1    6    6    0    0  0.23881344859E+02 -0.41344711369E+02 -0.19720105957E+03  0.20289889523E+03  0.00000000000E+00 0. -1.
        -14    1    6    6    0    0 -0.88588483368E+01 -0.74625919228E+02 -0.89857887926E+02  0.11714071469E+03  0.00000000000E+00 0.  1.
</event>
<event>
12    1  0.1046899E+000  0.1744785E+03  0.7818608E-02  0.1173395E+00
         21   -1    0    0  503  502  0.00000000000E+00  0.00000000000E+00  0.44423622974E+03  0.44423622974E+03  0.00000000000E+00 0. -1.
         21   -1    0    0  501  503 -0.00000000000E+00 -0.00000000000E+00 -0.68986987607E+02  0.68986987607E+02  0.00000000000E+00 0. -1.
          6    2    1    2  501    0  0.13823439603E+02  0.16053296027E+02  0.16255971985E+03  0.23847101625E+03  0.17318766491E+03 0.  0.
         24    2    3    3    0    0  0.42542026639E+02  0.69200483510E+02  0.11704480761E+03  0.16268791777E+03  0.78545150403E+02 0.  0.
         -6    2    1    2    0  502 -0.13823439603E+02 -0.16053296027E+02  0.21268952228E+03  0.27475220110E+03  0.17263586917E+03 0.  0.
        -24    2    5    5    0    0 -0.52915081287E+02 -0.55727181837E+02  0.95082324761E+02  0.14453808292E+03  0.77104372822E+02 0.  0.
          5    1    3    3  501    0 -0.28718587036E+02 -0.53147187483E+02  0.45514912240E+02  0.75783098478E+02  0.47000000000E+01 0. -1.
        -11    1    4    4    0    0 -0.10457112378E+01 -0.16112498574E+02  0.98176326946E+01  0.18896878949E+02  0.00000000000E+00 0.  1.
         12    1    4    4    0    0  0.43587737877E+02  0.85312982084E+02  0.10722717492E+03  0.14379103882E+03  0.00000000000E+00 0. -1.
         -5    1    5    5    0  502  0.39091641683E+02  0.39673885810E+02  0.11760719752E+03  0.13021411818E+03  0.47000000000E+01 0.  1.
         11    1    6    6    0    0 -0.25726120015E+02  0.10089257997E+02  0.25139627894E+01  0.27747907793E+02  0.00000000000E+00 0. -1.
        -12    1    6    6    0    0 -0.27188961272E+02 -0.65816439834E+02  0.92568361972E+02  0.11679017512E+03  0.00000000000E+00 0.  1.
</event>
<event>
12    1  0.1046899E+000  0.2037977E+03  0.7818608E-02  0.1147188E+00
         21   -1    0    0  503  502  0.00000000000E+00  0.00000000000E+00  0.17289279360E+03  0.17289279360E+03  0.00000000000E+00 0.  1.
         21   -1    0    0  501  503 -0.00000000000E+00 -0.00000000000E+00 -0.39619560378E+03  0.39619560378E+03  0.00000000000E+00 0.  1.
          6    2    1    2  501    0 -0.75700461178E+02  0.60221627501E+02 -0.29166999682E+03  0.35412888920E+03  0.17600761030E+03 0.  0.
         24    2    3    3    0    0 -0.47867115273E+01  0.20983308207E+02 -0.24963096892E+03  0.26270801928E+03  0.78972596015E+02 0.  0.
         -6    2    1    2    0  502  0.75700461178E+02 -0.60221627501E+02  0.68367186633E+02  0.21495950817E+03  0.17937757303E+03 0.  0.
        -24    2    5    5    0    0  0.16470738865E+00 -0.59561036211E+02  0.92234801101E+02  0.13560057987E+03  0.79578354867E+02 0.  0.
          5    1    3    3  501    0 -0.70913749651E+02  0.39238319295E+02 -0.42039027901E+02  0.91420869923E+02  0.47000000000E+01 0. -1.
        -13    1    4    4    0    0 -0.19871336394E+02 -0.13683821036E+02 -0.19370587890E+03  0.19520267541E+03  0.00000000000E+00 0.  1.
         14    1    4    4    0    0  0.15084624867E+02  0.34667129243E+02 -0.55925090023E+02  0.67505343873E+02  0.00000000000E+00 0. -1.
         -5    1    5    5    0  502  0.75535753790E+02 -0.66059129038E+00 -0.23867614468E+02  0.79358928306E+02  0.47000000000E+01 0.  1.
         13    1    6    6    0    0  0.26458525598E+02  0.65520393794E+01  0.34528883775E+02  0.43991210617E+02  0.00000000000E+00 0. -1.
        -14    1    6    6    0    0 -0.26293818209E+02 -0.66113075590E+02  0.57705917326E+02  0.91609369250E+02  0.00000000000E+00 0.  1.
</event>
<event>
12    1  0.1046899E+000  0.3073898E+03  0.7818608E-02  0.1081688E+00
         21   -1    0    0  503  502  0.00000000000E+00  0.00000000000E+00  0.71347270947E+02  0.71347270947E+02  0.00000000000E+00 0. -1.
         21   -1    0    0  501  503 -0.00000000000E+00 -0.00000000000E+00 -0.14696708122E+04  0.14696708122E+04  0.00000000000E+00 0. -1.
          6    2    1    2  501    0  0.15981093254E+03  0.19951249127E+03 -0.45367159897E+03  0.54761193891E+03  0.16945839487E+03 0.  0.
         24    2    3    3    0    0  0.15060819170E+03  0.11157747178E+03 -0.38342579425E+03  0.43459060830E+03  0.81983519761E+02 0.  0.
         -6    2    1    2    0  502 -0.15981093254E+03 -0.19951249127E+03 -0.94465194226E+03  0.99340614422E+03  0.17071528059E+03 0.  0.
        -24    2    5    5    0    0 -0.81096455122E+02 -0.27239799333E+02 -0.39281826028E+03  0.40995404515E+03  0.80233981725E+02 0.  0.
          5    1    3    3  501    0  0.92027408370E+01  0.87935019486E+02 -0.70245804722E+02  0.11302133061E+03  0.47000000000E+01 0. -1.
        -11    1    4    4    0    0  0.80993204520E+02  0.90174884864E+02 -0.16780786509E+03  0.20700456184E+03  0.00000000000E+00 0.  1.
         12    1    4    4    0    0  0.69614987179E+02  0.21402586918E+02 -0.21561792916E+03  0.22758604646E+03  0.00000000000E+00 0. -1.
         -5    1    5    5    0  502 -0.78714477414E+02 -0.17227269193E+03 -0.55183368198E+03  0.58345209907E+03  0.47000000000E+01 0.  1.
         11    1    6    6    0    0  0.14120548087E+02 -0.11440786731E+02 -0.36209064794E+02  0.40513921713E+02  0.00000000000E+00 0. -1.
        -12    1    6    6    0    0 -0.95217003209E+02 -0.15799012602E+02 -0.35660919548E+03  0.36944012343E+03  0.00000000000E+00 0.  1.
</event>
<event>
12    1  0.1046899E+000  0.2423825E+03  0.7818608E-02  0.1118515E+00
         21   -1    0    0  503  502  0.00000000000E+00  0.00000000000E+00  0.13176514878E+03  0.13176514878E+03  0.00000000000E+00 0. -1.
         21   -1    0    0  501  503 -0.00000000000E+00 -0.00000000000E+00 -0.69667093637E+03  0.69667093637E+03  0.00000000000E+00 0. -1.
          6    2    1    2  501    0  0.61499984194E+02  0.15934369855E+03 -0.53195444204E+03  0.58382397744E+03  0.16941737193E+03 0.  0.
         24    2    3    3    0    0  0.22801791297E+01  0.15158228072E+03 -0.31050963193E+03  0.35441796436E+03  0.78825597933E+02 0.  0.
         -6    2    1    2    0  502 -0.61499984194E+02 -0.15934369855E+03 -0.32951345559E+02  0.24461210771E+03  0.17197857349E+03 0.  0.
        -24    2    5    5    0    0  0.22566043953E+02 -0.30670306079E+02 -0.16905087348E+02  0.90004503042E+02  0.79781793506E+02 0.  0.
          5    1    3    3  501    0  0.59219805064E+02  0.77614178283E+01 -0.22144481010E+03  0.22940601309E+03  0.47000000000E+01 0. -1.
        -11    1    4    4    0    0  0.35824855451E+02  0.80186038947E+02 -0.20198875214E+03  0.22025593545E+03  0.00000000000E+00 0.  1.
         12    1    4    4    0    0 -0.33544676322E+02  0.71396241770E+02 -0.10852087979E+03  0.13416202890E+03  0.00000000000E+00 0. -1.
         -5    1    5    5    0  502 -0.84066028147E+02 -0.12867339247E+03 -0.16046258211E+02  0.15460760466E+03  0.47000000000E+01 0.  1.
         13    1    6    6    0    0 -0.12972510896E+02 -0.46299447849E+01  0.25418969167E+02  0.28911008651E+02  0.00000000000E+00 0. -1.
        -14    1    6    6    0    0  0.35538554849E+02 -0.26040361294E+02 -0.42324056515E+02  0.61093494392E+02  0.00000000000E+00 0.  1.
</event>
<event>
12    1  0.1046899E+000  0.2165823E+03  0.7818608E-02  0.1136594E+00
         21   -1    0    0  501  502  0.00000000000E+00  0.00000000000E+00  0.72735670820E+02  0.72735670820E+02  0.00000000000E+00 0. -1.
         21   -1    0    0  502  503 -0.00000000000E+00 -0.00000000000E+00 -0.82891067259E+03  0.82891067259E+03  0.00000000000E+00 0. -1.
         -6    2    1    2    0  503  0.85638706000E+02 -0.99508991672E+02 -0.16395974516E+03  0.27106977468E+03  0.17134759212E+03 0.  0.
        -24    2    3    3    0    0 -0.19348824225E+02 -0.10391436276E+02 -0.43253198071E+02  0.87885493992E+02  0.73284800362E+02 0.  0.
          6    2    1    2  501    0 -0.85638706000E+02  0.99508991672E+02 -0.59221525661E+03  0.63057656873E+03  0.17225525093E+03 0.  0.
         24    2    5    5    0    0 -0.27923955381E+02  0.71230864525E+02 -0.52831292157E+03  0.53982281763E+03  0.80253024824E+02 0.  0.
          5    1    5    5  501    0 -0.57714750619E+02  0.28278127147E+02 -0.63902335043E+02  0.90753751095E+02  0.47000000000E+01 0. -1.
        -11    1    6    6    0    0 -0.49274776380E+02  0.66888006775E+02 -0.32919364529E+03  0.33951504405E+03  0.00000000000E+00 0.  1.
         12    1    6    6    0    0  0.21350820999E+02  0.43428577505E+01 -0.19911927628E+03  0.20030777359E+03  0.00000000000E+00 0. -1.
         -5    1    3    3    0  503  0.10498753022E+03 -0.89117555397E+02 -0.12070654708E+03  0.18318428069E+03  0.47000000000E+01 0.  1.
         13    1    4    4    0    0  0.13125308374E+02  0.13409451707E+02 -0.43767230320E+02  0.47619928233E+02  0.00000000000E+00 0. -1.
        -14    1    4    4    0    0 -0.32474132599E+02 -0.23800887982E+02  0.51403224878E+00  0.40265565760E+02  0.00000000000E+00 0.  1.
</event>
<event>
12    1  0.1046899E+000  0.1956002E+03  0.7818608E-02  0.1153780E+00
         21   -1    0    0  501  502  0.00000000000E+00  0.00000000000E+00  0.75611108949E+02  0.75611108949E+02  0.00000000000E+00 0. -1.
         21   -1    0    0  502  503 -0.00000000000E+00 -0.00000000000E+00 -0.62631244223E+03  0.62631244223E+03  0.00000000000E+00 0. -1.
         -6    2    1    2    0  503  0.78558465118E+02 -0.43252792576E+02 -0.43195728265E+03  0.47417984318E+03  0.17383093261E+03 0.  0.
        -24    2    3    3    0    0  0.78346896068E+02 -0.43439666985E+02 -0.13548939870E+03  0.17767457189E+03  0.72011357065E+02 0.  0.
          6    2    1    2  501    0 -0.78558465118E+02  0.43252792576E+02 -0.11874405063E+03  0.22774370800E+03  0.17240884684E+03 0.  0.
         24    2    5    5    0    0 -0.91163563043E+02  0.78803057145E+02 -0.57090546354E+02  0.15531474698E+03  0.79640587051E+02 0.  0.
          5    1    5    5  501    0  0.12605097925E+02 -0.35550264569E+02 -0.61653504274E+02  0.72428961017E+02  0.47000000000E+01 0. -1.
        -13    1    6    6    0    0 -0.85915018459E+02  0.23748214884E+02 -0.35097834736E+02  0.95797839799E+02  0.00000000000E+00 0.  1.
         14    1    6    6    0    0 -0.52485445839E+01  0.55054842261E+02 -0.21992711618E+02  0.59516907186E+02  0.00000000000E+00 0. -1.
         -5    1    3    3    0  503  0.21156905049E+00  0.18687440918E+00 -0.29646788396E+03  0.29650527129E+03  0.47000000000E+01 0.  1.
         13    1    4    4    0    0 -0.84319328651E+01  0.99381379915E+01 -0.14230032577E+02  0.19296577565E+02  0.00000000000E+00 0. -1.
        -14    1    4    4    0    0  0.86778828933E+02 -0.53377804977E+02 -0.12125936612E+03  0.15837799433E+03  0.00000000000E+00 0.  1.
</event>
<event>
12    1  0.1046899E+000  0.2612243E+03  0.7818608E-02  0.1106450E+00
         21   -1    0    0  501  502  0.00000000000E+00  0.00000000000E+00  0.10055166317E+04  0.10055166317E+04  0.00000000000E+00 0.  1.
         21   -1    0    0  502  503 -0.00000000000E+00 -0.00000000000E+00 -0.78301704682E+02  0.78301704682E+02  0.00000000000E+00 0.  1.
         -6    2    1    2    0  503 -0.83606111748E+02 -0.17672566803E+03  0.66191672793E+03  0.71149954253E+03  0.17284646549E+03 0.  0.
        -24    2    3    3    0    0 -0.40869390593E+02 -0.19056245480E+03  0.59042248504E+03  0.62693358737E+03  0.80390645442E+02 0.  0.
          6    2    1    2  501    0  0.83606111748E+02  0.17672566803E+03  0.26529819911E+03  0.37231879388E+03  0.17325185761E+03 0.  0.
         24    2    5    5    0    0  0.11301977569E+03  0.11501639785E+03  0.13511539400E+03  0.22520370153E+03  0.80363524146E+02 0.  0.
          5    1    5    5  501    0 -0.29413663944E+02  0.61709270181E+02  0.13018280511E+03  0.14711509236E+03  0.47000000000E+01 0. -1.
        -11    1    6    6    0    0  0.26109245098E+02  0.31286012617E+02 -0.41076634749E+01  0.40955831872E+02  0.00000000000E+00 0.  1.
         12    1    6    6    0    0  0.86910530594E+02  0.83730385232E+02  0.13922305747E+03  0.18424786965E+03  0.00000000000E+00 0. -1.
         -5    1    3    3    0  503 -0.42736721155E+02  0.13836786769E+02  0.71494242899E+02  0.84565955152E+02  0.47000000000E+01 0.  1.
         11    1    4    4    0    0 -0.26074954226E+02 -0.62792219294E+02  0.10767651364E+03  0.12734597611E+03  0.00000000000E+00 0. -1.
        -12    1    4    4    0    0 -0.14794436366E+02 -0.12777023550E+03  0.48274597140E+03  0.49958761127E+03  0.00000000000E+00 0.  1.
</event>
<event>
12    1  0.1046899E+000  0.2732646E+03  0.7818608E-02  0.1099569E+00
         21   -1    0    0  501  502  0.00000000000E+00  0.00000000000E+00  0.13757251475E+04  0.13757251475E+04  0.00000000000E+00 0. -1.
         21   -1    0    0  502  503 -0.00000000000E+00 -0.00000000000E+00 -0.63153298969E+02  0.63153298969E+02  0.00000000000E+00 0. -1.
         -6    2    1    2    0  503 -0.18186483265E+03 -0.10717844409E+03  0.38460237591E+03  0.47179714015E+03  0.17352670593E+03 0.  0.
        -24    2    3    3    0    0 -0.67231985717E+02 -0.11827303636E+03  0.22051214693E+03  0.27126915502E+03  0.80328677878E+02 0.  0.
          6    2    1    2  501    0  0.18186483265E+03  0.10717844409E+03  0.92796947263E+03  0.96708130632E+03  0.17192112923E+03 0.  0.
         24    2    5    5    0    0  0.19138933672E+03  0.12222841366E+03  0.83280371774E+03  0.87014922358E+03  0.10967212817E+03 0.  0.
          5    1    5    5  501    0 -0.95245040677E+01 -0.15049969568E+02  0.95165754884E+02  0.96932082740E+02  0.47000000000E+01 0. -1.
        -13    1    6    6    0    0  0.13578244439E+03  0.83171558395E+02  0.72824202187E+03  0.74544672697E+03  0.00000000000E+00 0.  1.
         14    1    6    6    0    0  0.55606892331E+02  0.39056855261E+02  0.10456169587E+03  0.12470249661E+03  0.00000000000E+00 0. -1.
         -5    1    3    3    0  503 -0.11463284693E+03  0.11094592274E+02  0.16409022898E+03  0.20052798513E+03  0.47000000000E+01 0.  1.
         11    1    4    4    0    0  0.61335111004E+01  0.21192125959E+01  0.48176796520E+02  0.48611878624E+02  0.00000000000E+00 0. -1.
        -12    1    4    4    0    0 -0.73365496817E+02 -0.12039224896E+03  0.17233535041E+03  0.22265727640E+03  0.00000000000E+00 0.  1.
</event>
<event>
12    1  0.1046899E+000  0.2383087E+03  0.7818608E-02  0.1120967E+00
         21   -1    0    0  503  502  0.00000000000E+00  0.00000000000E+00  0.96365681222E+03  0.96365681222E+03  0.00000000000E+00 0. -1.
         21   -1    0    0  501  503 -0.00000000000E+00 -0.00000000000E+00 -0.65843543491E+02  0.65843543491E+02  0.00000000000E+00 0. -1.
          6    2    1    2  501    0  0.86782510774E+02  0.13976991512E+03  0.61620607281E+03  0.66059161907E+03  0.17205966892E+03 0.  0.
         24    2    3    3    0    0  0.32023113310E+02  0.14569266718E+02  0.32060065610E+03  0.33489475639E+03  0.90177457528E+02 0.  0.
         -6    2    1    2    0  502 -0.86782510774E+02 -0.13976991512E+03  0.28160719592E+03  0.36890873664E+03  0.17240710492E+03 0.  0.
        -24    2    5    5    0    0 -0.10529144154E+02 -0.13532462081E+03  0.22208261086E+03  0.27195718798E+03  0.78844214566E+02 0.  0.
          5    1    3    3  501    0  0.54759397465E+02  0.12520064841E+03  0.29560541671E+03  0.32569686268E+03  0.47000000000E+01 0. -1.
        -13    1    4    4    0    0  0.61697104022E+02  0.13807778387E+01  0.24424734965E+03  0.25192301801E+03  0.00000000000E+00 0.  1.
         14    1    4    4    0    0 -0.29673990713E+02  0.13188488879E+02  0.76353306447E+02  0.82971738376E+02  0.00000000000E+00 0. -1.
         -5    1    5    5    0  502 -0.76253366620E+02 -0.44452943132E+01  0.59524585062E+02  0.96951548669E+02  0.47000000000E+01 0.  1.
         13    1    6    6    0    0 -0.39492405709E+02 -0.35915484972E+02  0.72397083703E+02  0.89949485258E+02  0.00000000000E+00 0. -1.
        -14    1    6    6    0    0  0.28963261554E+02 -0.99409135840E+02  0.14968552716E+03  0.18200770272E+03  0.00000000000E+00 0.  1.
</event>
<event>
12    1  0.1046899E+000  0.3106274E+03  0.7818608E-02  0.1080053E+00
         21   -1    0    0  501  502  0.00000000000E+00  0.00000000000E+00  0.12832598479E+03  0.12832598479E+03  0.00000000000E+00 0. -1.
         21   -1    0    0  502  503 -0.00000000000E+00 -0.00000000000E+00 -0.75222847719E+03  0.75222847719E+03  0.00000000000E+00 0. -1.
         -6    2    1    2    0  503 -0.29804273277E+02 -0.25678995832E+03 -0.30085162021E+03  0.43239012319E+03  0.17210503726E+03 0.  0.
        -24    2    3    3    0    0 -0.43972595203E+02 -0.11631447188E+03 -0.75499124624E+02  0.16642031117E+03  0.80826707560E+02 0.  0.
          6    2    1    2  501    0  0.29804273277E+02  0.25678995832E+03 -0.32305087219E+03  0.44816433879E+03  0.17222087895E+03 0.  0.
         24    2    5    5    0    0  0.38566199493E+02  0.14850723883E+03 -0.99452680189E+02  0.19952773619E+03  0.79866953009E+02 0.  0.
          5    1    5    5  501    0 -0.87619262162E+01  0.10828271949E+03 -0.22359819200E+03  0.24863660261E+03  0.47000000000E+01 0. -1.
        -11    1    6    6    0    0  0.68428472336E+01  0.18616006851E+02  0.13914019108E+02  0.24227674199E+02  0.00000000000E+00 0.  1.
         12    1    6    6    0    0  0.31723352259E+02  0.12989123198E+03 -0.11336669930E+03  0.17530006199E+03  0.00000000000E+00 0. -1.
         -5    1    3    3    0  503  0.14168321927E+02 -0.14047548644E+03 -0.22535249559E+03  0.26596981202E+03  0.47000000000E+01 0.  1.
         13    1    4    4    0    0 -0.54731488075E+02 -0.12328641545E+03 -0.72939877813E+02  0.15334699801E+03  0.00000000000E+00 0. -1.
        -14    1    4    4    0    0  0.10758892872E+02  0.69719435721E+01 -0.25592468112E+01  0.13073313170E+02  0.00000000000E+00 0.  1.
</event>
<event>
12    1  0.1046899E+000  0.1940344E+03  0.7818608E-02  0.1154948E+00
         21   -1    0    0  501  502  0.00000000000E+00  0.00000000000E+00  0.20367132597E+03  0.20367132597E+03  0.00000000000E+00 0.  1.
         21   -1    0    0  502  503 -0.00000000000E+00 -0.00000000000E+00 -0.21788625495E+03  0.21788625495E+03  0.00000000000E+00 0.  1.
         -6    2    1    2    0  503 -0.64353367108E+02  0.64851821123E+02  0.75376975025E+02  0.20783801381E+03  0.17078593929E+03 0.  0.
        -24    2    3    3    0    0  0.30744970595E+02  0.21601675391E+02  0.35872881124E+02  0.96048334616E+02  0.80786962969E+02 0.  0.
          6    2    1    2  501    0  0.64353367108E+02 -0.64851821123E+02 -0.89591904011E+02  0.21371956711E+03  0.17117894012E+03 0.  0.
         24    2    5    5    0    0  0.37864701283E+02  0.26554147786E+02 -0.16551762789E+02  0.93662693925E+02  0.79748862149E+02 0.  0.
          5    1    5    5  501    0  0.26488665825E+02 -0.91405968909E+02 -0.73040141222E+02  0.12005687319E+03  0.47000000000E+01 0. -1.
        -11    1    6    6    0    0 -0.10267005379E+02  0.11519039319E+02  0.24286940621E+02  0.28774209824E+02  0.00000000000E+00 0.  1.
         12    1    6    6    0    0  0.48131706662E+02  0.15035108467E+02 -0.40838703409E+02  0.64888484101E+02  0.00000000000E+00 0. -1.
         -5    1    3    3    0  503 -0.95098337703E+02  0.43250145732E+02  0.39504093901E+02  0.11178967920E+03  0.47000000000E+01 0.  1.
         13    1    4    4    0    0  0.32265441334E+02  0.49679346357E+01 -0.19625658922E+02  0.38090754352E+02  0.00000000000E+00 0. -1.
        -14    1    4    4    0    0 -0.15204707387E+01  0.16633740755E+02  0.55498540046E+02  0.57957580264E+02  0.00000000000E+00 0.  1.
</event>
<event>
12    1  0.1046899E+000  0.1961334E+03  0.7818608E-02  0.1153069E+00
         21   -1    0    0  503  502  0.00000000000E+00  0.00000000000E+00  0.21554487943E+04  0.21554487943E+04  0.00000000000E+00 0. -1.
         21   -1    0    0  501  503 -0.00000000000E+00 -0.00000000000E+00 -0.18230151209E+02  0.18230151209E+02  0.00000000000E+00 0. -1.
          6    2    1    2  501    0 -0.48052267785E+02 -0.78616328693E+02  0.90852962696E+03  0.92943419446E+03  0.17300951184E+03 0.  0.
         24    2    3    3    0    0 -0.49708216585E+02 -0.78937220582E+02  0.35136456498E+03  0.37224675614E+03  0.80053721569E+02 0.  0.
         -6    2    1    2    0  502  0.48052267785E+02  0.78616328693E+02  0.12286890161E+04  0.12442447510E+04  0.17314373966E+03 0.  0.
        -24    2    5    5    0    0  0.52392344492E+02  0.38905394734E+02  0.36090324469E+03  0.37552728855E+03  0.80690798215E+02 0.  0.
          5    1    3    3  501    0  0.16559488004E+01  0.32089188879E+00  0.55716506197E+03  0.55718743832E+03  0.47000000000E+01 0. -1.
        -13    1    4    4    0    0  0.55415341221E+00 -0.40898640067E+02  0.24669341443E+03  0.25006128563E+03  0.00000000000E+00 0.  1.
         14    1    4    4    0    0 -0.50262369997E+02 -0.38038580515E+02  0.10467115055E+03  0.12218547051E+03  0.00000000000E+00 0. -1.
         -5    1    5    5    0  502 -0.43400767069E+01  0.39710933959E+02  0.86778577142E+03  0.86871746248E+03  0.47000000000E+01 0.  1.
         11    1    6    6    0    0  0.23662304374E+02 -0.19624747802E+02  0.19256134810E+03  0.19499976450E+03  0.00000000000E+00 0. -1.
        -12    1    6    6    0    0  0.28730040117E+02  0.58530142536E+02  0.16834189659E+03  0.18052752405E+03  0.00000000000E+00 0.  1.
</event>
<event>
12    1  0.1046899E+000  0.1770554E+03  0.7818608E-02  0.1171393E+00
         21   -1    0    0  503  502  0.00000000000E+00  0.00000000000E+00  0.16695128575E+04  0.16695128575E+04  0.00000000000E+00 0.  1.
         21   -1    0    0  501  503 -0.00000000000E+00 -0.00000000000E+00 -0.35134283840E+02  0.35134283840E+02  0.00000000000E+00 0.  1.
          6    2    1    2  501    0 -0.14752813187E+02 -0.34911467645E+02  0.22684282231E+03  0.28601910815E+03  0.17003766678E+03 0.  0.
         24    2    3    3    0    0 -0.22428795407E+02 -0.70495526516E+02  0.79092443319E+02  0.13377781796E+03  0.78538015414E+02 0.  0.
         -6    2    1    2    0  502  0.14752813187E+02  0.34911467645E+02  0.14075357513E+04  0.14186280332E+04  0.17295129124E+03 0.  0.
        -24    2    5    5    0    0 -0.42193680552E+02 -0.16676339297E+01  0.11013201067E+04  0.11049864466E+04  0.79410213560E+02 0.  0.
          5    1    3    3  501    0  0.76759822195E+01  0.35584058872E+02  0.14775037899E+03  0.15224129019E+03  0.47000000000E+01 0. -1.
        -11    1    4    4    0    0 -0.37321505905E+02 -0.76962816722E+02  0.46481027385E+02  0.97348116918E+02  0.00000000000E+00 0.  1.
         12    1    4    4    0    0  0.14892710498E+02  0.64672902058E+01  0.32611415934E+02  0.36429701039E+02  0.00000000000E+00 0. -1.
         -5    1    5    5    0  502  0.56946493739E+02  0.36579101574E+02  0.30621564463E+03  0.31364158658E+03  0.47000000000E+01 0.  1.
         13    1    6    6    0    0 -0.47116932999E+02 -0.13019456446E+02  0.33319302439E+03  0.33675971126E+03  0.00000000000E+00 0. -1.
        -14    1    6    6    0    0  0.49232524472E+01  0.11351822516E+02  0.76812708232E+03  0.76822673534E+03  0.00000000000E+00 0.  1.
</event>
<event>
12    1  0.1046899E+000  0.2135776E+03  0.7818608E-02  0.1139041E+00
         21   -1    0    0  503  502  0.00000000000E+00  0.00000000000E+00  0.39603607583E+03  0.39603607583E+03  0.00000000000E+00 0.  1.
         21   -1    0    0  501  503 -0.00000000000E+00 -0.00000000000E+00 -0.16819028976E+03  0.16819028976E+03  0.00000000000E+00 0.  1.
          6    2    1    2  501    0 -0.62321674202E+02  0.11004677496E+03  0.27370685749E+03  0.34717553050E+03  0.17210787718E+03 0.  0.
         24    2    3    3    0    0 -0.38710873519E+02 -0.19347269691E+01  0.17239152435E+03  0.19425655388E+03  0.80712428781E+02 0.  0.
         -6    2    1    2    0  502  0.62321674202E+02 -0.11004677496E+03 -0.45861071426E+02  0.21705083509E+03  0.17033362377E+03 0.  0.
        -24    2    5    5    0    0  0.10604084732E+03 -0.10092602795E+03 -0.18150939308E+02  0.16428251556E+03  0.72308809290E+02 0.  0.
          5    1    3    3  501    0 -0.23610800683E+02  0.11198150192E+03  0.10131533314E+03  0.15291897662E+03  0.47000000000E+01 0. -1.
        -11    1    4    4    0    0  0.10730959914E+02  0.28365596665E+02  0.44727289017E+02  0.54039716483E+02  0.00000000000E+00 0.  1.
         12    1    4    4    0    0 -0.49441833433E+02 -0.30300323634E+02  0.12766423534E+03  0.14021683740E+03  0.00000000000E+00 0. -1.
         -5    1    5    5    0  502 -0.43719173120E+02 -0.91207470042E+01 -0.27710132118E+02  0.52768319532E+02  0.47000000000E+01 0.  1.
         11    1    6    6    0    0  0.50768402622E+02 -0.20179396453E+02  0.21488844581E+02  0.58706125638E+02  0.00000000000E+00 0. -1.
        -12    1    6    6    0    0  0.55272444700E+02 -0.80746631499E+02 -0.39639783889E+02  0.10557638992E+03  0.00000000000E+00 0.  1.
</event>
<event>
12    1  0.1046899E+000  0.1995629E+03  0.7818608E-02  0.1152885E+00
         21   -1    0    0  501  502  0.00000000000E+00  0.00000000000E+00  0.63215020320E+02  0.63215020320E+02  0.00000000000E+00 0. -1.
         21   -1    0    0  502  503 -0.00000000000E+00 -0.00000000000E+00 -0.61929647781E+03  0.61929647781E+03  0.00000000000E+00 0. -1.
         -6    2    1    2    0  503  0.25470024791E+02  0.64324076277E+02 -0.21334434068E+03  0.29213206830E+03  0.18718714881E+03 0.  0.
        -24    2    3    3    0    0  0.49409963219E+02 -0.14053984915E+01 -0.20067412912E+03  0.22088525247E+03  0.77954275376E+02 0.  0.
          6    2    1    2  501    0 -0.25470024791E+02 -0.64324076277E+02 -0.34273711681E+03  0.39037942983E+03  0.17361180559E+03 0.  0.
         24    2    5    5    0    0 -0.83242340743E+02 -0.42260013722E+02 -0.20285213066E+03  0.23736190568E+03  0.80476650661E+02 0.  0.
          5    1    5    5  501    0  0.57772315952E+02 -0.22064062555E+02 -0.13988498615E+03  0.15301752415E+03  0.47000000000E+01 0. -1.
        -11    1    6    6    0    0 -0.49557655396E+02 -0.57581166495E+02 -0.17583050720E+03  0.19154090740E+03  0.00000000000E+00 0.  1.
         12    1    6    6    0    0 -0.33684685347E+02  0.15321152773E+02 -0.27021623458E+02  0.45820998281E+02  0.00000000000E+00 0. -1.
         -5    1    3    3    0  503 -0.23939938429E+02  0.65729474768E+02 -0.12670211557E+02  0.71246815832E+02  0.47000000000E+01 0.  1.
         13    1    4    4    0    0 -0.12948303732E+02 -0.50367598054E+01 -0.10942998997E+03  0.11030843224E+03  0.00000000000E+00 0. -1.
        -14    1    4    4    0    0  0.62358266952E+02  0.36313613139E+01 -0.91244139158E+02  0.11057682023E+03  0.00000000000E+00 0.  1.
</event>
<event>
12    1  0.1046899E+000  0.1904488E+03  0.7818608E-02  0.1158163E+00
         21   -1    0    0  501  502  0.00000000000E+00  0.00000000000E+00  0.20845307546E+03  0.20845307546E+03  0.00000000000E+00 0. -1.
         21   -1    0    0  502  503 -0.00000000000E+00 -0.00000000000E+00 -0.35043723719E+03  0.35043723719E+03  0.00000000000E+00 0. -1.
         -6    2    1    2    0  503 -0.74461106294E+02  0.30360789519E+02  0.12757642851E+03  0.22883929759E+03  0.17212043783E+03 0.  0.
        -24    2    3    3    0    0 -0.34113937038E+02  0.75368741599E+02  0.36795309728E+02  0.11967469094E+03  0.78255536054E+02 0.  0.
          6    2    1    2  501    0  0.74461106294E+02 -0.30360789519E+02 -0.26956059023E+03  0.33005101506E+03  0.17263987617E+03 0.  0.
         24    2    5    5    0    0 -0.20882090926E+02  0.61625641565E+01 -0.83001116982E+02  0.11732864275E+03  0.80017411051E+02 0.  0.
          5    1    5    5  501    0  0.95343197221E+02 -0.36523353676E+02 -0.18655947325E+03  0.21272237231E+03  0.47000000000E+01 0. -1.
        -13    1    6    6    0    0  0.95564223785E-01 -0.28933942254E+01 -0.92527915773E+02  0.92573192988E+02  0.00000000000E+00 0.  1.
         14    1    6    6    0    0 -0.20977655150E+02  0.90559583820E+01  0.95267987912E+01  0.24755449764E+02  0.00000000000E+00 0. -1.
         -5    1    3    3    0  503 -0.40347169256E+02 -0.45007952080E+02  0.90781118779E+02  0.10916460665E+03  0.47000000000E+01 0.  1.
         11    1    4    4    0    0 -0.54929143439E+02  0.33061623503E+02  0.33684152000E+02  0.72421708372E+02  0.00000000000E+00 0. -1.
        -12    1    4    4    0    0  0.20815206401E+02  0.42307118096E+02  0.31111577276E+01  0.47252982567E+02  0.00000000000E+00 0.  1.
</event>
<event>
12    1  0.1046899E+000  0.2012065E+03  0.7818608E-02  0.1148768E+00
         21   -1    0    0  501  502  0.00000000000E+00  0.00000000000E+00  0.45295841694E+02  0.45295841694E+02  0.00000000000E+00 0.  1.
         21   -1    0    0  502  503 -0.00000000000E+00 -0.00000000000E+00 -0.11503755613E+04  0.11503755613E+04  0.00000000000E+00 0.  1.
         -6    2    1    2    0  503  0.30658972264E+02 -0.10019403980E+03 -0.83562136291E+03  0.85950399405E+03  0.17177088067E+03 0.  0.
        -24    2    3    3    0    0 -0.18528266064E+02  0.61013159409E+01 -0.43184234000E+03  0.43905461968E+03  0.76815556666E+02 0.  0.
          6    2    1    2  501    0 -0.30658972264E+02  0.10019403980E+03 -0.26945835668E+03  0.33616740893E+03  0.17152813953E+03 0.  0.
         24    2    5    5    0    0 -0.75358991845E+02  0.10927903700E+03 -0.18495738787E+03  0.24002619688E+03  0.76042450511E+02 0.  0.
          5    1    5    5  501    0  0.44700019581E+02 -0.90849972063E+01 -0.84500968807E+02  0.96141212048E+02  0.47000000000E+01 0. -1.
        -13    1    6    6    0    0 -0.69178129746E+02  0.40430255837E+02 -0.12523679588E+03  0.14867573529E+03  0.00000000000E+00 0.  1.
         14    1    6    6    0    0 -0.61808620987E+01  0.68848781167E+02 -0.59720591992E+02  0.91350461588E+02  0.00000000000E+00 0. -1.
         -5    1    3    3    0  503  0.49187238327E+02 -0.10629535574E+03 -0.40377902290E+03  0.42044937436E+03  0.47000000000E+01 0.  1.
         11    1    4    4    0    0 -0.30609389385E+02 -0.98061962470E+01 -0.40114395718E+03  0.40242958463E+03  0.00000000000E+00 0. -1.
        -12    1    4    4    0    0  0.12081123321E+02  0.15907512188E+02 -0.30698382827E+02  0.36625035057E+02  0.00000000000E+00 0.  1.
</event>
<event>
12    1  0.1046899E+000  0.2736016E+03  0.7818608E-02  0.1099445E+00
         21   -1    0    0  503  502  0.00000000000E+00  0.00000000000E+00  0.47853380514E+03  0.47853380514E+03  0.00000000000E+00 0. -1.
         21   -1    0    0  501  503 -0.00000000000E+00 -0.00000000000E+00 -0.21965108060E+03  0.21965108060E+03  0.00000000000E+00 0. -1.
          6    2    1    2  501    0 -0.20224089297E+03 -0.62342068902E+02 -0.58840442561E+02  0.27985719923E+03  0.17340686819E+03 0.  0.
         24    2    3    3    0    0 -0.48833584639E+02 -0.31171479730E+02 -0.72501318050E+02  0.12264995577E+03  0.80188467958E+02 0.  0.
         -6    2    1    2    0  502  0.20224089297E+03  0.62342068902E+02  0.31772316709E+03  0.41832768651E+03  0.17106177261E+03 0.  0.
        -24    2    5    5    0    0  0.13721512728E+03  0.85617702199E+02  0.29176149351E+03  0.34439390665E+03  0.85580440284E+02 0.  0.
          5    1    3    3  501    0 -0.15340730833E+03 -0.31170589172E+02  0.13660875490E+02  0.15720724346E+03  0.47000000000E+01 0. -1.
        -13    1    4    4    0    0 -0.70886205369E+02 -0.20986042764E+02 -0.60646264167E+02  0.95620277452E+02  0.00000000000E+00 0.  1.
         14    1    4    4    0    0  0.22052620730E+02 -0.10185436966E+02 -0.11855053884E+02  0.27029678316E+02  0.00000000000E+00 0. -1.
         -5    1    5    5    0  502  0.65025765690E+02 -0.23275633297E+02  0.25961673581E+02  0.73933779858E+02  0.47000000000E+01 0.  1.
         11    1    6    6    0    0  0.10608995295E+03  0.79553838841E+02  0.15489887024E+03  0.20390574144E+03  0.00000000000E+00 0. -1.
        -12    1    6    6    0    0  0.31125174330E+02  0.60638633581E+01  0.13686262327E+03  0.14048816521E+03  0.00000000000E+00 0.  1.
</event>
<event>
12    1  0.1046899E+000  0.2147689E+03  0.7818608E-02  0.1138063E+00
         21   -1    0    0  501  502  0.00000000000E+00  0.00000000000E+00  0.33556754885E+02  0.33556754885E+02  0.00000000000E+00 0.  1.
         21   -1    0    0  502  503 -0.00000000000E+00 -0.00000000000E+00 -0.13677259870E+04  0.13677259870E+04  0.00000000000E+00 0.  1.
         -6    2    1    2    0  503  0.54102756293E+02  0.11596398270E+03 -0.68112467273E+03  0.71418239480E+03  0.17248454921E+03 0.  0.
        -24    2    3    3    0    0  0.32690099504E+02  0.12577788696E+03 -0.67100638618E+03  0.68811931151E+03  0.79811635269E+02 0.  0.
          6    2    1    2  501    0 -0.54102756293E+02 -0.11596398270E+03 -0.65304455934E+03  0.68710034704E+03  0.17106997662E+03 0.  0.
         24    2    5    5    0    0  0.23779206259E+02 -0.89176845546E+02 -0.29054479969E+03  0.31533252090E+03  0.80624795680E+02 0.  0.
          5    1    5    5  501    0 -0.77881962552E+02 -0.26787137154E+02 -0.36249975965E+03  0.37176782614E+03  0.47000000000E+01 0. -1.
        -13    1    6    6    0    0 -0.25993011566E+02 -0.98565630144E+01 -0.85760789480E+02  0.90153765850E+02  0.00000000000E+00 0.  1.
         14    1    6    6    0    0  0.49772217825E+02 -0.79320282532E+02 -0.20478401021E+03  0.22517875505E+03  0.00000000000E+00 0. -1.
         -5    1    3    3    0  503  0.21412656789E+02 -0.98139042646E+01 -0.10118286549E+02  0.26063083286E+02  0.47000000000E+01 0.  1.
         11    1    4    4    0    0  0.38047372991E+02  0.13572632000E+03 -0.63064705729E+03  0.64620813010E+03  0.00000000000E+00 0. -1.
        -12    1    4    4    0    0 -0.53572734871E+01 -0.99484330385E+01 -0.40359328892E+02  0.41911181416E+02  0.00000000000E+00 0.  1.
</event>
<event>
12    1  0.1046899E+000  0.2268542E+03  0.7818608E-02  0.1129201E+00
         21   -1    0    0  501  502  0.00000000000E+00  0.00000000000E+00  0.95524942533E+03  0.95524942533E+03  0.00000000000E+00 0.  1.
         21   -1    0    0  502  503 -0.00000000000E+00 -0.00000000000E+00 -0.55090739327E+02  0.55090739327E+02  0.00000000000E+00 0.  1.
         -6    2    1    2    0  503  0.26637250951E+02 -0.14838084902E+03  0.53570412632E+03  0.58105008501E+03  0.16707444701E+03 0.  0.
        -24    2    3    3    0    0  0.17260488762E+02 -0.14038801330E+03  0.54237653220E+03  0.56627104268E+03  0.80522495885E+02 0.  0.
          6    2    1    2  501    0 -0.26637250951E+02  0.14838084902E+03  0.36445455968E+03  0.42929007964E+03  0.16951822000E+03 0.  0.
         24    2    5    5    0    0 -0.62979740443E+02  0.83406440390E+02  0.30895209764E+03  0.33631124543E+03  0.82041289361E+02 0.  0.
          5    1    5    5  501    0  0.36342489492E+02  0.64974408631E+02  0.55502462044E+02  0.92978834217E+02  0.47000000000E+01 0. -1.
        -11    1    6    6    0    0 -0.55665425571E+02  0.36562648061E+02  0.25906489627E+03  0.26748848072E+03  0.00000000000E+00 0.  1.
         12    1    6    6    0    0 -0.73143148718E+01  0.46843792329E+02  0.49887201371E+02  0.68822764711E+02  0.00000000000E+00 0. -1.
         -5    1    3    3    0  503  0.93767621887E+01 -0.79928357251E+01 -0.66724058818E+01  0.14779042334E+02  0.47000000000E+01 0.  1.
         11    1    4    4    0    0  0.43426930942E+02 -0.40876731669E+02  0.18482753148E+03  0.19421128164E+03  0.00000000000E+00 0. -1.
        -12    1    4    4    0    0 -0.26166442180E+02 -0.99511281628E+02  0.35754900072E+03  0.37205976104E+03  0.00000000000E+00 0.  1.
</event>
<event>
12    1  0.1046899E+000  0.2485377E+03  0.7818608E-02  0.1114263E+00
         21   -1    0    0  501  502  0.00000000000E+00  0.00000000000E+00  0.11787834215E+03  0.11787834215E+03  0.00000000000E+00 0. -1.
         21   -1    0    0  502  503 -0.00000000000E+00 -0.00000000000E+00 -0.57869065032E+03  0.57869065032E+03  0.00000000000E+00 0. -1.
         -6    2    1    2    0  503  0.17229104169E+03 -0.42169488247E+02 -0.12304652817E+03  0.27732906833E+03  0.17409335214E+03 0.  0.
        -24    2    3    3    0    0  0.11627450467E+03  0.42122113711E+02 -0.72268699478E+02  0.16400032322E+03  0.79870571509E+02 0.  0.
          6    2    1    2  501    0 -0.17229104169E+03  0.42169488247E+02 -0.33776578000E+03  0.41923992414E+03  0.17382152649E+03 0.  0.
         24    2    5    5    0    0 -0.18674629042E+03 -0.65162268390E+01 -0.25375651765E+03  0.32096022517E+03  0.60880684072E+02 0.  0.
          5    1    5    5  501    0  0.14455248732E+02  0.48685715086E+02 -0.84009262350E+02  0.98279698972E+02  0.47000000000E+01 0. -1.
        -13    1    6    6    0    0 -0.90817861692E+02  0.23797578604E+02 -0.14563087971E+03  0.17327019904E+03  0.00000000000E+00 0.  1.
         14    1    6    6    0    0 -0.95928428728E+02 -0.30313805443E+02 -0.10812563794E+03  0.14769002613E+03  0.00000000000E+00 0. -1.
         -5    1    3    3    0  503  0.56016537021E+02 -0.84291601958E+02 -0.50777828695E+02  0.11332874511E+03  0.47000000000E+01 0.  1.
         11    1    4    4    0    0  0.77539777841E+02  0.20622150853E+02 -0.11878122571E+01  0.80244010066E+02  0.00000000000E+00 0. -1.
        -12    1    4    4    0    0  0.38734726826E+02  0.21499962858E+02 -0.71080887221E+02  0.83756313155E+02  0.00000000000E+00 0.  1.
</event>
<event>
12    1  0.1046899E+000  0.1920415E+03  0.7818608E-02  0.1157684E+00
         21   -1    0    0  503  502  0.00000000000E+00  0.00000000000E+00  0.20490808022E+03  0.20490808022E+03  0.00000000000E+00 0. -1.
         21   -1    0    0  501  503 -0.00000000000E+00 -0.00000000000E+00 -0.17567247093E+03  0.17567247093E+03  0.00000000000E+00 0. -1.
          6    2    1    2  501    0 -0.73011282974E+02  0.33416460684E+02  0.17485935233E+02  0.19283593563E+03  0.17444951377E+03 0.  0.
         24    2    3    3    0    0  0.92523674454E+01  0.66150709944E+02 -0.38367824985E+01  0.10164609219E+03  0.76522443954E+02 0.  0.
         -6    2    1    2    0  502  0.73011282974E+02 -0.33416460684E+02  0.11749674052E+02  0.18774461552E+03  0.16930055679E+03 0.  0.
        -24    2    5    5    0    0  0.18386347544E+02 -0.66905242089E+02 -0.30928477019E+02  0.11061552484E+03  0.80404318596E+02 0.  0.
          5    1    3    3  501    0 -0.82263650419E+02 -0.32734249260E+02  0.21322717731E+02  0.91189843439E+02  0.47000000000E+01 0. -1.
        -11    1    4    4    0    0 -0.22446565320E+01  0.57381112492E+02  0.30043401652E+02  0.64809231878E+02  0.00000000000E+00 0.  1.
         12    1    4    4    0    0  0.11497023977E+02  0.87695974526E+01 -0.33880184151E+02  0.36836860315E+02  0.00000000000E+00 0. -1.
         -5    1    5    5    0  502  0.54624935430E+02  0.33488781404E+02  0.42678151072E+02  0.77129090683E+02  0.47000000000E+01 0.  1.
         11    1    6    6    0    0  0.11907761213E+02 -0.83207300785E+02 -0.12168016864E+02  0.84931209313E+02  0.00000000000E+00 0. -1.
        -12    1    6    6    0    0  0.64785863310E+01  0.16302058696E+02 -0.18760460156E+02  0.25684315522E+02  0.00000000000E+00 0.  1.
</event>
<event>
12    1  0.1046899E+000  0.2009623E+03  0.7818608E-02  0.1149265E+00
         21   -1    0    0  503  502  0.00000000000E+00  0.00000000000E+00  0.27462379933E+03  0.27462379933E+03  0.00000000000E+00 0. -1.
         21   -1    0    0  501  503 -0.00000000000E+00 -0.00000000000E+00 -0.44741638763E+03  0.44741638763E+03  0.00000000000E+00 0. -1.
          6    2    1    2  501    0  0.65629523751E+02 -0.74857417123E+02  0.20986074180E+03  0.29056387550E+03  0.17457080946E+03 0.  0.
         24    2    3    3    0    0 -0.21192213210E+02 -0.32761624451E+02  0.15683576497E+03  0.18036492843E+03  0.80072568930E+02 0.  0.
         -6    2    1    2    0  502 -0.65629523751E+02  0.74857417123E+02 -0.38265333009E+03  0.43147631146E+03  0.17273496760E+03 0.  0.
        -24    2    5    5    0    0 -0.20892741390E+02  0.95528526968E+02 -0.35031887757E+03  0.37234695075E+03  0.79729101581E+02 0.  0.
          5    1    3    3  501    0  0.86821736961E+02 -0.42095792672E+02  0.53024976829E+02  0.11019894708E+03  0.47000000000E+01 0. -1.
        -11    1    4    4    0    0 -0.33646481500E+02 -0.43023933677E+02  0.55922591091E+02  0.78169564286E+02  0.00000000000E+00 0.  1.
         12    1    4    4    0    0  0.12454268290E+02  0.10262309227E+02  0.10091317388E+03  0.10219536414E+03  0.00000000000E+00 0. -1.
         -5    1    5    5    0  502 -0.44736782360E+02 -0.20671109846E+02 -0.32334452515E+02  0.59129360708E+02  0.47000000000E+01 0.  1.
         11    1    6    6    0    0 -0.19340686709E+02  0.42164798040E+02 -0.28125450243E+03  0.28505442900E+03  0.00000000000E+00 0. -1.
        -12    1    6    6    0    0 -0.15520546808E+01  0.53363728929E+02 -0.69064375147E+02  0.87292521749E+02  0.00000000000E+00 0.  1.
</event>
<event>
12    1  0.1046899E+000  0.2466582E+03  0.7818608E-02  0.1115692E+00
         21   -1    0    0  501  502  0.00000000000E+00  0.00000000000E+00  0.11846219200E+04  0.11846219200E+04  0.00000000000E+00 0. -1.
         21   -1    0    0  502  503 -0.00000000000E+00 -0.00000000000E+00 -0.56876277627E+02  0.56876277627E+02  0.00000000000E+00 0.  1.
         -6    2    1    2    0  503 -0.79600080784E+01  0.17382694153E+03  0.76455753576E+03  0.80336073621E+03  0.17481727508E+03 0.  0.
        -24    2    3    3    0    0  0.32487346643E+02  0.21939654089E+02  0.24292676295E+03  0.25854288616E+03  0.79336219431E+02 0.  0.
          6    2    1    2  501    0  0.79600080784E+01 -0.17382694153E+03  0.36318810661E+03  0.43813746142E+03  0.17256786195E+03 0.  0.
         24    2    5    5    0    0  0.29159241012E+02 -0.19021070388E+03  0.35164281383E+03  0.40858718340E+03  0.79122972070E+02 0.  0.
          5    1    5    5  501    0 -0.21199232934E+02  0.16383762346E+02  0.11545292781E+02  0.29550278019E+02  0.47000000000E+01 0. -1.
        -13    1    6    6    0    0 -0.11426186075E+02 -0.10296531295E+02  0.54283642975E+01  0.16310837620E+02  0.00000000000E+00 0.  1.
         14    1    6    6    0    0  0.40585427087E+02 -0.17991417258E+03  0.34621444953E+03  0.39227634578E+03  0.00000000000E+00 0. -1.
         -5    1    3    3    0  503 -0.40447354722E+02  0.15188728744E+03  0.52163077281E+03  0.54481785005E+03  0.47000000000E+01 0.  1.
         13    1    4    4    0    0 -0.26433344411E+02  0.33779874450E+01  0.77985896311E+02  0.82413181709E+02  0.00000000000E+00 0. -1.
        -14    1    4    4    0    0  0.58920691054E+02  0.18561666644E+02  0.16494086664E+03  0.17612970446E+03  0.00000000000E+00 0.  1.
</event>
<event>
12    1  0.1046899E+000  0.1805646E+03  0.7818608E-02  0.1167488E+00
         21   -1    0    0  503  502  0.00000000000E+00  0.00000000000E+00  0.57920730281E+02  0.57920730281E+02  0.00000000000E+00 0. -1.
         21   -1    0    0  501  503 -0.00000000000E+00 -0.00000000000E+00 -0.62312405196E+03  0.62312405196E+03  0.00000000000E+00 0. -1.
          6    2    1    2  501    0  0.42251994925E+02  0.31086643726E+02 -0.17483166570E+03  0.25133577216E+03  0.17277716441E+03 0.  0.
         24    2    3    3    0    0 -0.27485692075E+01 -0.48095210865E+00 -0.17940906464E+03  0.19597688435E+03  0.78813328668E+02 0.  0.
         -6    2    1    2    0  502 -0.42251994925E+02 -0.31086643726E+02 -0.39037165598E+03  0.42970901008E+03  0.17177948963E+03 0.  0.
        -24    2    5    5    0    0 -0.38176124084E+02 -0.63564999613E+02 -0.37933461404E+03  0.39484695881E+03  0.80693530376E+02 0.  0.
          5    1    3    3  501    0  0.45000564133E+02  0.31567595835E+02  0.45773989387E+01  0.55358887815E+02  0.47000000000E+01 0. -1.
        -13    1    4    4    0    0  0.27079276837E+02  0.35479565552E+01 -0.20255844869E+02  0.34002565802E+02  0.00000000000E+00 0.  1.
         14    1    4    4    0    0 -0.29827846045E+02 -0.40289086638E+01 -0.15915321977E+03  0.16197431854E+03  0.00000000000E+00 0. -1.
         -5    1    5    5    0  502 -0.40758708406E+01  0.32478355887E+02 -0.11037041941E+02  0.34862051274E+02  0.47000000000E+01 0.  1.
         11    1    6    6    0    0  0.83423723522E+01 -0.90132475962E+01 -0.42864126500E+01  0.13007964564E+02  0.00000000000E+00 0. -1.
        -12    1    6    6    0    0 -0.46518496437E+02 -0.54551752017E+02 -0.37504820139E+03  0.38183899424E+03  0.00000000000E+00 0.  1.
</event>
<event>
12    1  0.1046899E+000  0.1920135E+03  0.7818608E-02  0.1157518E+00
         21   -1    0    0  501  502  0.00000000000E+00  0.00000000000E+00  0.32398996441E+03  0.32398996441E+03  0.00000000000E+00 0. -1.
         21   -1    0    0  502  503 -0.00000000000E+00 -0.00000000000E+00 -0.11171153910E+03  0.11171153910E+03  0.00000000000E+00 0. -1.
         -6    2    1    2    0  503  0.73639566143E+02  0.41011142768E+02  0.11356652331E+03  0.21980054224E+03  0.16825642223E+03 0.  0.
        -24    2    3    3    0    0  0.73523671485E+02 -0.28076386236E+02  0.93486936750E+02  0.14770075104E+03  0.82955956879E+02 0.  0.
          6    2    1    2  501    0 -0.73639566143E+02 -0.41011142768E+02  0.98711901994E+02  0.21590096126E+03  0.17252387066E+03 0.  0.
         24    2    5    5    0    0 -0.11156956432E+03 -0.28606375754E+02  0.41548784815E+02  0.14602768331E+03  0.79571919406E+02 0.  0.
          5    1    5    5  501    0  0.37929998175E+02 -0.12404767014E+02  0.57163117179E+02  0.69873277953E+02  0.47000000000E+01 0. -1.
        -13    1    6    6    0    0 -0.18987474640E+02 -0.86307266109E+01  0.46730214250E+02  0.51173494691E+02  0.00000000000E+00 0.  1.
         14    1    6    6    0    0 -0.92582089678E+02 -0.19975649143E+02 -0.51814294357E+01  0.94854188621E+02  0.00000000000E+00 0. -1.
         -5    1    3    3    0  503  0.11589465810E+00  0.69087529004E+02  0.20079586563E+02  0.72099791206E+02  0.47000000000E+01 0.  1.
         13    1    4    4    0    0  0.79910234025E+01  0.57566009935E+01  0.69430543357E+02  0.70125567812E+02  0.00000000000E+00 0. -1.
        -14    1    4    4    0    0  0.65532648082E+02 -0.33832987229E+02  0.24056393392E+02  0.77575183226E+02  0.00000000000E+00 0.  1.
</event>
<event>
12    1  0.1046899E+000  0.1978547E+03  0.7818608E-02  0.1151590E+00
         21   -1    0    0  501  502  0.00000000000E+00  0.00000000000E+00  0.48351199264E+03  0.48351199264E+03  0.00000000000E+00 0. -1.
         21   -1    0    0  502  503 -0.00000000000E+00 -0.00000000000E+00 -0.10317815617E+03  0.10317815617E+03  0.00000000000E+00 0. -1.
         -6    2    1    2    0  503 -0.94609239314E+02  0.23259823590E+02  0.53836147126E+02  0.20492157772E+03  0.17205404593E+03 0.  0.
        -24    2    3    3    0    0  0.13642313470E+02 -0.21833137358E-01 -0.35114147019E+01  0.80136694550E+02  0.78888824219E+02 0.  0.
          6    2    1    2  501    0  0.94609239314E+02 -0.23259823590E+02  0.32649768934E+03  0.38176857109E+03  0.17220503236E+03 0.  0.
         24    2    5    5    0    0  0.26734792997E+02  0.12776474162E+02  0.61953877477E+02  0.10624892821E+03  0.81071353522E+02 0.  0.
          5    1    5    5  501    0  0.67874446317E+02 -0.36036297752E+02  0.26454381187E+03  0.27551964289E+03  0.47000000000E+01 0. -1.
        -11    1    6    6    0    0 -0.88475774719E+01 -0.29015561309E+02  0.30360646023E+02  0.42917959552E+02  0.00000000000E+00 0.  1.
         12    1    6    6    0    0  0.35582370469E+02  0.41792035471E+02  0.31593231454E+02  0.63330968654E+02  0.00000000000E+00 0. -1.
         -5    1    3    3    0  503 -0.10825155278E+03  0.23281656728E+02  0.57347561828E+02  0.12478488317E+03  0.47000000000E+01 0.  1.
         13    1    4    4    0    0  0.38733790345E+02 -0.20259617665E+02  0.10550233215E+02  0.44967388664E+02  0.00000000000E+00 0. -1.
        -14    1    4    4    0    0 -0.25091476874E+02  0.20237784528E+02 -0.14061647917E+02  0.35169305886E+02  0.00000000000E+00 0.  1.
</event>
<event>
12    1  0.1046899E+000  0.1842451E+03  0.7818608E-02  0.1163790E+00
         21   -1    0    0  501  502  0.00000000000E+00  0.00000000000E+00  0.14999818233E+03  0.14999818233E+03  0.00000000000E+00 0.  1.
         21   -1    0    0  502  503 -0.00000000000E+00 -0.00000000000E+00 -0.32227384688E+03  0.32227384688E+03  0.00000000000E+00 0.  1.
         -6    2    1    2    0  503 -0.18497246534E+02  0.63545098833E+02  0.42857155484E+02  0.18902587117E+03  0.17179614804E+03 0.  0.
        -24    2    3    3    0    0  0.43895697469E+02  0.74095627586E+02  0.46576857879E+02  0.12546393835E+03  0.78452545224E+02 0.  0.
          6    2    1    2  501    0  0.18497246534E+02 -0.63545098833E+02 -0.21513282003E+03  0.28324615804E+03  0.17194803888E+03 0.  0.
         24    2    5    5    0    0 -0.19990133730E+02 -0.96933851870E+02 -0.11754788012E+03  0.17305996214E+03  0.79601942757E+02 0.  0.
          5    1    5    5  501    0  0.38487380264E+02  0.33388753037E+02 -0.97584939914E+02  0.11018619590E+03  0.47000000000E+01 0. -1.
        -13    1    6    6    0    0 -0.19408604362E+02 -0.43762926487E+00 -0.54339602170E+02  0.57703360445E+02  0.00000000000E+00 0.  1.
         14    1    6    6    0    0 -0.58152936880E+00 -0.96496222605E+02 -0.63208277950E+02  0.11535660170E+03  0.00000000000E+00 0. -1.
         -5    1    3    3    0  503 -0.62392944003E+02 -0.10550528754E+02 -0.37197023949E+01  0.63561932823E+02  0.47000000000E+01 0.  1.
         11    1    4    4    0    0 -0.27000046977E+01  0.66517345730E+02  0.13784860681E+02  0.67984334169E+02  0.00000000000E+00 0. -1.
        -12    1    4    4    0    0  0.46595702167E+02  0.75782818561E+01  0.32791997198E+02  0.57479604179E+02  0.00000000000E+00 0.  1.
</event>
<event>
12    1  0.1046899E+000  0.1852165E+03  0.7818608E-02  0.1162859E+00
         21   -1    0    0  501  502  0.00000000000E+00  0.00000000000E+00  0.15747932916E+04  0.15747932916E+04  0.00000000000E+00 0. -1.
         21   -1    0    0  502  503 -0.00000000000E+00 -0.00000000000E+00 -0.21827929331E+02  0.21827929331E+02  0.00000000000E+00 0. -1.
         -6    2    1    2    0  503 -0.20030341753E+02  0.65885514444E+02  0.73829100951E+03  0.76115761424E+03  0.17188712396E+03 0.  0.
        -24    2    3    3    0    0 -0.18952592903E+02  0.60973002970E+02  0.22112862699E+03  0.24394942191E+03  0.80848889349E+02 0.  0.
          6    2    1    2  501    0  0.20030341753E+02 -0.65885514444E+02  0.81467435276E+03  0.83546360670E+03  0.17193900507E+03 0.  0.
         24    2    5    5    0    0  0.39713878882E+02 -0.10723126950E+03  0.54750958153E+03  0.56436211633E+03  0.75247054043E+02 0.  0.
          5    1    5    5  501    0 -0.19683537129E+02  0.41345755052E+02  0.26716477123E+03  0.27110149037E+03  0.47000000000E+01 0. -1.
        -11    1    6    6    0    0  0.31516785047E+02 -0.24965819828E+02  0.31572732850E+03  0.31827715259E+03  0.00000000000E+00 0.  1.
         12    1    6    6    0    0  0.81970938348E+01 -0.82265449669E+02  0.23178225303E+03  0.24608496373E+03  0.00000000000E+00 0. -1.
         -5    1    3    3    0  503 -0.10777488496E+01  0.49125114739E+01  0.51716238253E+03  0.51720819233E+03  0.47000000000E+01 0.  1.
         11    1    4    4    0    0 -0.86191570385E+01 -0.53427856360E+01 -0.25183657595E+01  0.10448798615E+02  0.00000000000E+00 0. -1.
        -12    1    4    4    0    0 -0.10333435864E+02  0.66315788606E+02  0.22364699275E+03  0.23350062330E+03  0.00000000000E+00 0.  1.
</event>
<event>
12    1  0.1046899E+000  0.5782144E+03  0.7818608E-02  0.9951967E-01
         21   -1    0    0  503  502  0.00000000000E+00  0.00000000000E+00  0.13476502024E+03  0.13476502024E+03  0.00000000000E+00 0.  1.
         21   -1    0    0  501  503 -0.00000000000E+00 -0.00000000000E+00 -0.27294018703E+04  0.27294018703E+04  0.00000000000E+00 0. -1.
          6    2    1    2  501    0 -0.33603077534E+03  0.43717028623E+03 -0.17309788327E+04  0.18248223295E+04  0.17220416311E+03 0.  0.
         24    2    3    3    0    0 -0.90347292404E+02  0.11022695740E+03 -0.62819522641E+03  0.64863948385E+03  0.76100736840E+02 0.  0.
         -6    2    1    2    0  502  0.33603077534E+03 -0.43717028623E+03 -0.86365801739E+03  0.10393445611E+04  0.17406149635E+03 0.  0.
        -24    2    5    5    0    0  0.25566351707E+03 -0.21965847897E+03 -0.52584928275E+03  0.62957985579E+03  0.78991425557E+02 0.  0.
          5    1    3    3  501    0 -0.24568348293E+03  0.32694332883E+03 -0.11027836063E+04  0.11761828456E+04  0.47000000000E+01 0. -1.
        -13    1    4    4    0    0 -0.99463870226E+02  0.75266120681E+02 -0.46028122922E+03  0.47688243874E+03  0.00000000000E+00 0.  1.
         14    1    4    4    0    0  0.91165778221E+01  0.34960836718E+02 -0.16791399719E+03  0.17175704512E+03  0.00000000000E+00 0. -1.
         -5    1    5    5    0  502  0.80367258271E+02 -0.21751180726E+03 -0.33780873464E+03  0.40976470529E+03  0.47000000000E+01 0.  1.
         13    1    6    6    0    0  0.68185424899E+01 -0.22740496488E+02 -0.71846952226E+02  0.75667742443E+02  0.00000000000E+00 0. -1.
        -14    1    6    6    0    0  0.24884497458E+03 -0.19691798248E+03 -0.45400233052E+03  0.55391211335E+03  0.00000000000E+00 0.  1.
</event>
<event>
12    1  0.1046899E+000  0.3314636E+03  0.7818608E-02  0.1070502E+00
         21   -1    0    0  501  502  0.00000000000E+00  0.00000000000E+00  0.28205585444E+03  0.28205585444E+03  0.00000000000E+00 0.  1.
         21   -1    0    0  502  503 -0.00000000000E+00 -0.00000000000E+00 -0.59729506073E+03  0.59729506073E+03  0.00000000000E+00 0. -1.
         -6    2    1    2    0  503 -0.28273447481E+03  0.20688478491E+02  0.10178294319E+03  0.34664502824E+03  0.17156984492E+03 0.  0.
        -24    2    3    3    0    0 -0.17280088573E+03  0.70622664799E+02  0.26800924036E+02  0.20443669456E+03  0.78919995307E+02 0.  0.
          6    2    1    2  501    0  0.28273447481E+03 -0.20688478491E+02 -0.41702214949E+03  0.53270588694E+03  0.17175940272E+03 0.  0.
         24    2    5    5    0    0  0.27060975512E+03  0.13444956925E+02 -0.40663037818E+03  0.49472985302E+03  0.77452931405E+02 0.  0.
          5    1    5    5  501    0  0.12124719696E+02 -0.34133435415E+02 -0.10391771310E+02  0.37976033915E+02  0.47000000000E+01 0. -1.
        -11    1    6    6    0    0  0.24106804060E+03  0.35780646185E+02 -0.36639337580E+03  0.44004336226E+03  0.00000000000E+00 0.  1.
         12    1    6    6    0    0  0.29541714518E+02 -0.22335689261E+02 -0.40237002376E+02  0.54686490760E+02  0.00000000000E+00 0. -1.
         -5    1    3    3    0  503 -0.10993358908E+03 -0.49934186308E+02  0.74982019156E+02  0.14220833368E+03  0.47000000000E+01 0.  1.
         13    1    4    4    0    0 -0.31295782558E+02  0.48651469979E+01 -0.24651685133E+02  0.40134788415E+02  0.00000000000E+00 0. -1.
        -14    1    4    4    0    0 -0.14150510317E+03  0.65757517801E+02  0.51452609169E+02  0.16430190614E+03  0.00000000000E+00 0.  1.
</event>
<event>
12    1  0.1046899E+000  0.1965124E+03  0.7818608E-02  0.1153310E+00
         21   -1    0    0  501  502  0.00000000000E+00  0.00000000000E+00  0.10921854894E+03  0.10921854894E+03  0.00000000000E+00 0. -1.
         21   -1    0    0  502  503 -0.00000000000E+00 -0.00000000000E+00 -0.44271701043E+03  0.44271701043E+03  0.00000000000E+00 0. -1.
         -6    2    1    2    0  503 -0.92580450560E+02 -0.23593422148E+02 -0.38640536435E+02  0.19759346333E+03  0.16858913458E+03 0.  0.
        -24    2    3    3    0    0 -0.12058782494E+03 -0.50391617513E+02 -0.21847976833E+02  0.15508891825E+03  0.80588459665E+02 0.  0.
          6    2    1    2  501    0  0.92580450560E+02  0.23593422148E+02 -0.29485792506E+03  0.35434209604E+03  0.17172459248E+03 0.  0.
         24    2    5    5    0    0  0.86554475140E+02  0.68341605106E+02 -0.15117477340E+03  0.20365815420E+03  0.80377730149E+02 0.  0.
          5    1    5    5  501    0  0.60259754197E+01 -0.44748182958E+02 -0.14368315166E+03  0.15068394184E+03  0.47000000000E+01 0. -1.
        -11    1    6    6    0    0  0.55211135829E+02 -0.62032673765E+01 -0.64019396083E+02  0.84765754409E+02  0.00000000000E+00 0.  1.
         12    1    6    6    0    0  0.31343339312E+02  0.74544872482E+02 -0.87155377316E+02  0.11889239979E+03  0.00000000000E+00 0. -1.
         -5    1    3    3    0  503  0.28007374381E+02  0.26798195366E+02 -0.16792559602E+02  0.42504545082E+02  0.47000000000E+01 0.  1.
         13    1    4    4    0    0 -0.21412283683E+02  0.16128100225E+02  0.14217475803E+02  0.30343667010E+02  0.00000000000E+00 0. -1.
        -14    1    4    4    0    0 -0.99175541258E+02 -0.66519717739E+02 -0.36065452637E+02  0.12474525124E+03  0.00000000000E+00 0.  1.
</event>
<event>
12    1  0.1046899E+000  0.1975363E+03  0.7818608E-02  0.1152490E+00
         21   -1    0    0  501  502  0.00000000000E+00  0.00000000000E+00  0.40782499136E+03  0.40782499136E+03  0.00000000000E+00 0. -1.
         21   -1    0    0  502  503 -0.00000000000E+00 -0.00000000000E+00 -0.17135537150E+03  0.17135537150E+03  0.00000000000E+00 0. -1.
         -6    2    1    2    0  503  0.16697275777E+02  0.91417254922E+02  0.31303265225E+03  0.37014864037E+03  0.17431196482E+03 0.  0.
        -24    2    3    3    0    0 -0.40064523252E+02  0.85058016349E+02  0.13004888690E+03  0.17840013288E+03  0.77934987380E+02 0.  0.
          6    2    1    2  501    0 -0.16697275777E+02 -0.91417254922E+02 -0.76563032393E+02  0.20903172249E+03  0.17086968590E+03 0.  0.
         24    2    5    5    0    0 -0.71779394633E+01 -0.12656272842E+03 -0.35184671413E+02  0.15371372516E+03  0.79500321753E+02 0.  0.
          5    1    5    5  501    0 -0.95193363134E+01  0.35145473499E+02 -0.41378360980E+02  0.55317997331E+02  0.47000000000E+01 0. -1.
        -11    1    6    6    0    0  0.29237136285E+02 -0.23590016789E+02 -0.22419037028E+02  0.43748282841E+02  0.00000000000E+00 0.  1.
         12    1    6    6    0    0 -0.36415075748E+02 -0.10297271163E+03 -0.12765634385E+02  0.10996544232E+03  0.00000000000E+00 0. -1.
         -5    1    3    3    0  503  0.56761799028E+02  0.63592385723E+01  0.18298376535E+03  0.19174850750E+03  0.47000000000E+01 0.  1.
         11    1    4    4    0    0 -0.14274334633E+02 -0.12824164274E+02  0.10935664635E+02  0.22086298457E+02  0.00000000000E+00 0. -1.
        -12    1    4    4    0    0 -0.25790188619E+02  0.97882180624E+02  0.11911322226E+03  0.15631383442E+03  0.00000000000E+00 0.  1.
</event>
<event>
12    1  0.1046899E+000  0.1848877E+03  0.7818608E-02  0.1163171E+00
         21   -1    0    0  503  502  0.00000000000E+00  0.00000000000E+00  0.62097311854E+02  0.62097311854E+02  0.00000000000E+00 0. -1.
         21   -1    0    0  501  503 -0.00000000000E+00 -0.00000000000E+00 -0.81281973572E+03  0.81281973572E+03  0.00000000000E+00 0. -1.
          6    2    1    2  501    0 -0.43900509996E+02  0.52067070257E+02 -0.12669128254E+03  0.22407273584E+03  0.17181290782E+03 0.  0.
         24    2    3    3    0    0 -0.82147080412E+02  0.82963642334E+01 -0.46191419414E+02  0.12466955270E+03  0.81190379136E+02 0.  0.
         -6    2    1    2    0  502  0.43900509996E+02 -0.52067070257E+02 -0.62403114133E+03  0.65084431173E+03  0.17188722520E+03 0.  0.
        -24    2    5    5    0    0  0.62031978601E+02 -0.71578157159E+02 -0.27987670296E+03  0.30562872676E+03  0.78144422745E+02 0.  0.
          5    1    3    3  501    0  0.38246570415E+02  0.43770706024E+02 -0.80499863129E+02  0.99403183139E+02  0.47000000000E+01 0. -1.
        -13    1    4    4    0    0 -0.43515309463E+02  0.43487498659E+02 -0.13358732001E+02  0.62953954744E+02  0.00000000000E+00 0.  1.
         14    1    4    4    0    0 -0.38631770949E+02 -0.35191134426E+02 -0.32832687413E+02  0.61715597960E+02  0.00000000000E+00 0. -1.
         -5    1    5    5    0  502 -0.18131468605E+02  0.19511086901E+02 -0.34415443836E+03  0.34521558498E+03  0.47000000000E+01 0.  1.
         13    1    6    6    0    0  0.37612890755E+02 -0.77412704078E+02 -0.14651051853E+03  0.16991994687E+03  0.00000000000E+00 0. -1.
        -14    1    6    6    0    0  0.24419087846E+02  0.58345469189E+01 -0.13336618443E+03  0.13570877988E+03  0.00000000000E+00 0.  1.
</event>
<event>
12    1  0.1046899E+000  0.1937675E+03  0.7818608E-02  0.1155319E+00
         21   -1    0    0  503  502  0.00000000000E+00  0.00000000000E+00  0.15472986385E+04  0.15472986385E+04  0.00000000000E+00 0. -1.
         21   -1    0    0  501  503 -0.00000000000E+00 -0.00000000000E+00 -0.26758629163E+02  0.26758629163E+02  0.00000000000E+00 0. -1.
          6    2    1    2  501    0 -0.83417961479E+02 -0.32697871074E+02  0.10079483827E+04  0.10264042951E+04  0.17180840385E+03 0.  0.
         24    2    3    3    0    0 -0.35642520189E+02  0.21379442409E+02  0.82272365798E+03  0.82756481891E+03  0.79131803289E+02 0.  0.
         -6    2    1    2    0  502  0.83417961479E+02  0.32697871074E+02  0.51259162667E+03  0.54765297265E+03  0.17072169062E+03 0.  0.
        -24    2    5    5    0    0  0.81863132736E+02  0.27461788264E+02  0.20081086753E+03  0.23578895448E+03  0.88406471611E+02 0.  0.
          5    1    3    3  501    0 -0.47775441290E+02 -0.54077313483E+02  0.18522472473E+03  0.19883947615E+03  0.47000000000E+01 0. -1.
        -13    1    4    4    0    0  0.13013168536E+00 -0.26199405268E+02  0.15556450033E+03  0.15775531539E+03  0.00000000000E+00 0.  1.
         14    1    4    4    0    0 -0.35772651874E+02  0.47578847677E+02  0.66715915765E+03  0.66980950352E+03  0.00000000000E+00 0. -1.
         -5    1    5    5    0  502  0.15548287428E+01  0.52360828098E+01  0.31178075914E+03  0.31186401816E+03  0.47000000000E+01 0.  1.
         11    1    6    6    0    0 -0.32696899186E+01  0.29877278925E+02  0.96796003231E+02  0.10135486624E+03  0.00000000000E+00 0. -1.
        -12    1    6    6    0    0  0.85132822654E+02 -0.24154906606E+01  0.10401486430E+03  0.13443408825E+03  0.00000000000E+00 0.  1.
</event>
<event>
12    1  0.1046899E+000  0.2570174E+03  0.7818608E-02  0.1109130E+00
         21   -1    0    0  503  502  0.00000000000E+00  0.00000000000E+00  0.43990051016E+03  0.43990051016E+03  0.00000000000E+00 0.  1.
         21   -1    0    0  501  503 -0.00000000000E+00 -0.00000000000E+00 -0.16010084467E+03  0.16010084467E+03  0.00000000000E+00 0.  1.
          6    2    1    2  501    0  0.10070214068E+03 -0.16279402970E+03  0.21689487719E+03  0.33539791992E+03  0.16972200709E+03 0.  0.
         24    2    3    3    0    0  0.16359660614E+02 -0.26423337196E+02  0.11987690126E+03  0.14792739591E+03  0.80908663080E+02 0.  0.
         -6    2    1    2    0  502 -0.10070214068E+03  0.16279402970E+03  0.62904788298E+02  0.26460343491E+03  0.17150844915E+03 0.  0.
        -24    2    5    5    0    0 -0.37566322690E+02  0.25619439243E+02  0.66806228906E+02  0.11347332203E+03  0.79658887290E+02 0.  0.
          5    1    3    3  501    0  0.84342480070E+02 -0.13637069250E+03  0.97017975931E+02  0.18747052401E+03  0.47000000000E+01 0. -1.
        -13    1    4    4    0    0 -0.14882674077E+02 -0.29295731397E+02  0.11035047483E+03  0.11513887771E+03  0.00000000000E+00 0.  1.
         14    1    4    4    0    0  0.31242334691E+02  0.28723942009E+01  0.95264264370E+01  0.32788518205E+02  0.00000000000E+00 0. -1.
         -5    1    5    5    0  502 -0.63135817994E+02  0.13717459045E+03 -0.39014406077E+01  0.15113011288E+03  0.47000000000E+01 0.  1.
         11    1    6    6    0    0 -0.24677071862E+02  0.54640776113E+02  0.42746070691E+02  0.73632865281E+02  0.00000000000E+00 0. -1.
        -12    1    6    6    0    0 -0.12889250828E+02 -0.29021336870E+02  0.24060158215E+02  0.39840456749E+02  0.00000000000E+00 0.  1.
</event>
<event>
12    1  0.1046899E+000  0.5122297E+03  0.7818608E-02  0.1010705E+00
         21   -1    0    0  503  502  0.00000000000E+00  0.00000000000E+00  0.26327520770E+03  0.26327520770E+03  0.00000000000E+00 0. -1.
         21   -1    0    0  501  503 -0.00000000000E+00 -0.00000000000E+00 -0.11166376404E+04  0.11166376404E+04  0.00000000000E+00 0. -1.
          6    2    1    2  501    0 -0.93711987613E+02 -0.47373873179E+03 -0.65449949850E+03  0.83043514041E+03  0.16745926748E+03 0.  0.
         24    2    3    3    0    0  0.99769535727E+01 -0.22850092801E+03 -0.35193298456E+03  0.42736993193E+03  0.80473718647E+02 0.  0.
         -6    2    1    2    0  502  0.93711987613E+02  0.47373873179E+03 -0.19886293423E+03  0.54947770772E+03  0.17078923282E+03 0.  0.
        -24    2    5    5    0    0  0.51469964737E+02  0.10432618456E+03 -0.69563963791E+02  0.15578959220E+03  0.76799361475E+02 0.  0.
          5    1    3    3  501    0 -0.10368894119E+03 -0.24523780378E+03 -0.30256651394E+03  0.40306520848E+03  0.47000000000E+01 0. -1.
        -11    1    4    4    0    0 -0.32324993899E+02 -0.14230447277E+03 -0.19847713066E+03  0.24635064359E+03  0.00000000000E+00 0.  1.
         12    1    4    4    0    0  0.42301947472E+02 -0.86196455239E+02 -0.15345585390E+03  0.18101928834E+03  0.00000000000E+00 0. -1.
         -5    1    5    5    0  502  0.42242022876E+02  0.36941254723E+03 -0.12929897044E+03  0.39368811552E+03  0.47000000000E+01 0.  1.
         11    1    6    6    0    0  0.19729158474E+02  0.26700406754E+02  0.15232574977E+02  0.36526466505E+02  0.00000000000E+00 0. -1.
        -12    1    6    6    0    0  0.31740806264E+02  0.77625777808E+02 -0.84796538768E+02  0.11926312569E+03  0.00000000000E+00 0.  1.
</event>
<event>
12    1  0.1046899E+000  0.2046556E+03  0.7818608E-02  0.1146197E+00
         21   -1    0    0  501  502  0.00000000000E+00  0.00000000000E+00  0.20279860904E+03  0.20279860904E+03  0.00000000000E+00 0. -1.
         21   -1    0    0  502  503 -0.00000000000E+00 -0.00000000000E+00 -0.22020354214E+03  0.22020354214E+03  0.00000000000E+00 0. -1.
         -6    2    1    2    0  503  0.94225395133E+02  0.56008056540E+02  0.47039366524E+02  0.20843985137E+03  0.17093607621E+03 0.  0.
        -24    2    3    3    0    0  0.11415654202E+03  0.51780044959E+02  0.80085757993E+02  0.16933383281E+03  0.80915568081E+02 0.  0.
          6    2    1    2  501    0 -0.94225395133E+02 -0.56008056540E+02 -0.64444299629E+02  0.21456229981E+03  0.17282530272E+03 0.  0.
         24    2    5    5    0    0  0.15844422067E+02 -0.19416698267E+02 -0.28089813641E+02  0.92915142796E+02  0.84947820739E+02 0.  0.
          5    1    5    5  501    0 -0.11006981720E+03 -0.36591358273E+02 -0.36354485989E+02  0.12164715702E+03  0.47000000000E+01 0. -1.
        -13    1    6    6    0    0 -0.12129860943E+02  0.24937262838E+02 -0.29459810664E+02  0.40458386630E+02  0.00000000000E+00 0.  1.
         14    1    6    6    0    0  0.27974283010E+02 -0.44353961105E+02  0.13699970235E+01  0.52456756166E+02  0.00000000000E+00 0. -1.
         -5    1    3    3    0  503 -0.19931146891E+02  0.42280115811E+01 -0.33046391469E+02  0.39106018558E+02  0.47000000000E+01 0.  1.
         13    1    4    4    0    0  0.52419623542E+00  0.14691203026E+02 -0.11568964758E+02  0.18706875036E+02  0.00000000000E+00 0. -1.
        -14    1    4    4    0    0  0.11363234579E+03  0.37088841933E+02  0.91654722751E+02  0.15062695777E+03  0.00000000000E+00 0.  1.
</event>
<event>
12    1  0.1046899E+000  0.4846829E+03  0.7818608E-02  0.1017862E+00
         21   -1    0    0  501  502  0.00000000000E+00  0.00000000000E+00  0.47997805559E+03  0.47997805559E+03  0.00000000000E+00 0.  1.
         21   -1    0    0  502  503 -0.00000000000E+00 -0.00000000000E+00 -0.68166744444E+03  0.68166744444E+03  0.00000000000E+00 0.  1.
         -6    2    1    2    0  503  0.34978531980E+03  0.28819186923E+03  0.20767316381E+03  0.52722042729E+03  0.17154857196E+03 0.  0.
        -24    2    3    3    0    0  0.17832611378E+03  0.13385389086E+03  0.17482962981E+03  0.29415550366E+03  0.79025273937E+02 0.  0.
          6    2    1    2  501    0 -0.34978531980E+03 -0.28819186923E+03 -0.40936255267E+03  0.63442507274E+03  0.17179391712E+03 0.  0.
         24    2    5    5    0    0 -0.13423209955E+03 -0.19284741622E+03 -0.19092865123E+03  0.31303867792E+03  0.79568093615E+02 0.  0.
          5    1    5    5  501    0 -0.21555322025E+03 -0.95344453016E+02 -0.21843390144E+03  0.32138639483E+03  0.47000000000E+01 0. -1.
        -11    1    6    6    0    0 -0.78820747608E+02 -0.13633491557E+03 -0.16880840367E+03  0.23085969030E+03  0.00000000000E+00 0.  1.
         12    1    6    6    0    0 -0.55411351945E+02 -0.56512500648E+02 -0.22120247560E+02  0.82178987618E+02  0.00000000000E+00 0. -1.
         -5    1    3    3    0  503  0.17145920602E+03  0.15433797837E+03  0.32843534001E+02  0.23306492362E+03  0.47000000000E+01 0.  1.
         11    1    4    4    0    0  0.15204750934E+03  0.86502165309E+02  0.99090833704E+02  0.20104741486E+03  0.00000000000E+00 0. -1.
        -12    1    4    4    0    0  0.26278604443E+02  0.47351725551E+02  0.75738796110E+02  0.93108088802E+02  0.00000000000E+00 0.  1.
</event>
<event>
12    1  0.1046899E+000  0.1796898E+03  0.7818608E-02  0.1168121E+00
         21   -1    0    0  503  502  0.00000000000E+00  0.00000000000E+00  0.67436821088E+02  0.67436821088E+02  0.00000000000E+00 0.  1.
         21   -1    0    0  501  503 -0.00000000000E+00 -0.00000000000E+00 -0.48180669838E+03  0.48180669838E+03  0.00000000000E+00 0.  1.
          6    2    1    2  501    0  0.50266386442E+02  0.28717788122E+01 -0.18474818667E+03  0.25767099070E+03  0.17241661826E+03 0.  0.
         24    2    3    3    0    0  0.57898814799E+02  0.60220557159E+02 -0.89587072284E+02  0.14620411656E+03  0.79818618869E+02 0.  0.
         -6    2    1    2    0  502 -0.50266386442E+02 -0.28717788122E+01 -0.22962169062E+03  0.29157252876E+03  0.17249191867E+03 0.  0.
        -24    2    5    5    0    0  0.65174518230E+01  0.44433150229E+02 -0.19544076557E+03  0.21000914092E+03  0.62369579164E+02 0.  0.
          5    1    3    3  501    0 -0.76324283576E+01 -0.57348778347E+02 -0.95161114386E+02  0.11146687415E+03  0.47000000000E+01 0. -1.
        -11    1    4    4    0    0  0.15178995143E+01  0.43704202213E+02 -0.61537678389E+01  0.44161410401E+02  0.00000000000E+00 0.  1.
         12    1    4    4    0    0  0.56380915285E+02  0.16516354946E+02 -0.83433304445E+02  0.10204270616E+03  0.00000000000E+00 0. -1.
         -5    1    5    5    0  502 -0.56783838265E+02 -0.47304929042E+02 -0.34180925054E+02  0.81563387848E+02  0.47000000000E+01 0.  1.
         13    1    6    6    0    0  0.28822830281E+02  0.25562592356E+01 -0.63044837693E+02  0.69368159601E+02  0.00000000000E+00 0. -1.
        -14    1    6    6    0    0 -0.22305378458E+02  0.41876890994E+02 -0.13239592787E+03  0.14064098131E+03  0.00000000000E+00 0.  1.
</event>
<event>
12    1  0.1046899E+000  0.2037165E+03  0.7818608E-02  0.1147544E+00
         21   -1    0    0  501  502  0.00000000000E+00  0.00000000000E+00  0.64411590365E+03  0.64411590365E+03  0.00000000000E+00 0. -1.
         21   -1    0    0  502  503 -0.00000000000E+00 -0.00000000000E+00 -0.80691245047E+02  0.80691245047E+02  0.00000000000E+00 0. -1.
         -6    2    1    2    0  503  0.93711261986E+02 -0.35325606332E+02  0.45344592379E+03  0.49710522840E+03  0.17739983995E+03 0.  0.
        -24    2    3    3    0    0  0.92657294772E+02  0.30677869328E+02  0.19300720443E+03  0.22838979121E+03  0.73373086501E+02 0.  0.
          6    2    1    2  501    0 -0.93711261986E+02  0.35325606332E+02  0.10997873481E+03  0.22770192030E+03  0.17240401187E+03 0.  0.
         24    2    5    5    0    0 -0.12154281290E+03  0.63365851397E+02  0.95048863516E+02  0.18520672496E+03  0.80494459593E+02 0.  0.
          5    1    5    5  501    0  0.27831550913E+02 -0.28040245065E+02  0.14929871296E+02  0.42495195334E+02  0.47000000000E+01 0. -1.
        -13    1    6    6    0    0 -0.60845395159E+02  0.12619004777E+00  0.72594161690E+02  0.94721118804E+02  0.00000000000E+00 0.  1.
         14    1    6    6    0    0 -0.60697417740E+02  0.63239661349E+02  0.22454701826E+02  0.90485606159E+02  0.00000000000E+00 0. -1.
         -5    1    3    3    0  503  0.10539672134E+01 -0.66003475661E+02  0.26043871936E+03  0.26871543719E+03  0.47000000000E+01 0.  1.
         11    1    4    4    0    0  0.68555146390E+02  0.11225568937E+02  0.59901122597E+02  0.91727672940E+02  0.00000000000E+00 0. -1.
        -12    1    4    4    0    0  0.24102148383E+02  0.19452300391E+02  0.13310608184E+03  0.13666211827E+03  0.00000000000E+00 0.  1.
</event>
<event>
12    1  0.1046899E+000  0.2163812E+03  0.7818608E-02  0.1136721E+00
         21   -1    0    0  503  502  0.00000000000E+00  0.00000000000E+00  0.11032210767E+04  0.11032210767E+04  0.00000000000E+00 0.  1.
         21   -1    0    0  501  503 -0.00000000000E+00 -0.00000000000E+00 -0.47166035560E+02  0.47166035560E+02  0.00000000000E+00 0.  1.
          6    2    1    2  501    0 -0.12741126484E+03 -0.30633956195E+02  0.71293117222E+03  0.74504475558E+03  0.17218815819E+03 0.  0.
         24    2    3    3    0    0 -0.71042368905E+02 -0.25499632315E+02  0.19613840628E+03  0.22514027721E+03  0.80750359593E+02 0.  0.
         -6    2    1    2    0  502  0.12741126484E+03  0.30633956195E+02  0.34312386894E+03  0.40534235669E+03  0.17145368767E+03 0.  0.
        -24    2    5    5    0    0  0.24175081110E+02 -0.33840584232E+02  0.11449834203E+03  0.14629333132E+03  0.81007708106E+02 0.  0.
          5    1    3    3  501    0 -0.56368895933E+02 -0.51343238799E+01  0.51679276593E+03  0.51990447837E+03  0.47000000000E+01 0. -1.
        -11    1    4    4    0    0 -0.52320337860E+02 -0.54254817764E+02  0.12128837987E+03  0.14280011938E+03  0.00000000000E+00 0.  1.
         12    1    4    4    0    0 -0.18722031045E+02  0.28755185449E+02  0.74850026415E+02  0.82340157827E+02  0.00000000000E+00 0. -1.
         -5    1    5    5    0  502  0.10323618373E+03  0.64474540427E+02  0.22862552691E+03  0.25904902538E+03  0.47000000000E+01 0.  1.
         11    1    6    6    0    0  0.46995984665E+02 -0.15414401891E+01  0.84326591340E+02  0.96550363124E+02  0.00000000000E+00 0. -1.
        -12    1    6    6    0    0 -0.22820903555E+02 -0.32299144043E+02  0.30171750689E+02  0.49742968192E+02  0.00000000000E+00 0.  1.
</event>
<event>
12    1  0.1046899E+000  0.2586495E+03  0.7818608E-02  0.1107978E+00
         21   -1    0    0  501  502  0.00000000000E+00  0.00000000000E+00  0.67260666062E+03  0.67260666062E+03  0.00000000000E+00 0. -1.
         21   -1    0    0  502  503 -0.00000000000E+00 -0.00000000000E+00 -0.11846354996E+03  0.11846354996E+03  0.00000000000E+00 0. -1.
         -6    2    1    2    0  503  0.70830828147E+01 -0.19315069203E+03  0.43576073846E+03  0.50674154490E+03  0.17187848105E+03 0.  0.
        -24    2    3    3    0    0 -0.59529466254E+02 -0.92593233283E+02  0.25952741475E+03  0.29313136585E+03  0.80338374646E+02 0.  0.
          6    2    1    2  501    0 -0.70830828147E+01  0.19315069203E+03  0.11838237220E+03  0.28432866569E+03  0.17167132606E+03 0.  0.
         24    2    5    5    0    0 -0.62892225565E+02  0.68904760319E+02  0.66990926368E+02  0.13867536959E+03  0.77715995025E+02 0.  0.
          5    1    5    5  501    0  0.55809142751E+02  0.12424593171E+03  0.51391445835E+02  0.14565329611E+03  0.47000000000E+01 0. -1.
        -13    1    6    6    0    0 -0.39832325456E+02  0.28247482484E+02  0.76710225122E+02  0.90934003850E+02  0.00000000000E+00 0.  1.
         14    1    6    6    0    0 -0.23059900109E+02  0.40657277835E+02 -0.97192987537E+01  0.47741365735E+02  0.00000000000E+00 0. -1.
         -5    1    3    3    0  503  0.66612549068E+02 -0.10055745875E+03  0.17623332371E+03  0.21361017904E+03  0.47000000000E+01 0.  1.
         11    1    4    4    0    0  0.47884334236E+01 -0.39147679082E+02  0.15132366494E+03  0.15637877555E+03  0.00000000000E+00 0. -1.
        -12    1    4    4    0    0 -0.64317899677E+02 -0.53445554200E+02  0.10820374981E+03  0.13675259031E+03  0.00000000000E+00 0.  1.
</event>
<event>
12    1  0.1046899E+000  0.2029098E+03  0.7818608E-02  0.1150488E+00
         21   -1    0    0  503  502  0.00000000000E+00  0.00000000000E+00  0.79107664092E+02  0.79107664092E+02  0.00000000000E+00 0.  1.
         21   -1    0    0  501  503 -0.00000000000E+00 -0.00000000000E+00 -0.16016388517E+04  0.16016388517E+04  0.00000000000E+00 0.  1.
          6    2    1    2  501    0 -0.20777996928E+02 -0.10599786889E+03 -0.14546736449E+04  0.14667907996E+04  0.15405376744E+03 0.  0.
         24    2    3    3    0    0 -0.60018197768E+02 -0.49484898625E+02 -0.10761677409E+04  0.10820541123E+04  0.81566881759E+02 0.  0.
         -6    2    1    2    0  502  0.20777996928E+02  0.10599786889E+03 -0.67857542689E+02  0.21395571617E+03  0.17177057087E+03 0.  0.
        -24    2    5    5    0    0  0.42853579860E+02  0.89469036859E+01  0.42139245039E+01  0.90981704315E+02  0.79645696481E+02 0.  0.
          5    1    3    3  501    0  0.39240200839E+02 -0.56512970266E+02 -0.37850590402E+03  0.38473668729E+03  0.47000000000E+01 0. -1.
        -11    1    4    4    0    0 -0.38682424226E+01  0.14296143303E+02 -0.43841931314E+03  0.43866939390E+03  0.00000000000E+00 0.  1.
         12    1    4    4    0    0 -0.56149955345E+02 -0.63781041928E+02 -0.63774842774E+03  0.64338471841E+03  0.00000000000E+00 0. -1.
         -5    1    5    5    0  502 -0.22075582932E+02  0.97050965205E+02 -0.72071467193E+02  0.12297401186E+03  0.47000000000E+01 0.  1.
         11    1    6    6    0    0  0.43651409911E+02  0.40105618487E+02 -0.14813687620E+01  0.59296717235E+02  0.00000000000E+00 0. -1.
        -12    1    6    6    0    0 -0.79783005043E+00 -0.31158714801E+02  0.56952932659E+01  0.31684987080E+02  0.00000000000E+00 0.  1.
</event>
<event>
12    1  0.1046899E+000  0.3968519E+03  0.7818608E-02  0.1044914E+00
         21   -1    0    0  503  502  0.00000000000E+00  0.00000000000E+00  0.80909293057E+03  0.80909293057E+03  0.00000000000E+00 0. -1.
         21   -1    0    0  501  503 -0.00000000000E+00 -0.00000000000E+00 -0.21391226911E+03  0.21391226911E+03  0.00000000000E+00 0.  1.
          6    2    1    2  501    0  0.33484822620E+03 -0.12461054318E+03  0.45208084712E+03  0.60155508478E+03  0.17274346767E+03 0.  0.
         24    2    3    3    0    0  0.32702278608E+03 -0.15067761187E+03  0.41895857520E+03  0.55842847489E+03  0.81660446356E+02 0.  0.
         -6    2    1    2    0  502 -0.33484822620E+03  0.12461054318E+03  0.14309981433E+03  0.42145011491E+03  0.17173095362E+03 0.  0.
        -24    2    5    5    0    0 -0.31975515102E+03  0.68057782972E+02  0.11029916144E+03  0.35418951399E+03  0.80056782217E+02 0.  0.
          5    1    3    3  501    0  0.78254401217E+01  0.26067068689E+02  0.33122271919E+02  0.43126609885E+02  0.47000000000E+01 0. -1.
        -11    1    4    4    0    0  0.10088154946E+03 -0.22647149377E+02  0.76913353139E+02  0.12886288949E+03  0.00000000000E+00 0.  1.
         12    1    4    4    0    0  0.22614123662E+03 -0.12803046249E+03  0.34204522206E+03  0.42956558540E+03  0.00000000000E+00 0. -1.
         -5    1    5    5    0  502 -0.15093075177E+02  0.56552760204E+02  0.32800652897E+02  0.67260600916E+02  0.47000000000E+01 0.  1.
         13    1    6    6    0    0 -0.18686448284E+02  0.20260149198E+02  0.26045220067E+02  0.37921108677E+02  0.00000000000E+00 0. -1.
        -14    1    6    6    0    0 -0.30106870274E+03  0.47797633775E+02  0.84253941370E+02  0.31626840532E+03  0.00000000000E+00 0.  1.
</event>
<event>
12    1  0.1046899E+000  0.2102338E+03  0.7818608E-02  0.1141456E+00
         21   -1    0    0  501  502  0.00000000000E+00  0.00000000000E+00  0.10177372962E+04  0.10177372962E+04  0.00000000000E+00 0.  1.
         21   -1    0    0  502  503 -0.00000000000E+00 -0.00000000000E+00 -0.46890899693E+02  0.46890899693E+02  0.00000000000E+00 0.  1.
         -6    2    1    2    0  503  0.95993229053E+02 -0.70926759498E+02  0.33953920948E+03  0.39935588061E+03  0.17306917509E+03 0.  0.
        -24    2    3    3    0    0  0.47208743657E+00 -0.52600959766E+02  0.24161628566E+03  0.26125768207E+03  0.84321190143E+02 0.  0.
          6    2    1    2  501    0 -0.95993229053E+02  0.70926759498E+02  0.63130718708E+03  0.66527231533E+03  0.17260702146E+03 0.  0.
         24    2    5    5    0    0 -0.18055960385E+02  0.72403382641E+01  0.45524074456E+03  0.46241359534E+03  0.78763934918E+02 0.  0.
          5    1    5    5  501    0 -0.77937268668E+02  0.63686421234E+02  0.17606644252E+03  0.20285872000E+03  0.47000000000E+01 0. -1.
        -13    1    6    6    0    0  0.22936193279E+02 -0.21162448850E+02  0.18338683778E+03  0.18602325251E+03  0.00000000000E+00 0.  1.
         14    1    6    6    0    0 -0.40992153665E+02  0.28402787114E+02  0.27185390677E+03  0.27639034282E+03  0.00000000000E+00 0. -1.
         -5    1    3    3    0  503  0.95521141617E+02 -0.18325799732E+02  0.97922923819E+02  0.13809819854E+03  0.47000000000E+01 0.  1.
         13    1    4    4    0    0  0.37057566023E+01 -0.75825729523E+02  0.18241617294E+03  0.19758272708E+03  0.00000000000E+00 0. -1.
        -14    1    4    4    0    0 -0.32336691657E+01  0.23224769757E+02  0.59200112719E+02  0.63674954986E+02  0.00000000000E+00 0.  1.
</event>
<event>
12    1  0.1046899E+000  0.2573154E+03  0.7818608E-02  0.1108984E+00
         21   -1    0    0  501  502  0.00000000000E+00  0.00000000000E+00  0.36971518824E+02  0.36971518824E+02  0.00000000000E+00 0.  1.
         21   -1    0    0  502  503 -0.00000000000E+00 -0.00000000000E+00 -0.17848977570E+04  0.17848977570E+04  0.00000000000E+00 0.  1.
         -6    2    1    2    0  503 -0.18202019906E+03 -0.52719312759E+02 -0.82884310835E+03  0.86744537081E+03  0.17195899008E+03 0.  0.
        -24    2    3    3    0    0 -0.15175281244E+03  0.17314771458E+02 -0.65736029277E+03  0.67969731174E+03  0.80852728325E+02 0.  0.
          6    2    1    2  501    0  0.18202019906E+03  0.52719312759E+02 -0.91908312979E+03  0.95442390498E+03  0.17407042292E+03 0.  0.
         24    2    5    5    0    0  0.78775424785E+02  0.88767608245E+02 -0.40732996733E+03  0.43109575524E+03  0.76423766459E+02 0.  0.
          5    1    5    5  501    0  0.10324477427E+03 -0.36048295486E+02 -0.51175316246E+03  0.52332814974E+03  0.47000000000E+01 0. -1.
        -11    1    6    6    0    0  0.29514572168E+02  0.29461268081E+02 -0.47987077656E+02  0.63575434793E+02  0.00000000000E+00 0.  1.
         12    1    6    6    0    0  0.49260852617E+02  0.59306340163E+02 -0.35934288967E+03  0.36752032045E+03  0.00000000000E+00 0. -1.
         -5    1    3    3    0  503 -0.30267386619E+02 -0.70034084217E+02 -0.17148281558E+03  0.18774805907E+03  0.47000000000E+01 0.  1.
         13    1    4    4    0    0 -0.11161993262E+03 -0.20645304386E+02 -0.50586926695E+03  0.51844860227E+03  0.00000000000E+00 0. -1.
        -14    1    4    4    0    0 -0.40132879819E+02  0.37960075844E+02 -0.15149102582E+03  0.16124870947E+03  0.00000000000E+00 0.  1.
</event>
<event>
12    1  0.1046899E+000  0.2276789E+03  0.7818608E-02  0.1128317E+00
         21   -1    0    0  503  502  0.00000000000E+00  0.00000000000E+00  0.29715233165E+03  0.29715233165E+03  0.00000000000E+00 0.  1.
         21   -1    0    0  501  503 -0.00000000000E+00 -0.00000000000E+00 -0.18766208824E+03  0.18766208824E+03  0.00000000000E+00 0.  1.
          6    2    1    2  501    0  0.14499488728E+03  0.31178995109E+02  0.11939346375E+03  0.25692019777E+03  0.17250374419E+03 0.  0.
         24    2    3    3    0    0  0.10789294833E+03  0.75042515870E+02  0.99428304700E+02  0.19591806745E+03  0.10595109197E+03 0.  0.
         -6    2    1    2    0  502 -0.14499488728E+03 -0.31178995109E+02 -0.99032203405E+01  0.22789422213E+03  0.17274853294E+03 0.  0.
        -24    2    5    5    0    0 -0.39692985601E+02  0.37335676664E+02  0.23417086756E+02  0.97836221177E+02  0.77807971085E+02 0.  0.
          5    1    3    3  501    0  0.37101938948E+02 -0.43863520762E+02  0.19965159054E+02  0.61002130318E+02  0.47000000000E+01 0. -1.
        -11    1    4    4    0    0  0.47327951624E+02  0.94066254005E+02  0.63796000482E+02  0.12311914890E+03  0.00000000000E+00 0.  1.
         12    1    4    4    0    0  0.60564996709E+02 -0.19023738134E+02  0.35632304218E+02  0.72798918555E+02  0.00000000000E+00 0. -1.
         -5    1    5    5    0  502 -0.10530190168E+03 -0.68514671772E+02 -0.33320307096E+02  0.13005800095E+03  0.47000000000E+01 0.  1.
         13    1    6    6    0    0  0.15307163459E+02  0.45300952532E+01 -0.16028709960E+02  0.22621904410E+02  0.00000000000E+00 0. -1.
        -14    1    6    6    0    0 -0.55000149060E+02  0.32805581411E+02  0.39445796716E+02  0.75214316767E+02  0.00000000000E+00 0.  1.
</event>
<event>
12    1  0.1046899E+000  0.3833104E+03  0.7818608E-02  0.1049748E+00
         21   -1    0    0  501  502  0.00000000000E+00  0.00000000000E+00  0.71837773251E+03  0.71837773251E+03  0.00000000000E+00 0. -1.
         21   -1    0    0  502  503 -0.00000000000E+00 -0.00000000000E+00 -0.22291584798E+03  0.22291584798E+03  0.00000000000E+00 0. -1.
         -6    2    1    2    0  503  0.26906848517E+03 -0.21126088746E+03  0.11198587992E+03  0.39933405370E+03  0.17290990966E+03 0.  0.
        -24    2    3    3    0    0  0.20951639892E+03 -0.85833884327E+02  0.40457507834E+02  0.24307535120E+03  0.78639934553E+02 0.  0.
          6    2    1    2  501    0 -0.26906848517E+03  0.21126088746E+03  0.38347600460E+03  0.54195952679E+03  0.17215478585E+03 0.  0.
         24    2    5    5    0    0 -0.27076542651E+03  0.22152954383E+03  0.33253591096E+03  0.48975504372E+03  0.83009733071E+02 0.  0.
          5    1    5    5  501    0  0.16969413331E+01 -0.10268656368E+02  0.50940093638E+02  0.52204483077E+02  0.47000000000E+01 0. -1.
        -11    1    6    6    0    0 -0.16996097488E+03  0.15888182568E+03  0.26711796761E+03  0.35423463429E+03  0.00000000000E+00 0.  1.
         12    1    6    6    0    0 -0.10080445163E+03  0.62647718149E+02  0.65417943355E+02  0.13552040943E+03  0.00000000000E+00 0. -1.
         -5    1    3    3    0  503  0.59552086253E+02 -0.12542700313E+03  0.71528372091E+02  0.15625870250E+03  0.47000000000E+01 0.  1.
         11    1    4    4    0    0  0.27781349925E+02 -0.43387197526E+02 -0.24592549512E+01  0.51578098527E+02  0.00000000000E+00 0. -1.
        -12    1    4    4    0    0  0.18173504900E+03 -0.42446686801E+02  0.42916762785E+02  0.19149725267E+03  0.00000000000E+00 0.  1.
</event>
<event>
12    1  0.1046899E+000  0.2553105E+03  0.7818608E-02  0.1110025E+00
         21   -1    0    0  501  502  0.00000000000E+00  0.00000000000E+00  0.10740598284E+04  0.10740598284E+04  0.00000000000E+00 0. -1.
         21   -1    0    0  502  503 -0.00000000000E+00 -0.00000000000E+00 -0.80280093055E+02  0.80280093055E+02  0.00000000000E+00 0. -1.
         -6    2    1    2    0  503  0.18633633820E+03  0.26105577941E+02  0.78250665299E+03  0.82310393973E+03  0.17257085934E+03 0.  0.
        -24    2    3    3    0    0  0.18437799459E+03  0.24839729297E+02  0.78926165662E+03  0.81455072065E+03  0.77114569680E+02 0.  0.
          6    2    1    2  501    0 -0.18633633820E+03 -0.26105577941E+02  0.21127308231E+03  0.33123598168E+03  0.17227370117E+03 0.  0.
         24    2    5    5    0    0 -0.13895737426E+03  0.36291910678E+02  0.85720821492E+02  0.18316953373E+03  0.74677735704E+02 0.  0.
          5    1    5    5  501    0 -0.47378963944E+02 -0.62397488619E+02  0.12555226082E+03  0.14806644794E+03  0.47000000000E+01 0. -1.
        -11    1    6    6    0    0 -0.62967703780E+02 -0.19252119473E+02  0.49247464135E+02  0.82224622512E+02  0.00000000000E+00 0.  1.
         12    1    6    6    0    0 -0.75989670477E+02  0.55544030151E+02  0.36473357357E+02  0.10094491122E+03  0.00000000000E+00 0. -1.
         -5    1    3    3    0  503  0.19583436136E+01  0.12658486442E+01 -0.67550036356E+01  0.85532190791E+01  0.47000000000E+01 0.  1.
         11    1    4    4    0    0  0.11803065517E+03  0.46617765833E+02  0.58740479509E+03  0.60095660820E+03  0.00000000000E+00 0. -1.
        -12    1    4    4    0    0  0.66347339417E+02 -0.21778036536E+02  0.20185686153E+03  0.21359411245E+03  0.00000000000E+00 0.  1.
</event>
<event>
12    1  0.1046899E+000  0.1733417E+03  0.7818608E-02  0.1174563E+00
         21   -1    0    0  501  502  0.00000000000E+00  0.00000000000E+00  0.34417399246E+03  0.34417399246E+03  0.00000000000E+00 0.  1.
         21   -1    0    0  502  503 -0.00000000000E+00 -0.00000000000E+00 -0.11037841124E+03  0.11037841124E+03  0.00000000000E+00 0.  1.
         -6    2    1    2    0  503  0.15764027752E+01  0.19540917463E+02  0.22134374114E+03  0.28076408678E+03  0.17161319350E+03 0.  0.
        -24    2    3    3    0    0 -0.22018575707E+01 -0.54637285836E+02  0.11217892198E+03  0.14864395646E+03  0.80751681552E+02 0.  0.
          6    2    1    2  501    0 -0.15764027752E+01 -0.19540917463E+02  0.12451840079E+02  0.17378831693E+03  0.17222949305E+03 0.  0.
         24    2    5    5    0    0 -0.65404846065E+02  0.98263431312E+01 -0.24370693448E+02  0.94324519237E+02  0.62680406205E+02 0.  0.
          5    1    5    5  501    0  0.63828443290E+02 -0.29367260594E+02  0.36822533528E+02  0.79463797688E+02  0.47000000000E+01 0. -1.
        -13    1    6    6    0    0 -0.40908342724E+01  0.21349270766E+02  0.90535133506E+01  0.23547662119E+02  0.00000000000E+00 0.  1.
         14    1    6    6    0    0 -0.61314011793E+02 -0.11522927635E+02 -0.33424206799E+02  0.70776857118E+02  0.00000000000E+00 0. -1.
         -5    1    3    3    0  503  0.37782603458E+01  0.74178203299E+02  0.10916481915E+03  0.13212013032E+03  0.47000000000E+01 0.  1.
         11    1    4    4    0    0  0.71904679915E+01  0.14108216503E+02  0.59380176504E+02  0.61455267996E+02  0.00000000000E+00 0. -1.
        -12    1    4    4    0    0 -0.93923255622E+01 -0.68745502339E+02  0.52798745481E+02  0.87188688461E+02  0.00000000000E+00 0.  1.
</event>
<event>
12    1  0.1046899E+000  0.1874079E+03  0.7818608E-02  0.1160840E+00
         21   -1    0    0  503  502  0.00000000000E+00  0.00000000000E+00  0.29993741219E+03  0.29993741219E+03  0.00000000000E+00 0.  1.
         21   -1    0    0  501  503 -0.00000000000E+00 -0.00000000000E+00 -0.12463317262E+03  0.12463317262E+03  0.00000000000E+00 0.  1.
          6    2    1    2  501    0 -0.21004453175E+02  0.70514747680E+02  0.35241430007E+02  0.19060627764E+03  0.17226513865E+03 0.  0.
         24    2    3    3    0    0 -0.52802755876E+02  0.35196764192E+02  0.77314796979E+02  0.12696077332E+03  0.78195376407E+02 0.  0.
         -6    2    1    2    0  502  0.21004453175E+02 -0.70514747680E+02  0.14006280957E+03  0.23396430717E+03  0.17236063853E+03 0.  0.
        -24    2    5    5    0    0 -0.12636625795E+02  0.24177221903E+02  0.71745439740E+02  0.11235984871E+03  0.82055500175E+02 0.  0.
          5    1    3    3  501    0  0.31798302700E+02  0.35317983489E+02 -0.42073366972E+02  0.63645504324E+02  0.47000000000E+01 0. -1.
        -11    1    4    4    0    0 -0.92339995264E+01  0.11366677588E+02  0.75879817120E+02  0.77280105803E+02  0.00000000000E+00 0.  1.
         12    1    4    4    0    0 -0.43568756349E+02  0.23830086604E+02  0.14349798582E+01  0.49680667513E+02  0.00000000000E+00 0. -1.
         -5    1    5    5    0  502  0.33641078970E+02 -0.94691969584E+02  0.68317369826E+02  0.12160445846E+03  0.47000000000E+01 0.  1.
         13    1    6    6    0    0 -0.25570951409E+02  0.28536017850E+02  0.85060206619E+02  0.93292103743E+02  0.00000000000E+00 0. -1.
        -14    1    6    6    0    0  0.12934325614E+02 -0.43587959466E+01 -0.13314766879E+02  0.19067744970E+02  0.00000000000E+00 0.  1.
</event>
<event>
12    1  0.1046899E+000  0.2230740E+03  0.7818608E-02  0.1131627E+00
         21   -1    0    0  503  502  0.00000000000E+00  0.00000000000E+00  0.63078671167E+03  0.63078671167E+03  0.00000000000E+00 0.  1.
         21   -1    0    0  501  503 -0.00000000000E+00 -0.00000000000E+00 -0.11278941751E+03  0.11278941751E+03  0.00000000000E+00 0.  1.
          6    2    1    2  501    0  0.49264073102E+02 -0.13324013254E+03  0.55114275346E+02  0.22978160763E+03  0.17199454072E+03 0.  0.
         24    2    3    3    0    0 -0.41304159344E+02 -0.75974839261E+02  0.16785907045E+02  0.11588221185E+03  0.75290839864E+02 0.  0.
         -6    2    1    2    0  502 -0.49264073102E+02  0.13324013254E+03  0.46288301881E+03  0.51379452156E+03  0.17188437818E+03 0.  0.
        -24    2    5    5    0    0 -0.39717034760E+02  0.12328556551E+03  0.47254190172E+03  0.49631243459E+03  0.79078507419E+02 0.  0.
          5    1    3    3  501    0  0.90568232445E+02 -0.57265293278E+02  0.38328368300E+02  0.11389939578E+03  0.47000000000E+01 0. -1.
        -13    1    4    4    0    0 -0.32417755796E+02 -0.89854357259E+02  0.23026720344E+02  0.98259586093E+02  0.00000000000E+00 0.  1.
         14    1    4    4    0    0 -0.88864035473E+01  0.13879517998E+02 -0.62408132988E+01  0.17622625754E+02  0.00000000000E+00 0. -1.
         -5    1    5    5    0  502 -0.95470383418E+01  0.99545670265E+01 -0.96588829068E+01  0.17482086969E+02  0.47000000000E+01 0.  1.
         11    1    6    6    0    0  0.93017088648E+00  0.22676702748E+02  0.22360839144E+03  0.22475722633E+03  0.00000000000E+00 0. -1.
        -12    1    6    6    0    0 -0.40647205646E+02  0.10060886277E+03  0.24893351028E+03  0.27155520826E+03  0.00000000000E+00 0.  1.
</event>
<event>
12    1  0.1046899E+000  0.1750982E+03  0.7818608E-02  0.1173416E+00
         21   -1    0    0  501  502  0.00000000000E+00  0.00000000000E+00  0.48638619876E+03  0.48638619876E+03  0.00000000000E+00 0.  1.
         21   -1    0    0  502  503 -0.00000000000E+00 -0.00000000000E+00 -0.69555299675E+02  0.69555299675E+02  0.00000000000E+00 0.  1.
         -6    2    1    2    0  503  0.10903387147E+02  0.17668963478E+02  0.11801733092E+03  0.21115745910E+03  0.17386289429E+03 0.  0.
        -24    2    3    3    0    0  0.45052482764E+02 -0.30461512524E+01  0.13905533111E+03  0.16577063103E+03  0.78131375007E+02 0.  0.
          6    2    1    2  501    0 -0.10903387147E+02 -0.17668963478E+02  0.29881356816E+03  0.34478403934E+03  0.17074955093E+03 0.  0.
         24    2    5    5    0    0  0.23241789043E+02 -0.66783119740E+02  0.23295425290E+03  0.25569064559E+03  0.78165570801E+02 0.  0.
          5    1    5    5  501    0 -0.34145176190E+02  0.49114156262E+02  0.65859315262E+02  0.89093393746E+02  0.47000000000E+01 0. -1.
        -11    1    6    6    0    0  0.49252015775E+02 -0.24326201587E+02  0.10762660671E+03  0.12083464575E+03  0.00000000000E+00 0.  1.
         12    1    6    6    0    0 -0.26010226732E+02 -0.42456918153E+02  0.12532764619E+03  0.13485599984E+03  0.00000000000E+00 0. -1.
         -5    1    3    3    0  503 -0.34149095618E+02  0.20715114731E+02 -0.21038000192E+02  0.45386828066E+02  0.47000000000E+01 0.  1.
         11    1    4    4    0    0  0.15894646227E+02 -0.26403543775E+02  0.11561743931E+02  0.32915966115E+02  0.00000000000E+00 0. -1.
        -12    1    4    4    0    0  0.29157836538E+02  0.23357392523E+02  0.12749358718E+03  0.13285466491E+03  0.00000000000E+00 0.  1.
</event>
<event>
12    1  0.1046899E+000  0.1927678E+03  0.7818608E-02  0.1156115E+00
         21   -1    0    0  503  502  0.00000000000E+00  0.00000000000E+00  0.16574944480E+03  0.16574944480E+03  0.00000000000E+00 0. -1.
         21   -1    0    0  501  503 -0.00000000000E+00 -0.00000000000E+00 -0.30064510468E+03  0.30064510468E+03  0.00000000000E+00 0. -1.
          6    2    1    2  501    0  0.85038276239E+02 -0.30141180705E+02 -0.18547877086E+03  0.26710061517E+03  0.16970670281E+03 0.  0.
         24    2    3    3    0    0  0.30252342176E+02 -0.74772748076E+02 -0.76728964424E+02  0.13732355333E+03  0.80400598606E+02 0.  0.
         -6    2    1    2    0  502 -0.85038276239E+02  0.30141180705E+02  0.50583110983E+02  0.19929393431E+03  0.17035087888E+03 0.  0.
        -24    2    5    5    0    0 -0.47003179637E+02  0.11587609152E+02  0.99755997594E+02  0.13424805536E+03  0.75681634033E+02 0.  0.
          5    1    3    3  501    0  0.54785934063E+02  0.44631567371E+02 -0.10874980644E+03  0.12977706183E+03  0.47000000000E+01 0. -1.
        -13    1    4    4    0    0  0.26517853913E+02 -0.47517666181E+02  0.14604906699E+01  0.54435817330E+02  0.00000000000E+00 0.  1.
         14    1    4    4    0    0  0.37344882634E+01 -0.27255081896E+02 -0.78189455093E+02  0.82887736002E+02  0.00000000000E+00 0. -1.
         -5    1    5    5    0  502 -0.38035096602E+02  0.18553571553E+02 -0.49172886611E+02  0.65045878952E+02  0.47000000000E+01 0.  1.
         13    1    6    6    0    0 -0.10383596761E+02  0.18525682257E+02 -0.60395416625E+01  0.22079312677E+02  0.00000000000E+00 0. -1.
        -14    1    6    6    0    0 -0.36619582876E+02 -0.69380731053E+01  0.10579553926E+03  0.11216874268E+03  0.00000000000E+00 0.  1.
</event>
<event>
12    1  0.1046899E+000  0.1777533E+03  0.7818608E-02  0.1170044E+00
         21   -1    0    0  501  502  0.00000000000E+00  0.00000000000E+00  0.15257019129E+04  0.15257019129E+04  0.00000000000E+00 0. -1.
         21   -1    0    0  502  503 -0.00000000000E+00 -0.00000000000E+00 -0.28280086789E+02  0.28280086789E+02  0.00000000000E+00 0. -1.
         -6    2    1    2    0  503  0.13968290869E+02  0.36229865833E+02  0.11516404978E+04  0.11652776870E+04  0.17346047165E+03 0.  0.
        -24    2    3    3    0    0  0.24670523727E+02 -0.42736596564E+02  0.47788181063E+03  0.48680653908E+03  0.78578178466E+02 0.  0.
          6    2    1    2  501    0 -0.13968290869E+02 -0.36229865833E+02  0.34578132828E+03  0.38870431269E+03  0.17325876426E+03 0.  0.
         24    2    5    5    0    0 -0.10296066334E+02 -0.20918443406E+02  0.10434995162E+03  0.14671438620E+03  0.10046197519E+03 0.  0.
          5    1    5    5  501    0 -0.36722245346E+01 -0.15311422426E+02  0.24143137665E+03  0.24198992649E+03  0.47000000000E+01 0. -1.
        -11    1    6    6    0    0 -0.54446490701E+02 -0.19516489972E+02  0.48324153771E+02  0.75369341036E+02  0.00000000000E+00 0.  1.
         12    1    6    6    0    0  0.44150424366E+02 -0.14019534345E+01  0.56025797851E+02  0.71345045168E+02  0.00000000000E+00 0. -1.
         -5    1    3    3    0  503 -0.10702232858E+02  0.78966462396E+02  0.67375868719E+03  0.67847114790E+03  0.47000000000E+01 0.  1.
         11    1    4    4    0    0  0.44328359399E+02 -0.40369110971E+02  0.21568224228E+03  0.22386044358E+03  0.00000000000E+00 0. -1.
        -12    1    4    4    0    0 -0.19657835672E+02 -0.23674855926E+01  0.26219956836E+03  0.26294609550E+03  0.00000000000E+00 0.  1.
</event>
<event>
12    1  0.1046899E+000  0.1955859E+03  0.7818608E-02  0.1153947E+00
         21   -1    0    0  503  502  0.00000000000E+00  0.00000000000E+00  0.64613865860E+03  0.64613865860E+03  0.00000000000E+00 0.  1.
         21   -1    0    0  501  503 -0.00000000000E+00 -0.00000000000E+00 -0.15007697066E+03  0.15007697066E+03  0.00000000000E+00 0.  1.
          6    2    1    2  501    0 -0.81602453886E+02 -0.40960689277E+02 -0.62274423538E+02  0.20526070056E+03  0.17296564058E+03 0.  0.
         24    2    3    3    0    0  0.64433591852E+01 -0.23892194947E+02 -0.75874408122E+02  0.11442872228E+03  0.82003980493E+02 0.  0.
         -6    2    1    2    0  502  0.81602453886E+02  0.40960689277E+02  0.55833611148E+03  0.59095492870E+03  0.17073891129E+03 0.  0.
        -24    2    5    5    0    0  0.10614617351E+03  0.17471698455E+02  0.52912398537E+03  0.54590423309E+03  0.80417469614E+02 0.  0.
          5    1    3    3  501    0 -0.88045813072E+02 -0.17068494330E+02  0.13599984585E+02  0.90831978283E+02  0.47000000000E+01 0. -1.
        -11    1    4    4    0    0 -0.12661398505E+01 -0.54177274541E+02 -0.51960329751E+02  0.75077666817E+02  0.00000000000E+00 0.  1.
         12    1    4    4    0    0  0.77094990358E+01  0.30285079594E+02 -0.23914078371E+02  0.39351055459E+02  0.00000000000E+00 0. -1.
         -5    1    5    5    0  502 -0.24543719625E+02  0.23488990822E+02  0.29212126115E+02  0.45050695610E+02  0.47000000000E+01 0.  1.
         11    1    6    6    0    0  0.90975566861E+02  0.42445614514E+02  0.46054264526E+03  0.47135730827E+03  0.00000000000E+00 0. -1.
        -12    1    6    6    0    0  0.15170606650E+02 -0.24973916058E+02  0.68581340106E+02  0.74546924820E+02  0.00000000000E+00 0.  1.
</event>
<event>
12    1  0.1046899E+000  0.4609367E+03  0.7818608E-02  0.1024530E+00
         21   -1    0    0  501  502  0.00000000000E+00  0.00000000000E+00  0.74123160480E+03  0.74123160480E+03  0.00000000000E+00 0. -1.
         21   -1    0    0  502  503 -0.00000000000E+00 -0.00000000000E+00 -0.36905000411E+03  0.36905000411E+03  0.00000000000E+00 0.  1.
         -6    2    1    2    0  503 -0.25256749687E+03  0.34474662858E+03  0.44865934560E+03  0.64304350536E+03  0.17195686376E+03 0.  0.
        -24    2    3    3    0    0 -0.12195644197E+03  0.11616534058E+03  0.23751363648E+03  0.30553313016E+03  0.92574327000E+02 0.  0.
          6    2    1    2  501    0  0.25256749687E+03 -0.34474662858E+03 -0.76477744907E+02  0.46723810356E+03  0.17269053696E+03 0.  0.
         24    2    5    5    0    0  0.63252192460E+02 -0.86854244553E+02 -0.45965976416E+02  0.14583209204E+03  0.87233184236E+02 0.  0.
          5    1    5    5  501    0  0.18931530441E+03 -0.25789238403E+03 -0.30511768491E+02  0.32140601152E+03  0.47000000000E+01 0. -1.
        -11    1    6    6    0    0  0.65342612716E+02 -0.10244286291E+03 -0.46482578619E+02  0.13009545462E+03  0.00000000000E+00 0.  1.
         12    1    6    6    0    0 -0.20904202560E+01  0.15588618361E+02  0.51660220282E+00  0.15736637413E+02  0.00000000000E+00 0. -1.
         -5    1    3    3    0  503 -0.13061105490E+03  0.22858128800E+03  0.21114570911E+03  0.33751037520E+03  0.47000000000E+01 0.  1.
         11    1    4    4    0    0  0.37301622442E+01  0.31491837865E+02  0.12163480814E+02  0.33964690902E+02  0.00000000000E+00 0. -1.
        -12    1    4    4    0    0 -0.12568660422E+03  0.84673502712E+02  0.22535015567E+03  0.27156843926E+03  0.00000000000E+00 0.  1.
</event>
<event>
12    1  0.1046899E+000  0.3468698E+03  0.7818608E-02  0.1063919E+00
         21   -1    0    0  503  502  0.00000000000E+00  0.00000000000E+00  0.15368535670E+04  0.15368535670E+04  0.00000000000E+00 0.  1.
         21   -1    0    0  501  503 -0.00000000000E+00 -0.00000000000E+00 -0.12433650075E+03  0.12433650075E+03  0.00000000000E+00 0.  1.
          6    2    1    2  501    0 -0.24795125829E+03 -0.17054519809E+03  0.12117952040E+04  0.12604308694E+04  0.17225814643E+03 0.  0.
         24    2    3    3    0    0 -0.12725229647E+03 -0.41120818757E+02  0.72413566003E+03  0.74163145712E+03  0.88094809021E+02 0.  0.
         -6    2    1    2    0  502  0.24795125829E+03  0.17054519809E+03  0.20072186218E+03  0.40075919828E+03  0.17249109533E+03 0.  0.
        -24    2    5    5    0    0  0.21991471676E+03  0.74982539476E+02  0.12928138178E+03  0.27810479916E+03  0.81509139168E+02 0.  0.
          5    1    3    3  501    0 -0.12069896182E+03 -0.12942437933E+03  0.48765954400E+03  0.51879941230E+03  0.47000000000E+01 0. -1.
        -13    1    4    4    0    0  0.93287728915E+01 -0.16530475035E+02  0.13752608080E+03  0.13882977169E+03  0.00000000000E+00 0.  1.
         14    1    4    4    0    0 -0.13658106936E+03 -0.24590343722E+02  0.58660957923E+03  0.60280168543E+03  0.00000000000E+00 0. -1.
         -5    1    5    5    0  502  0.28036541526E+02  0.95562658616E+02  0.71440480405E+02  0.12265439912E+03  0.47000000000E+01 0.  1.
         13    1    6    6    0    0  0.16674120071E+03  0.71893617924E+02  0.61098301370E+02  0.19158372254E+03  0.00000000000E+00 0. -1.
        -14    1    6    6    0    0  0.53173516049E+02  0.30889215521E+01  0.68183080407E+02  0.86521076619E+02  0.00000000000E+00 0.  1.
</event>
<event>
12    1  0.1046899E+000  0.1764951E+03  0.7818608E-02  0.1171898E+00
         21   -1    0    0  503  502  0.00000000000E+00  0.00000000000E+00  0.39365702928E+03  0.39365702928E+03  0.00000000000E+00 0.  1.
         21   -1    0    0  501  503 -0.00000000000E+00 -0.00000000000E+00 -0.79383001708E+02  0.79383001708E+02  0.00000000000E+00 0.  1.
          6    2    1    2  501    0  0.12767640127E+02 -0.25686291083E+02  0.19002243678E+03  0.25934346490E+03  0.17414852317E+03 0.  0.
         24    2    3    3    0    0  0.42650402650E+02 -0.23813684418E+02  0.35041715963E+02  0.10142703137E+03  0.81690711982E+02 0.  0.
         -6    2    1    2    0  502 -0.12767640127E+02  0.25686291083E+02  0.12425159079E+03  0.21369656609E+03  0.17147876359E+03 0.  0.
        -24    2    5    5    0    0 -0.32420571167E+02 -0.14572985362E+02  0.14013770456E+03  0.16593145697E+03  0.81432222351E+02 0.  0.
          5    1    3    3  501    0 -0.29882762523E+02 -0.18726066643E+01  0.15498072081E+03  0.15791643352E+03  0.47000000000E+01 0. -1.
        -11    1    4    4    0    0  0.40410273474E+01 -0.21881764148E+02  0.53975008088E+02  0.58381872206E+02  0.00000000000E+00 0.  1.
         12    1    4    4    0    0  0.38609375303E+02 -0.19319202708E+01 -0.18933292124E+02  0.43045159169E+02  0.00000000000E+00 0. -1.
         -5    1    5    5    0  502  0.19652931040E+02  0.40259276445E+02 -0.15886113767E+02  0.47765109117E+02  0.47000000000E+01 0.  1.
         13    1    6    6    0    0  0.25379673566E+02 -0.36906974309E+01  0.21310769348E+02  0.33345134099E+02  0.00000000000E+00 0. -1.
        -14    1    6    6    0    0 -0.57800244733E+02 -0.10882287932E+02  0.11882693521E+03  0.13258632287E+03  0.00000000000E+00 0.  1.
</event>
<event>
12    1  0.1046899E+000  0.1973048E+03  0.7818608E-02  0.1152343E+00
         21   -1    0    0  503  502  0.00000000000E+00  0.00000000000E+00  0.66470017266E+03  0.66470017266E+03  0.00000000000E+00 0.  1.
         21   -1    0    0  501  503 -0.00000000000E+00 -0.00000000000E+00 -0.67790659360E+02  0.67790659360E+02  0.00000000000E+00 0.  1.
          6    2    1    2  501    0 -0.23894955436E+02  0.89448164756E+02  0.43756836701E+03  0.47999505857E+03  0.17423328433E+03 0.  0.
         24    2    3    3    0    0  0.45243692764E+02  0.28743001244E+02  0.29359551821E+03  0.30906951705E+03  0.80327368936E+02 0.  0.
         -6    2    1    2    0  502  0.23894955436E+02 -0.89448164756E+02  0.15934114629E+03  0.25249577345E+03  0.17260524800E+03 0.  0.
        -24    2    5    5    0    0 -0.37586616319E+02 -0.36815595011E+02  0.13531998318E+03  0.16794237411E+03  0.84409723442E+02 0.  0.
          5    1    3    3  501    0 -0.69138648199E+02  0.60705163511E+02  0.14397284880E+03  0.17092554152E+03  0.47000000000E+01 0. -1.
        -11    1    4    4    0    0  0.78431948620E+01  0.27045597655E+02  0.25009925777E+03  0.25167959551E+03  0.00000000000E+00 0.  1.
         12    1    4    4    0    0  0.37400497902E+02  0.16974035891E+01  0.43496260445E+02  0.57389921545E+02  0.00000000000E+00 0. -1.
         -5    1    5    5    0  502  0.61481571754E+02 -0.52632569745E+02  0.24021163110E+02  0.84553399343E+02  0.47000000000E+01 0.  1.
         13    1    6    6    0    0  0.10845587618E+01 -0.60900278056E+01  0.11396375617E+03  0.11413151373E+03  0.00000000000E+00 0. -1.
        -14    1    6    6    0    0 -0.38671175080E+02 -0.30725567205E+02  0.21356227004E+02  0.53810860372E+02  0.00000000000E+00 0.  1.
</event>
<event>
12    1  0.1046899E+000  0.1750659E+03  0.7818608E-02  0.1172717E+00
         21   -1    0    0  501  502  0.00000000000E+00  0.00000000000E+00  0.59692810893E+02  0.59692810893E+02  0.00000000000E+00 0. -1.
         21   -1    0    0  502  503 -0.00000000000E+00 -0.00000000000E+00 -0.51735354789E+03  0.51735354789E+03  0.00000000000E+00 0. -1.
         -6    2    1    2    0  503 -0.12215987751E+02 -0.32882061087E+02 -0.25595658825E+03  0.31009972193E+03  0.17151560329E+03 0.  0.
        -24    2    3    3    0    0 -0.12092800412E+02 -0.31829745722E+01 -0.35751487257E+02  0.87851150685E+02  0.79267198050E+02 0.  0.
          6    2    1    2  501    0  0.12215987751E+02  0.32882061087E+02 -0.20170414875E+03  0.26694663686E+03  0.17130523346E+03 0.  0.
         24    2    5    5    0    0 -0.12566243644E+02  0.68408453609E+01 -0.18273740436E+02  0.79967738041E+02  0.76525825009E+02 0.  0.
          5    1    5    5  501    0  0.24782231396E+02  0.26041215726E+02 -0.18343040831E+03  0.18697889882E+03  0.47000000000E+01 0. -1.
        -11    1    6    6    0    0 -0.35613823225E+02  0.26633234374E+02 -0.21539807099E+02  0.49412922073E+02  0.00000000000E+00 0.  1.
         12    1    6    6    0    0  0.23047579581E+02 -0.19792389013E+02  0.32660666637E+01  0.30554815968E+02  0.00000000000E+00 0. -1.
         -5    1    3    3    0  503 -0.12318733938E+00 -0.29699086514E+02 -0.22020510099E+03  0.22224857124E+03  0.47000000000E+01 0.  1.
         13    1    4    4    0    0 -0.43939133228E+02 -0.14727089695E+02 -0.21874347944E+02  0.51244723609E+02  0.00000000000E+00 0. -1.
        -14    1    4    4    0    0  0.31846332816E+02  0.11544115122E+02 -0.13877139312E+02  0.36606427077E+02  0.00000000000E+00 0.  1.
</event>
<event>
12    1  0.1046899E+000  0.2649739E+03  0.7818608E-02  0.1104283E+00
         21   -1    0    0  503  502  0.00000000000E+00  0.00000000000E+00  0.46610306140E+03  0.46610306140E+03  0.00000000000E+00 0.  1.
         21   -1    0    0  501  503 -0.00000000000E+00 -0.00000000000E+00 -0.18292952087E+03  0.18292952087E+03  0.00000000000E+00 0.  1.
          6    2    1    2  501    0 -0.20045007682E+03  0.44459353285E+01  0.27882218079E+03  0.38464657225E+03  0.17323734415E+03 0.  0.
         24    2    3    3    0    0 -0.11591104188E+03 -0.58776108680E+02  0.12112876562E+03  0.19482249985E+03  0.79960165113E+02 0.  0.
         -6    2    1    2    0  502  0.20045007682E+03 -0.44459353285E+01  0.43513597342E+01  0.26438601002E+03  0.17228182819E+03 0.  0.
        -24    2    5    5    0    0  0.18244167780E+03  0.50052900190E+02 -0.58516461639E+01  0.20589997034E+03  0.81057371081E+02 0.  0.
          5    1    3    3  501    0 -0.84539034934E+02  0.63222044008E+02  0.15769341517E+03  0.18982407241E+03  0.47000000000E+01 0. -1.
        -11    1    4    4    0    0 -0.35374247509E+02 -0.25611433777E+02 -0.23278234159E+01  0.43734445107E+02  0.00000000000E+00 0.  1.
         12    1    4    4    0    0 -0.80536794372E+02 -0.33164674903E+02  0.12345658904E+03  0.15108805474E+03  0.00000000000E+00 0. -1.
         -5    1    5    5    0  502  0.18008399014E+02 -0.54498835518E+02  0.10203005898E+02  0.58486039678E+02  0.47000000000E+01 0.  1.
         11    1    6    6    0    0  0.12140496746E+03  0.21116590249E+02  0.33532316628E+02  0.12770862448E+03  0.00000000000E+00 0. -1.
        -12    1    6    6    0    0  0.61036710336E+02  0.28936309940E+02 -0.39383962792E+02  0.78191345856E+02  0.00000000000E+00 0.  1.
</event>
<event>
12    1  0.1046899E+000  0.2077048E+03  0.7818608E-02  0.1143680E+00
         21   -1    0    0  501  502  0.00000000000E+00  0.00000000000E+00  0.28391870864E+02  0.28391870864E+02  0.00000000000E+00 0. -1.
         21   -1    0    0  502  503 -0.00000000000E+00 -0.00000000000E+00 -0.27537726478E+04  0.27537726478E+04  0.00000000000E+00 0. -1.
         -6    2    1    2    0  503  0.99076052370E+02  0.52726387787E+02 -0.42497323534E+03  0.47239912788E+03  0.17309693567E+03 0.  0.
        -24    2    3    3    0    0  0.12266941896E+03  0.78090016885E+02 -0.39036999037E+03  0.42321137340E+03  0.74654538400E+02 0.  0.
          6    2    1    2  501    0 -0.99076052370E+02 -0.52726387787E+02 -0.23004075416E+04  0.23097653908E+04  0.17477175668E+03 0.  0.
         24    2    5    5    0    0 -0.58795410089E+01 -0.35484215106E+02 -0.56417462959E+03  0.57094116247E+03  0.79919333134E+02 0.  0.
          5    1    5    5  501    0 -0.93196511361E+02 -0.17242172681E+02 -0.17362329120E+04  0.17388242283E+04  0.47000000000E+01 0. -1.
        -11    1    6    6    0    0 -0.10806329784E+02 -0.97559856091E+01 -0.51515889637E+03  0.51536457438E+03  0.00000000000E+00 0.  1.
         12    1    6    6    0    0  0.49267887753E+01 -0.25728229497E+02 -0.49015733216E+02  0.55576588087E+02  0.00000000000E+00 0. -1.
         -5    1    3    3    0  503 -0.23593366595E+02 -0.25363629098E+02 -0.34603244971E+02  0.49187754481E+02  0.47000000000E+01 0.  1.
         13    1    4    4    0    0  0.19184796864E+01  0.25525816429E+02 -0.11707074407E+03  0.11983658451E+03  0.00000000000E+00 0. -1.
        -14    1    4    4    0    0  0.12075093928E+03  0.52564200457E+02 -0.27329924630E+03  0.30337478889E+03  0.00000000000E+00 0.  1.
</event>
<event>
12    1  0.1046899E+000  0.1894065E+03  0.7818608E-02  0.1159713E+00
         21   -1    0    0  501  502  0.00000000000E+00  0.00000000000E+00  0.12800948435E+03  0.12800948435E+03  0.00000000000E+00 0.  1.
         21   -1    0    0  502  503 -0.00000000000E+00 -0.00000000000E+00 -0.28044261357E+03  0.28044261357E+03  0.00000000000E+00 0.  1.
         -6    2    1    2    0  503 -0.39107703361E+02  0.61577525595E+02 -0.48863360849E+02  0.19257825906E+03  0.17139881478E+03 0.  0.
        -24    2    3    3    0    0 -0.80061576585E+02  0.51634366688E+02 -0.72741442718E+02  0.14391267640E+03  0.79646576024E+02 0.  0.
          6    2    1    2  501    0  0.39107703361E+02 -0.61577525595E+02 -0.10356976837E+03  0.21587383886E+03  0.17479591890E+03 0.  0.
         24    2    5    5    0    0 -0.61398498897E+01 -0.57274244473E+02  0.42466156162E+01  0.98774214783E+02  0.80126618082E+02 0.  0.
          5    1    5    5  501    0  0.45247553251E+02 -0.43032811215E+01 -0.10781638398E+03  0.11709962408E+03  0.47000000000E+01 0. -1.
        -13    1    6    6    0    0 -0.30768660091E+02  0.39360752066E+01  0.98797901969E+01  0.32554775167E+02  0.00000000000E+00 0.  1.
         14    1    6    6    0    0  0.24628810201E+02 -0.61210319680E+02 -0.56331745807E+01  0.66219439616E+02  0.00000000000E+00 0. -1.
         -5    1    3    3    0  503  0.40953873225E+02  0.99431589068E+01  0.23878081869E+02  0.48665582652E+02  0.47000000000E+01 0.  1.
         13    1    4    4    0    0 -0.91343801686E+00  0.34483985250E+01  0.15530618000E+02  0.15935053086E+02  0.00000000000E+00 0. -1.
        -14    1    4    4    0    0 -0.79148138569E+02  0.48185968163E+02 -0.88272060718E+02  0.12797762332E+03  0.00000000000E+00 0.  1.
</event>
<event>
12    1  0.1046899E+000  0.2209960E+03  0.7818608E-02  0.1133168E+00
         21   -1    0    0  503  502  0.00000000000E+00  0.00000000000E+00  0.78466349287E+03  0.78466349287E+03  0.00000000000E+00 0. -1.
         21   -1    0    0  501  503 -0.00000000000E+00 -0.00000000000E+00 -0.78293020387E+02  0.78293020387E+02  0.00000000000E+00 0. -1.
          6    2    1    2  501    0  0.80916433009E+01 -0.13805926011E+03  0.54886796898E+03  0.59168849787E+03  0.17237574408E+03 0.  0.
         24    2    3    3    0    0  0.65573464095E+02 -0.11582895025E+03  0.33838525785E+03  0.37231801653E+03  0.79999361205E+02 0.  0.
         -6    2    1    2    0  502 -0.80916433009E+01  0.13805926011E+03  0.15750250349E+03  0.27126801538E+03  0.17220181058E+03 0.  0.
        -24    2    5    5    0    0 -0.17625182049E+02  0.43591259952E+01  0.88402537789E+02  0.12039220723E+03  0.79684539612E+02 0.  0.
          5    1    3    3  501    0 -0.57481820794E+02 -0.22230309855E+02  0.21048271113E+03  0.21937048134E+03  0.47000000000E+01 0. -1.
        -11    1    4    4    0    0  0.93561854792E+01 -0.22818059393E+02  0.17084212978E+03  0.17261296402E+03  0.00000000000E+00 0.  1.
         12    1    4    4    0    0  0.56217278616E+02 -0.93010890861E+02  0.16754312807E+03  0.19970505251E+03  0.00000000000E+00 0. -1.
         -5    1    5    5    0  502  0.95335387479E+01  0.13370013411E+03  0.69099965705E+02  0.15087580815E+03  0.47000000000E+01 0.  1.
         13    1    6    6    0    0 -0.12156792444E+02  0.18470420080E+02  0.99307050000E+02  0.10173904953E+03  0.00000000000E+00 0. -1.
        -14    1    6    6    0    0 -0.54683896049E+01 -0.14111294084E+02 -0.10904512210E+02  0.18653157699E+02  0.00000000000E+00 0.  1.
</event>
<event>
12    1  0.1046899E+000  0.1775553E+03  0.7818608E-02  0.1170560E+00
         21   -1    0    0  503  502  0.00000000000E+00  0.00000000000E+00  0.11042122977E+04  0.11042122977E+04  0.00000000000E+00 0. -1.
         21   -1    0    0  501  503 -0.00000000000E+00 -0.00000000000E+00 -0.28873436040E+02  0.28873436040E+02  0.00000000000E+00 0. -1.
          6    2    1    2  501    0 -0.38904548015E+02  0.21379920471E+02  0.45634053765E+03  0.48912548826E+03  0.17037133591E+03 0.  0.
         24    2    3    3    0    0  0.27504972250E+02  0.53993150441E+02  0.23170613590E+03  0.25257411624E+03  0.80213259433E+02 0.  0.
         -6    2    1    2    0  502  0.38904548015E+02 -0.21379920471E+02  0.61899832405E+03  0.64396024552E+03  0.17191628133E+03 0.  0.
        -24    2    5    5    0    0 -0.15572707324E+02 -0.49911334793E+02  0.50732670044E+03  0.51638887542E+03  0.80891526859E+02 0.  0.
          5    1    3    3  501    0 -0.66409520266E+02 -0.32613229970E+02  0.22463440175E+03  0.23655137201E+03  0.47000000000E+01 0. -1.
        -11    1    4    4    0    0  0.41663235073E+01 -0.19744365408E+02  0.77160665295E+02  0.79755667420E+02  0.00000000000E+00 0.  1.
         12    1    4    4    0    0  0.23338648743E+02  0.73737515848E+02  0.15454547060E+03  0.17281844882E+03  0.00000000000E+00 0. -1.
         -5    1    5    5    0  502  0.54477255340E+02  0.28531414322E+02  0.11167162360E+03  0.12757137011E+03  0.47000000000E+01 0.  1.
         13    1    6    6    0    0 -0.46244817441E+02 -0.12710237488E+02  0.26704608633E+03  0.27131853143E+03  0.00000000000E+00 0. -1.
        -14    1    6    6    0    0  0.30672110117E+02 -0.37201097305E+02  0.24028061412E+03  0.24507034398E+03  0.00000000000E+00 0.  1.
</event>
<event>
12    1  0.1046899E+000  0.1767448E+03  0.7818608E-02  0.1171183E+00
         21   -1    0    0  501  502  0.00000000000E+00  0.00000000000E+00  0.79427648970E+03  0.79427648970E+03  0.00000000000E+00 0.  1.
         21   -1    0    0  502  503 -0.00000000000E+00 -0.00000000000E+00 -0.61067096291E+02  0.61067096291E+02  0.00000000000E+00 0.  1.
         -6    2    1    2    0  503  0.34381110726E+02 -0.21118796557E+01  0.62225369032E+03  0.64665745476E+03  0.17256792247E+03 0.  0.
        -24    2    3    3    0    0  0.71859846147E+02 -0.27916197351E+02  0.27952249324E+03  0.30088689228E+03  0.80355125279E+02 0.  0.
          6    2    1    2  501    0 -0.34381110726E+02  0.21118796557E+01  0.11095570309E+03  0.20868613123E+03  0.17335573977E+03 0.  0.
         24    2    5    5    0    0 -0.63549483340E+02 -0.43054328156E+02  0.45774281746E+02  0.12406055604E+03  0.86043737073E+02 0.  0.
          5    1    5    5  501    0  0.29168372614E+02  0.45166207811E+02  0.65181421341E+02  0.84625575195E+02  0.47000000000E+01 0. -1.
        -13    1    6    6    0    0 -0.15810605359E+02 -0.39613896134E+02  0.60464199006E+02  0.73994292821E+02  0.00000000000E+00 0.  1.
         14    1    6    6    0    0 -0.47738877981E+02 -0.34404320218E+01 -0.14689917260E+02  0.50066263217E+02  0.00000000000E+00 0. -1.
         -5    1    3    3    0  503 -0.37478735421E+02  0.25804317696E+02  0.34273119708E+03  0.34577056247E+03  0.47000000000E+01 0.  1.
         13    1    4    4    0    0  0.43849601185E+02 -0.35241148897E+02  0.25988302784E+03  0.26590207645E+03  0.00000000000E+00 0. -1.
        -14    1    4    4    0    0  0.28010244961E+02  0.73249515456E+01  0.19639465399E+02  0.34984815837E+02  0.00000000000E+00 0.  1.
</event>
<event>
12    1  0.1046899E+000  0.1927836E+03  0.7818608E-02  0.1156017E+00
         21   -1    0    0  501  502  0.00000000000E+00  0.00000000000E+00  0.26480607661E+03  0.26480607661E+03  0.00000000000E+00 0. -1.
         21   -1    0    0  502  503 -0.00000000000E+00 -0.00000000000E+00 -0.14200155887E+03  0.14200155887E+03  0.00000000000E+00 0. -1.
         -6    2    1    2    0  503  0.70245612044E+02 -0.52166551155E+02  0.84272269856E+02  0.21039802437E+03  0.17178392859E+03 0.  0.
        -24    2    3    3    0    0  0.62092552878E+01  0.25064863788E+02  0.17597186617E+02  0.89845118285E+02  0.84235871544E+02 0.  0.
          6    2    1    2  501    0 -0.70245612044E+02  0.52166551155E+02  0.38532247890E+02  0.19640961111E+03  0.17156982876E+03 0.  0.
         24    2    5    5    0    0 -0.41823851259E+02  0.49548109189E+02 -0.41743998349E+02  0.11108072717E+03  0.79950715398E+02 0.  0.
          5    1    5    5  501    0 -0.28421760784E+02  0.26184419660E+01  0.80276246239E+02  0.85328883941E+02  0.47000000000E+01 0. -1.
        -13    1    6    6    0    0 -0.32007125512E+02  0.52444552018E+02  0.64815274547E+01  0.61781043355E+02  0.00000000000E+00 0.  1.
         14    1    6    6    0    0 -0.98167257476E+01 -0.28964428290E+01 -0.48225525803E+02  0.49299683817E+02  0.00000000000E+00 0. -1.
         -5    1    3    3    0  503  0.64036356756E+02 -0.77231414943E+02  0.66675083238E+02  0.12055290608E+03  0.47000000000E+01 0.  1.
         13    1    4    4    0    0 -0.34436721228E+02  0.47480815225E+01  0.26284890009E+02  0.43581274532E+02  0.00000000000E+00 0. -1.
        -14    1    4    4    0    0  0.40645976516E+02  0.20316782266E+02 -0.86877033918E+01  0.46263843753E+02  0.00000000000E+00 0.  1.
</event>
<event>
12    1  0.1343795E+000  0.2271277E+03  0.7818608E-02  0.1129074E+00
         21   -1    0    0  503  502  0.00000000000E+00  0.00000000000E+00  0.36608186951E+03  0.36608186951E+03  0.00000000000E+00 0. -1.
         21   -1    0    0  501  503 -0.00000000000E+00 -0.00000000000E+00 -0.56501381875E+03  0.56501381875E+03  0.00000000000E+00 0. -1.
          6    2    1    2  501    0 -0.14066982907E+03  0.31193939673E+02  0.30463642265E+03  0.37867545486E+03  0.17271562589E+03 0.  0.
         24    2    3    3    0    0 -0.36709563693E+02 -0.22730310070E+02  0.65668962266E+02  0.11251178602E+03  0.80512299221E+02 0.  0.
         -6    2    1    2    0  502  0.14066982907E+03 -0.31193939673E+02 -0.50356837189E+03  0.55242023340E+03  0.17557319389E+03 0.  0.
        -24    2    5    5    0    0  0.71257834929E+02 -0.85031837224E+02 -0.34668513144E+03  0.37255643693E+03  0.79370183053E+02 0.  0.
          5    1    3    3  501    0 -0.10396026538E+03  0.53924249742E+02  0.23896746039E+03  0.26616366884E+03  0.47000000000E+01 0. -1.
        -11    1    4    4    0    0 -0.29429954011E+02  0.25930197106E+02  0.15307002771E+02  0.42104651155E+02  0.00000000000E+00 0.  1.
         12    1    4    4    0    0 -0.72796096818E+01 -0.48660507176E+02  0.50361959496E+02  0.70407134865E+02  0.00000000000E+00 0. -1.
         -5    1    5    5    0  502  0.69411994145E+02  0.53837897551E+02 -0.15688324045E+03  0.17986379646E+03  0.47000000000E+01 0.  1.
         11    1    6    6    0    0  0.76207645807E+01  0.15504717343E+02 -0.50047459239E+02  0.52945448236E+02  0.00000000000E+00 0. -1.
        -12    1    6    6    0    0  0.63637070348E+02 -0.10053655457E+03 -0.29663767220E+03  0.31961098870E+03  0.00000000000E+00 0.  1.
</event>
<event>
12    1  0.1046899E+000  0.2345804E+03  0.7818608E-02  0.1123535E+00
         21   -1    0    0  501  502  0.00000000000E+00  0.00000000000E+00  0.39615525307E+02  0.39615525307E+02  0.00000000000E+00 0.  1.
         21   -1    0    0  502  503 -0.00000000000E+00 -0.00000000000E+00 -0.19097378717E+04  0.19097378717E+04  0.00000000000E+00 0. -1.
         -6    2    1    2    0  503 -0.49845755163E+02  0.15075385407E+03 -0.42415070178E+03  0.48447730492E+03  0.17205556467E+03 0.  0.
        -24    2    3    3    0    0 -0.82116890395E+02  0.15682180559E+03 -0.31114828925E+03  0.36670684409E+03  0.79526028475E+02 0.  0.
          6    2    1    2  501    0  0.49845755163E+02 -0.15075385407E+03 -0.14459716446E+04  0.14648760921E+04  0.17267496730E+03 0.  0.
         24    2    5    5    0    0  0.52239744076E+02 -0.51426043586E+02 -0.42274789601E+03  0.43682907234E+03  0.82037954870E+02 0.  0.
          5    1    5    5  501    0 -0.23939889130E+01 -0.99327810483E+02 -0.10232237486E+04  0.10280470198E+04  0.47000000000E+01 0. -1.
        -11    1    6    6    0    0  0.23000499763E+02  0.20064194485E+02 -0.16330880842E+03  0.16613657574E+03  0.00000000000E+00 0.  1.
         12    1    6    6    0    0  0.29239244313E+02 -0.71490238071E+02 -0.25943908759E+03  0.27069249660E+03  0.00000000000E+00 0. -1.
         -5    1    3    3    0  503  0.32271135232E+02 -0.60679515173E+01 -0.11300241253E+03  0.11777046083E+03  0.47000000000E+01 0.  1.
         11    1    4    4    0    0 -0.32556898191E+02  0.13536478965E+03 -0.23884559336E+03  0.27646120046E+03  0.00000000000E+00 0. -1.
        -12    1    4    4    0    0 -0.49559992204E+02  0.21457015937E+02 -0.72302695891E+02  0.90245643625E+02  0.00000000000E+00 0.  1.
</event>
<event>
12    1  0.1046899E+000  0.1771643E+03  0.7818608E-02  0.1170817E+00
         21   -1    0    0  503  502  0.00000000000E+00  0.00000000000E+00  0.13203065275E+04  0.13203065275E+04  0.00000000000E+00 0.  1.
         21   -1    0    0  501  503 -0.00000000000E+00 -0.00000000000E+00 -0.30483825205E+02  0.30483825205E+02  0.00000000000E+00 0.  1.
          6    2    1    2  501    0 -0.20925392898E+01  0.41716656953E+02  0.96624786436E+03  0.98235540258E+03  0.17217010021E+03 0.  0.
         24    2    3    3    0    0 -0.55382163415E+02 -0.15883711952E+02  0.55785960082E+03  0.56647002133E+03  0.79758852236E+02 0.  0.
         -6    2    1    2    0  502  0.20925392898E+01 -0.41716656953E+02  0.32357483790E+03  0.36843495010E+03  0.17116944394E+03 0.  0.
        -24    2    5    5    0    0  0.21880963030E+01 -0.93498017546E+02  0.22808666823E+03  0.25970869300E+03  0.81721539033E+02 0.  0.
          5    1    3    3  501    0  0.53289624125E+02  0.57600368904E+02  0.40838826355E+03  0.41588538125E+03  0.47000000000E+01 0. -1.
        -11    1    4    4    0    0 -0.64076508321E+01 -0.93583925625E+01  0.68503141739E+01  0.13250068106E+02  0.00000000000E+00 0.  1.
         12    1    4    4    0    0 -0.48974512583E+02 -0.65253193890E+01  0.55100928664E+03  0.55321995322E+03  0.00000000000E+00 0. -1.
         -5    1    5    5    0  502 -0.95557013291E-01  0.51781360593E+02  0.95488169668E+02  0.10872625710E+03  0.47000000000E+01 0.  1.
         11    1    6    6    0    0  0.19719674209E+02 -0.67235503272E+02  0.72023668525E+02  0.10048326865E+03  0.00000000000E+00 0. -1.
        -12    1    6    6    0    0 -0.17531577906E+02 -0.26262514274E+02  0.15606299971E+03  0.15922542435E+03  0.00000000000E+00 0.  1.
</event>
<event>
12    1  0.1046899E+000  0.2881314E+03  0.7818608E-02  0.1091396E+00
         21   -1    0    0  503  502  0.00000000000E+00  0.00000000000E+00  0.12405603542E+03  0.12405603542E+03  0.00000000000E+00 0. -1.
         21   -1    0    0  501  503 -0.00000000000E+00 -0.00000000000E+00 -0.98015132191E+03  0.98015132191E+03  0.00000000000E+00 0. -1.
          6    2    1    2  501    0  0.20508952085E+03  0.10468676562E+03 -0.11623774148E+03  0.31022442648E+03  0.17235704737E+03 0.  0.
         24    2    3    3    0    0  0.11791097041E+03  0.85908331734E+01 -0.11014897061E+03  0.18024869404E+03  0.79874881043E+02 0.  0.
         -6    2    1    2    0  502 -0.20508952085E+03 -0.10468676562E+03 -0.73985754501E+03  0.79398293086E+03  0.17320126192E+03 0.  0.
        -24    2    5    5    0    0 -0.12940323225E+03 -0.12889235373E+03 -0.42253571271E+03  0.46682920547E+03  0.77682965974E+02 0.  0.
          5    1    3    3  501    0  0.87178550447E+02  0.96095932443E+02 -0.60887708690E+01  0.12997573243E+03  0.47000000000E+01 0. -1.
        -11    1    4    4    0    0  0.93853499331E+02 -0.12439351627E+02 -0.39261686434E+02  0.10249242327E+03  0.00000000000E+00 0.  1.
         12    1    4    4    0    0  0.24057471075E+02  0.21030184800E+02 -0.70887284177E+02  0.77756270778E+02  0.00000000000E+00 0. -1.
         -5    1    5    5    0  502 -0.75686288607E+02  0.24205588114E+02 -0.31732183230E+03  0.32715372539E+03  0.47000000000E+01 0.  1.
         13    1    6    6    0    0 -0.97335902359E+01 -0.49849506390E+02 -0.15737506690E+03  0.16536815821E+03  0.00000000000E+00 0. -1.
        -14    1    6    6    0    0 -0.11966964201E+03 -0.79042847340E+02 -0.26516064580E+03  0.30146104726E+03  0.00000000000E+00 0.  1.
</event>
<event>
12    1  0.1046899E+000  0.3569979E+03  0.7818608E-02  0.1059921E+00
         21   -1    0    0  503  502  0.00000000000E+00  0.00000000000E+00  0.66325129935E+02  0.66325129935E+02  0.00000000000E+00 0.  1.
         21   -1    0    0  501  503 -0.00000000000E+00 -0.00000000000E+00 -0.21696649947E+04  0.21696649947E+04  0.00000000000E+00 0.  1.
          6    2    1    2  501    0 -0.22223607442E+03 -0.21706384570E+03 -0.66968748681E+03  0.75889973153E+03  0.17590306035E+03 0.  0.
         24    2    3    3    0    0 -0.80933351195E+02 -0.85037214169E+02 -0.16366489702E+03  0.21716322510E+03  0.81191949650E+02 0.  0.
         -6    2    1    2    0  502  0.22223607442E+03  0.21706384570E+03 -0.14336523779E+04  0.14770903931E+04  0.17300665508E+03 0.  0.
        -24    2    5    5    0    0  0.20430913284E+03  0.20699849729E+03 -0.10498402858E+04  0.10926993181E+04  0.85068057508E+02 0.  0.
          5    1    3    3  501    0 -0.14130272322E+03 -0.13202663153E+03 -0.50602258979E+03  0.54173650643E+03  0.47000000000E+01 0. -1.
        -13    1    4    4    0    0  0.92561148484E+01 -0.61404051603E+01 -0.52665020539E+02  0.53823643745E+02  0.00000000000E+00 0.  1.
         14    1    4    4    0    0 -0.90189466044E+02 -0.78896809009E+02 -0.11099987648E+03  0.16333958135E+03  0.00000000000E+00 0. -1.
         -5    1    5    5    0  502  0.17926941580E+02  0.10065348413E+02 -0.38381209213E+03  0.38439107499E+03  0.47000000000E+01 0.  1.
         11    1    6    6    0    0  0.48773793236E+02  0.18729689690E+02 -0.11201353906E+03  0.12359901745E+03  0.00000000000E+00 0. -1.
        -12    1    6    6    0    0  0.15553533960E+03  0.18826880760E+03 -0.93782674673E+03  0.96910030062E+03  0.00000000000E+00 0.  1.
</event>
<event>
12    1  0.1046899E+000  0.2947707E+03  0.7818608E-02  0.1088005E+00
         21   -1    0    0  503  502  0.00000000000E+00  0.00000000000E+00  0.23067084239E+03  0.23067084239E+03  0.00000000000E+00 0.  1.
         21   -1    0    0  501  503 -0.00000000000E+00 -0.00000000000E+00 -0.57041413225E+03  0.57041413225E+03  0.00000000000E+00 0.  1.
          6    2    1    2  501    0  0.19707438503E+03 -0.13472905195E+03  0.64103189056E+02  0.30166038883E+03  0.17291483646E+03 0.  0.
         24    2    3    3    0    0  0.36204854600E+02 -0.92638191104E+02  0.29266573730E+02  0.13170061078E+03  0.81215100779E+02 0.  0.
         -6    2    1    2    0  502 -0.19707438503E+03  0.13472905195E+03 -0.40384647891E+03  0.49942458582E+03  0.17129713282E+03 0.  0.
        -24    2    5    5    0    0 -0.18946484252E+03  0.97944206385E+02 -0.23965751642E+03  0.33092789325E+03  0.81163731062E+02 0.  0.
          5    1    3    3  501    0  0.16086953043E+03 -0.42090860851E+02  0.34836615326E+02  0.16995977805E+03  0.47000000000E+01 0. -1.
        -13    1    4    4    0    0 -0.16715234237E+02 -0.43520194576E+02  0.36400277835E+02  0.59147160692E+02  0.00000000000E+00 0.  1.
         14    1    4    4    0    0  0.52920088837E+02 -0.49117996529E+02 -0.71337041044E+01  0.72553450089E+02  0.00000000000E+00 0. -1.
         -5    1    5    5    0  502 -0.76095425093E+01  0.36784845570E+02 -0.16418896249E+03  0.16849669257E+03  0.47000000000E+01 0.  1.
         13    1    6    6    0    0 -0.10393240399E+02  0.33612084976E+02 -0.20596962358E+02  0.40767959979E+02  0.00000000000E+00 0. -1.
        -14    1    6    6    0    0 -0.17907160212E+03  0.64332121409E+02 -0.21906055406E+03  0.29015993327E+03  0.00000000000E+00 0.  1.
</event>
<event>
12    1  0.1046899E+000  0.1957942E+03  0.7818608E-02  0.1153410E+00
         21   -1    0    0  501  502  0.00000000000E+00  0.00000000000E+00  0.49986830002E+03  0.49986830002E+03  0.00000000000E+00 0. -1.
         21   -1    0    0  502  503 -0.00000000000E+00 -0.00000000000E+00 -0.93283236107E+02  0.93283236107E+02  0.00000000000E+00 0. -1.
         -6    2    1    2    0  503  0.85305869338E+02  0.38876593167E+02  0.32872491230E+03  0.38244420520E+03  0.17150807935E+03 0.  0.
        -24    2    3    3    0    0 -0.54570524424E+01  0.59120078941E+02  0.19729864598E+03  0.22137695165E+03  0.80969351371E+02 0.  0.
          6    2    1    2  501    0 -0.85305869338E+02 -0.38876593167E+02  0.77860151615E+02  0.21070733093E+03  0.17189210354E+03 0.  0.
         24    2    5    5    0    0 -0.32750404066E+02  0.18352341387E+02  0.94812974514E+02  0.13104105146E+03  0.82297385323E+02 0.  0.
          5    1    5    5  501    0 -0.52555465272E+02 -0.57228934554E+02 -0.16952822898E+02  0.79666279469E+02  0.47000000000E+01 0. -1.
        -11    1    6    6    0    0 -0.45773027600E+02  0.42666690185E+02  0.70591654815E+02  0.94333441771E+02  0.00000000000E+00 0.  1.
         12    1    6    6    0    0  0.13022623534E+02 -0.24314348798E+02  0.24221319699E+02  0.36707609690E+02  0.00000000000E+00 0. -1.
         -5    1    3    3    0  503  0.90762921780E+02 -0.20243485774E+02  0.13142626632E+03  0.16106725354E+03  0.47000000000E+01 0.  1.
         13    1    4    4    0    0 -0.36532150271E+02  0.73859709986E+01  0.51414649777E+02  0.63502887987E+02  0.00000000000E+00 0. -1.
        -14    1    4    4    0    0  0.31075097828E+02  0.51734107943E+02  0.14588399620E+03  0.15787406366E+03  0.00000000000E+00 0.  1.
</event>
<event>
12    1  0.1046899E+000  0.4656073E+03  0.7818608E-02  0.1023235E+00
         21   -1    0    0  501  502  0.00000000000E+00  0.00000000000E+00  0.41416668876E+03  0.41416668876E+03  0.00000000000E+00 0.  1.
         21   -1    0    0  502  503 -0.00000000000E+00 -0.00000000000E+00 -0.53036605351E+03  0.53036605351E+03  0.00000000000E+00 0.  1.
         -6    2    1    2    0  503  0.18038350945E+03  0.39312048578E+03 -0.16569458216E+00  0.46560736166E+03  0.17236084517E+03 0.  0.
        -24    2    3    3    0    0  0.62822311739E+02  0.21519892812E+03  0.57579541553E+02  0.24462474200E+03  0.79174738909E+02 0.  0.
          6    2    1    2  501    0 -0.18038350945E+03 -0.39312048578E+03 -0.11603367017E+03  0.47892538061E+03  0.16977567774E+03 0.  0.
         24    2    5    5    0    0 -0.10954009074E+03 -0.13833818259E+03 -0.89226145330E+02  0.21308041567E+03  0.79407016629E+02 0.  0.
          5    1    5    5  501    0 -0.70843418712E+02 -0.25478230319E+03 -0.26807524837E+02  0.26584496493E+03  0.47000000000E+01 0. -1.
        -13    1    6    6    0    0 -0.60194893930E+02 -0.43273166657E+02 -0.72444755505E+00  0.74138498987E+02  0.00000000000E+00 0.  1.
         14    1    6    6    0    0 -0.49345196812E+02 -0.95065015937E+02 -0.88501697774E+02  0.13894191669E+03  0.00000000000E+00 0. -1.
         -5    1    3    3    0  503  0.11756119772E+03  0.17792155767E+03 -0.57745236135E+02  0.22098261965E+03  0.47000000000E+01 0.  1.
         11    1    4    4    0    0  0.22908827702E+02  0.12783755803E+03 -0.50325821327E+01  0.12997146807E+03  0.00000000000E+00 0. -1.
        -12    1    4    4    0    0  0.39913484037E+02  0.87361370085E+02  0.62612123686E+02  0.11465327393E+03  0.00000000000E+00 0.  1.
</event>
<event>
12    1  0.1046899E+000  0.2420808E+03  0.7818608E-02  0.1118445E+00
         21   -1    0    0  503  502  0.00000000000E+00  0.00000000000E+00  0.47143077113E+02  0.47143077113E+02  0.00000000000E+00 0. -1.
         21   -1    0    0  501  503 -0.00000000000E+00 -0.00000000000E+00 -0.13025571980E+04  0.13025571980E+04  0.00000000000E+00 0. -1.
          6    2    1    2  501    0 -0.93675798457E+02  0.14196678192E+03 -0.77330032426E+03  0.81030642611E+03  0.17225965953E+03 0.  0.
         24    2    3    3    0    0 -0.75419469674E+02  0.16551466999E+03 -0.73647924771E+03  0.76270728481E+03  0.78977956511E+02 0.  0.
         -6    2    1    2    0  502  0.93675798457E+02 -0.14196678192E+03 -0.48211379662E+03  0.53939384900E+03  0.17199502627E+03 0.  0.
        -24    2    5    5    0    0  0.88624499420E+02 -0.25990526390E+02 -0.29179204686E+03  0.31641298457E+03  0.80279317610E+02 0.  0.
          5    1    3    3  501    0 -0.18256328783E+02 -0.23547888072E+02 -0.36821076559E+02  0.47599141297E+02  0.47000000000E+01 0. -1.
        -11    1    4    4    0    0  0.46428642213E+01  0.46293935907E+02 -0.10096716622E+03  0.11117127932E+03  0.00000000000E+00 0.  1.
         12    1    4    4    0    0 -0.80062333895E+02  0.11922073409E+03 -0.63551208149E+03  0.65153600550E+03  0.00000000000E+00 0. -1.
         -5    1    5    5    0  502  0.50512990363E+01 -0.11597625553E+03 -0.19032174976E+03  0.22298086443E+03  0.47000000000E+01 0.  1.
         13    1    6    6    0    0 -0.37659417211E+01 -0.25990734923E+02 -0.10201473646E+03  0.10534090883E+03  0.00000000000E+00 0. -1.
        -14    1    6    6    0    0  0.92390441141E+02  0.20853216591E-03 -0.18977731040E+03  0.21107207574E+03  0.00000000000E+00 0.  1.
</event>
<event>
12    1  0.1046899E+000  0.3465797E+03  0.7818608E-02  0.1064032E+00
         21   -1    0    0  501  502  0.00000000000E+00  0.00000000000E+00  0.50666255376E+03  0.50666255376E+03  0.00000000000E+00 0.  1.
         21   -1    0    0  502  503 -0.00000000000E+00 -0.00000000000E+00 -0.25902963334E+03  0.25902963334E+03  0.00000000000E+00 0.  1.
         -6    2    1    2    0  503 -0.21123914074E+02 -0.30022677206E+03  0.23534363598E+03  0.41889465705E+03  0.17176662162E+03 0.  0.
        -24    2    3    3    0    0 -0.79657566621E+01 -0.10232793504E+03  0.16264444499E+03  0.20760256261E+03  0.78173838001E+02 0.  0.
          6    2    1    2  501    0  0.21123914074E+02  0.30022677206E+03  0.12289284436E+02  0.34679753004E+03  0.17185798183E+03 0.  0.
         24    2    5    5    0    0 -0.13807559275E+02  0.23702396613E+03  0.56977870989E+02  0.26174482711E+03  0.94302001683E+02 0.  0.
          5    1    5    5  501    0  0.34931473349E+02  0.63202805935E+02 -0.44688586553E+02  0.85052702935E+02  0.47000000000E+01 0. -1.
        -11    1    6    6    0    0 -0.17278548013E+02  0.21981336637E+02 -0.18825392153E+02  0.33706420330E+02  0.00000000000E+00 0.  1.
         12    1    6    6    0    0  0.34709887378E+01  0.21504262949E+03  0.75803263142E+02  0.22803840678E+03  0.00000000000E+00 0. -1.
         -5    1    3    3    0  503 -0.13158157412E+02 -0.19789883703E+03  0.72699190988E+02  0.21129209444E+03  0.47000000000E+01 0.  1.
         13    1    4    4    0    0  0.18635853597E+02 -0.99601858157E+02  0.13823343297E+03  0.17139517840E+03  0.00000000000E+00 0. -1.
        -14    1    4    4    0    0 -0.26601610259E+02 -0.27260768787E+01  0.24411012020E+02  0.36207384211E+02  0.00000000000E+00 0.  1.
</event>
<event>
12    1  0.1046899E+000  0.2972572E+03  0.7818608E-02  0.1086760E+00
         21   -1    0    0  501  502  0.00000000000E+00  0.00000000000E+00  0.16243785133E+04  0.16243785133E+04  0.00000000000E+00 0.  1.
         21   -1    0    0  502  503 -0.00000000000E+00 -0.00000000000E+00 -0.88460827389E+02  0.88460827389E+02  0.00000000000E+00 0.  1.
         -6    2    1    2    0  503 -0.20155044786E+03 -0.13291930248E+03  0.13018612624E+04  0.13353668417E+04  0.17341202804E+03 0.  0.
        -24    2    3    3    0    0 -0.20812648975E+03 -0.14382207631E+03  0.10497611586E+04  0.10829016617E+04  0.81707364401E+02 0.  0.
          6    2    1    2  501    0  0.20155044786E+03  0.13291930248E+03  0.23405642354E+03  0.37747249898E+03  0.17150205271E+03 0.  0.
         24    2    5    5    0    0  0.21793643383E+02  0.75564823548E+02  0.91879914587E+02  0.14117121945E+03  0.72817505087E+02 0.  0.
          5    1    5    5  501    0  0.17975680448E+03  0.57354478930E+02  0.14217650895E+03  0.23630127953E+03  0.47000000000E+01 0. -1.
        -13    1    6    6    0    0  0.41427986810E+02  0.17908809933E+02  0.49400045911E+02  0.66913138473E+02  0.00000000000E+00 0.  1.
         14    1    6    6    0    0 -0.19634343427E+02  0.57656013615E+02  0.42479868676E+02  0.74258080978E+02  0.00000000000E+00 0. -1.
         -5    1    3    3    0  503  0.65760418904E+01  0.10902773830E+02  0.25210010383E+03  0.25246518008E+03  0.47000000000E+01 0.  1.
         13    1    4    4    0    0 -0.16432667285E+03 -0.14709835741E+03  0.91300468901E+03  0.93926500218E+03  0.00000000000E+00 0. -1.
        -14    1    4    4    0    0 -0.43799816898E+02  0.32762811032E+01  0.13675646957E+03  0.14363665948E+03  0.00000000000E+00 0.  1.
</event>
<event>
12    1  0.1046899E+000  0.1962637E+03  0.7818608E-02  0.1153217E+00
         21   -1    0    0  501  502  0.00000000000E+00  0.00000000000E+00  0.11257397647E+03  0.11257397647E+03  0.00000000000E+00 0.  1.
         21   -1    0    0  502  503 -0.00000000000E+00 -0.00000000000E+00 -0.45478572851E+03  0.45478572851E+03  0.00000000000E+00 0.  1.
         -6    2    1    2    0  503  0.91920131322E+02 -0.21083320755E+02 -0.28938243603E+02  0.19838567192E+03  0.17212099211E+03 0.  0.
        -24    2    3    3    0    0  0.11840562474E+03  0.17105924718E+01  0.13025242513E+02  0.14357629309E+03  0.80135366083E+02 0.  0.
          6    2    1    2  501    0 -0.91920131322E+02  0.21083320755E+02 -0.31327350843E+03  0.36897403306E+03  0.17060987377E+03 0.  0.
         24    2    5    5    0    0 -0.75499282596E+02 -0.39845567211E+02 -0.12936323763E+03  0.17448225594E+03  0.80133635177E+02 0.  0.
          5    1    5    5  501    0 -0.16420848726E+02  0.60928887966E+02 -0.18391027080E+03  0.19449177712E+03  0.47000000000E+01 0. -1.
        -13    1    6    6    0    0 -0.91075034255E+01 -0.47421730625E+02 -0.38859341177E+02  0.61982380970E+02  0.00000000000E+00 0.  1.
         14    1    6    6    0    0 -0.66391779171E+02  0.75761634136E+01 -0.90503896455E+02  0.11249987496E+03  0.00000000000E+00 0. -1.
         -5    1    3    3    0  503 -0.26485493417E+02 -0.22793913227E+02 -0.41963486116E+02  0.54809378839E+02  0.47000000000E+01 0.  1.
         11    1    4    4    0    0  0.50355405298E+02  0.18298565536E+02  0.41698659484E+02  0.67891697181E+02  0.00000000000E+00 0. -1.
        -12    1    4    4    0    0  0.68050219441E+02 -0.16587973064E+02 -0.28673416971E+02  0.75684595904E+02  0.00000000000E+00 0.  1.
</event>
<event>
12    1  0.1046899E+000  0.1818024E+03  0.7818608E-02  0.1166265E+00
         21   -1    0    0  503  502  0.00000000000E+00  0.00000000000E+00  0.47829878795E+03  0.47829878795E+03  0.00000000000E+00 0.  1.
         21   -1    0    0  501  503 -0.00000000000E+00 -0.00000000000E+00 -0.70307953429E+02  0.70307953429E+02  0.00000000000E+00 0.  1.
          6    2    1    2  501    0  0.43815155958E+02  0.39208758348E+02  0.24379548660E+03  0.30363282815E+03  0.17117114366E+03 0.  0.
         24    2    3    3    0    0  0.42292918066E+02 -0.42650072827E+02  0.16134914157E+03  0.18734578993E+03  0.73872727637E+02 0.  0.
         -6    2    1    2    0  502 -0.43815155958E+02 -0.39208758348E+02  0.16419534792E+03  0.24497391322E+03  0.17203200650E+03 0.  0.
        -24    2    5    5    0    0 -0.74347038557E+02 -0.45509829043E+02  0.52183513782E+02  0.12860965611E+03  0.78858720843E+02 0.  0.
          5    1    3    3  501    0  0.15222378921E+01  0.81858831175E+02  0.82446345029E+02  0.11628703822E+03  0.47000000000E+01 0. -1.
        -13    1    4    4    0    0 -0.19877615251E+02 -0.11536074809E+00  0.33051773875E+02  0.38568804136E+02  0.00000000000E+00 0.  1.
         14    1    4    4    0    0  0.62170533317E+02 -0.42534712079E+02  0.12829736770E+03  0.14877698580E+03  0.00000000000E+00 0. -1.
         -5    1    5    5    0  502  0.30531882599E+02  0.63010706957E+01  0.11201183413E+03  0.11636425711E+03  0.47000000000E+01 0.  1.
         13    1    6    6    0    0 -0.49526791696E+02  0.81059377705E+01  0.61784951156E+00  0.50189551312E+02  0.00000000000E+00 0. -1.
        -14    1    6    6    0    0 -0.24820246861E+02 -0.53615766814E+02  0.51565664271E+02  0.78420104801E+02  0.00000000000E+00 0.  1.
</event>
<event>
12    1  0.1046899E+000  0.1797397E+03  0.7818608E-02  0.1173089E+00
         21   -1    0    0  503  502  0.00000000000E+00  0.00000000000E+00  0.38763729851E+02  0.38763729851E+02  0.00000000000E+00 0.  1.
         21   -1    0    0  501  503 -0.00000000000E+00 -0.00000000000E+00 -0.77562173844E+03  0.77562173844E+03  0.00000000000E+00 0.  1.
          6    2    1    2  501    0 -0.33892277526E+02 -0.34193726295E+02 -0.42843905931E+03  0.45741401483E+03  0.15280594238E+03 0.  0.
         24    2    3    3    0    0 -0.34667718924E+02 -0.63597531623E+02 -0.40679790041E+03  0.42059533974E+03  0.78545599923E+02 0.  0.
         -6    2    1    2    0  502  0.33892277526E+02  0.34193726295E+02 -0.30841894928E+03  0.35697145346E+03  0.17317180174E+03 0.  0.
        -24    2    5    5    0    0  0.55514646230E+02 -0.31433125423E+02 -0.12668880470E+03  0.16249177343E+03  0.79269198790E+02 0.  0.
          5    1    3    3  501    0  0.77544139769E+00  0.29403805329E+02 -0.21641158902E+02  0.36818675096E+02  0.47000000000E+01 0. -1.
        -13    1    4    4    0    0 -0.71881827565E+01  0.17395109384E+02 -0.11468122934E+03  0.11621550742E+03  0.00000000000E+00 0.  1.
         14    1    4    4    0    0 -0.27479536167E+02 -0.80992641007E+02 -0.29211667107E+03  0.30437983232E+03  0.00000000000E+00 0. -1.
         -5    1    5    5    0  502 -0.21622368705E+02  0.65626851718E+02 -0.18173014458E+03  0.19447968003E+03  0.47000000000E+01 0.  1.
         13    1    6    6    0    0  0.57929852127E+02 -0.20358367987E+02 -0.36166435379E+02  0.71262486363E+02  0.00000000000E+00 0. -1.
        -14    1    6    6    0    0 -0.24152058969E+01 -0.11074757436E+02 -0.90522369318E+02  0.91229287067E+02  0.00000000000E+00 0.  1.
</event>
<event>
12    1  0.1046899E+000  0.1838901E+03  0.7818608E-02  0.1165346E+00
         21   -1    0    0  501  502  0.00000000000E+00  0.00000000000E+00  0.55131653606E+03  0.55131653606E+03  0.00000000000E+00 0.  1.
         21   -1    0    0  502  503 -0.00000000000E+00 -0.00000000000E+00 -0.81642509166E+02  0.81642509166E+02  0.00000000000E+00 0.  1.
         -6    2    1    2    0  503 -0.53342822543E+02 -0.35732788412E+02  0.39679910895E+03  0.43515526333E+03  0.16669817474E+03 0.  0.
        -24    2    3    3    0    0 -0.76797676393E+02 -0.73027653581E+02  0.28020357737E+03  0.31042497382E+03  0.81355382834E+02 0.  0.
          6    2    1    2  501    0  0.53342822543E+02  0.35732788412E+02  0.72874917949E+02  0.19780378189E+03  0.17231742100E+03 0.  0.
         24    2    5    5    0    0  0.86704555392E+02  0.69181894108E+02  0.58036520643E+02  0.14806329612E+03  0.79061289714E+02 0.  0.
          5    1    5    5  501    0 -0.33361732849E+02 -0.33449105696E+02  0.14838397306E+02  0.49740485775E+02  0.47000000000E+01 0. -1.
        -11    1    6    6    0    0  0.23278238005E+02 -0.14228361933E+02 -0.18966433921E+01  0.27348124324E+02  0.00000000000E+00 0.  1.
         12    1    6    6    0    0  0.63426317388E+02  0.83410256041E+02  0.59933164036E+02  0.12071517180E+03  0.00000000000E+00 0. -1.
         -5    1    3    3    0  503  0.23454853849E+02  0.37294865169E+02  0.11659553158E+03  0.12473028951E+03  0.47000000000E+01 0.  1.
         11    1    4    4    0    0 -0.82570791232E+01 -0.60646563084E+02  0.16267655031E+03  0.17380979544E+03  0.00000000000E+00 0. -1.
        -12    1    4    4    0    0 -0.68540597270E+02 -0.12381090497E+02  0.11752702706E+03  0.13661517839E+03  0.00000000000E+00 0.  1.
</event>
<event>
12    1  0.1046899E+000  0.2048815E+03  0.7818608E-02  0.1145880E+00
         21   -1    0    0  501  502  0.00000000000E+00  0.00000000000E+00  0.22369164325E+03  0.22369164325E+03  0.00000000000E+00 0.  1.
         21   -1    0    0  502  503 -0.00000000000E+00 -0.00000000000E+00 -0.25078476907E+03  0.25078476907E+03  0.00000000000E+00 0.  1.
         -6    2    1    2    0  503  0.56630532061E+02 -0.93550208934E+02 -0.13337120251E+03  0.24367028473E+03  0.17212980929E+03 0.  0.
        -24    2    3    3    0    0  0.61374938222E+02  0.10250976302E+02 -0.68705085243E+02  0.12119174714E+03  0.78071027151E+02 0.  0.
          6    2    1    2  501    0 -0.56630532061E+02  0.93550208934E+02  0.10627807669E+03  0.23080612759E+03  0.17325640016E+03 0.  0.
         24    2    5    5    0    0 -0.26151354313E+01  0.12056699846E+03  0.70006259308E+02  0.16019943722E+03  0.78865349123E+02 0.  0.
          5    1    5    5  501    0 -0.54015396629E+02 -0.27016789523E+02  0.36271817385E+02  0.70606690374E+02  0.47000000000E+01 0. -1.
        -11    1    6    6    0    0  0.36239138934E+01  0.41667373438E+02 -0.14642544716E+02  0.44313732374E+02  0.00000000000E+00 0.  1.
         12    1    6    6    0    0 -0.62390493248E+01  0.78899625020E+02  0.84648804023E+02  0.11588570484E+03  0.00000000000E+00 0. -1.
         -5    1    3    3    0  503 -0.47444061612E+01 -0.10380118524E+03 -0.64666117269E+02  0.12247853758E+03  0.47000000000E+01 0.  1.
         11    1    4    4    0    0  0.37567687414E+02  0.31124290039E+02 -0.37486482251E+01  0.48929591574E+02  0.00000000000E+00 0. -1.
        -12    1    4    4    0    0  0.23807250808E+02 -0.20873313738E+02 -0.64956437018E+02  0.72262155569E+02  0.00000000000E+00 0.  1.
</event>
<event>
12    1  0.1046899E+000  0.1979225E+03  0.7818608E-02  0.1151514E+00
         21   -1    0    0  501  502  0.00000000000E+00  0.00000000000E+00  0.60596130641E+02  0.60596130641E+02  0.00000000000E+00 0. -1.
         21   -1    0    0  502  503 -0.00000000000E+00 -0.00000000000E+00 -0.90111305289E+03  0.90111305289E+03  0.00000000000E+00 0. -1.
         -6    2    1    2    0  503  0.95095704933E+02 -0.23884684791E+02 -0.67599041968E+03  0.70436946847E+03  0.17192914047E+03 0.  0.
        -24    2    3    3    0    0  0.91177361078E+02 -0.41449669809E+02 -0.67349945685E+03  0.68560308861E+03  0.80116729985E+02 0.  0.
          6    2    1    2  501    0 -0.95095704933E+02  0.23884684791E+02 -0.16452650257E+03  0.25733971507E+03  0.17187520949E+03 0.  0.
         24    2    5    5    0    0 -0.69884706129E+02  0.78170052116E+02 -0.14265805902E+03  0.19344281068E+03  0.77938244804E+02 0.  0.
          5    1    5    5  501    0 -0.25210998804E+02 -0.54285367325E+02 -0.21868443547E+02  0.63896904381E+02  0.47000000000E+01 0. -1.
        -13    1    6    6    0    0 -0.38576151817E+02  0.15022986014E+02 -0.10642349050E+03  0.11419180762E+03  0.00000000000E+00 0.  1.
         14    1    6    6    0    0 -0.31308554312E+02  0.63147066103E+02 -0.36234568521E+02  0.79251003062E+02  0.00000000000E+00 0. -1.
         -5    1    3    3    0  503  0.39183438545E+01  0.17564985018E+02 -0.24909628272E+01  0.18766379860E+02  0.47000000000E+01 0.  1.
         11    1    4    4    0    0  0.42568082186E+02 -0.62137726727E+02 -0.40966652060E+03  0.41653306808E+03  0.00000000000E+00 0. -1.
        -12    1    4    4    0    0  0.48609278892E+02  0.20688056918E+02 -0.26383293626E+03  0.26907002053E+03  0.00000000000E+00 0.  1.
</event>
<event>
12    1  0.1046899E+000  0.1815561E+03  0.7818608E-02  0.1166734E+00
         21   -1    0    0  503  502  0.00000000000E+00  0.00000000000E+00  0.36505672760E+03  0.36505672760E+03  0.00000000000E+00 0. -1.
         21   -1    0    0  501  503 -0.00000000000E+00 -0.00000000000E+00 -0.10381017263E+03  0.10381017263E+03  0.00000000000E+00 0. -1.
          6    2    1    2  501    0 -0.31175128838E+02  0.39581255381E+02  0.43867985292E+02  0.18678067379E+03  0.17442492807E+03 0.  0.
         24    2    3    3    0    0 -0.78833928001E+02  0.38806658366E+02  0.61989965711E+02  0.13557074006E+03  0.82558614167E+02 0.  0.
         -6    2    1    2    0  502  0.31175128838E+02 -0.39581255381E+02  0.21737856967E+03  0.28208622644E+03  0.17257065845E+03 0.  0.
        -24    2    5    5    0    0  0.17220110148E+01  0.36868863204E+02  0.15727461764E+03  0.18036758591E+03  0.80217718097E+02 0.  0.
          5    1    3    3  501    0  0.47658799163E+02  0.77459701487E+00 -0.18121980419E+02  0.51209933729E+02  0.47000000000E+01 0. -1.
        -13    1    4    4    0    0 -0.17183744779E+02  0.46648203931E+02  0.28698237333E+01  0.49795300008E+02  0.00000000000E+00 0.  1.
         14    1    4    4    0    0 -0.61650183222E+02 -0.78415455651E+01  0.59120141978E+02  0.85775440049E+02  0.00000000000E+00 0. -1.
         -5    1    5    5    0  502  0.29453117823E+02 -0.76450118584E+02  0.60103952031E+02  0.10171864053E+03  0.47000000000E+01 0.  1.
         11    1    6    6    0    0 -0.39000393857E+02  0.22077068169E+02  0.74529083906E+02  0.86965579443E+02  0.00000000000E+00 0. -1.
        -12    1    6    6    0    0  0.40722404872E+02  0.14791795035E+02  0.82745533738E+02  0.93402006469E+02  0.00000000000E+00 0.  1.
</event>
<event>
12    1  0.1046899E+000  0.1883283E+03  0.7818608E-02  0.1161064E+00
         21   -1    0    0  503  502  0.00000000000E+00  0.00000000000E+00  0.41779808349E+03  0.41779808349E+03  0.00000000000E+00 0.  1.
         21   -1    0    0  501  503 -0.00000000000E+00 -0.00000000000E+00 -0.92062946634E+02  0.92062946634E+02  0.00000000000E+00 0.  1.
          6    2    1    2  501    0  0.63424466932E+02  0.40460657137E+02  0.24562982451E+03  0.30951825781E+03  0.17264939458E+03 0.  0.
         24    2    3    3    0    0 -0.11593455476E+02 -0.23787160598E+02  0.15024043393E+03  0.17212576675E+03  0.79717340472E+02 0.  0.
         -6    2    1    2    0  502 -0.63424466932E+02 -0.40460657137E+02  0.80105312350E+02  0.20034277231E+03  0.16751309671E+03 0.  0.
        -24    2    5    5    0    0 -0.79457873327E+02 -0.75449066785E+02  0.88465530708E+02  0.16067865526E+03  0.77365139575E+02 0.  0.
          5    1    3    3  501    0  0.75017922408E+02  0.64247817735E+02  0.95389390577E+02  0.13739249106E+03  0.47000000000E+01 0. -1.
        -13    1    4    4    0    0 -0.15602156054E+02  0.80531019570E+01  0.13580780599E+03  0.13693808781E+03  0.00000000000E+00 0.  1.
         14    1    4    4    0    0  0.40087005780E+01 -0.31840262555E+02  0.14432627940E+02  0.35187678939E+02  0.00000000000E+00 0. -1.
         -5    1    5    5    0  502  0.16033406395E+02  0.34988409648E+02 -0.83602183585E+01  0.39664117050E+02  0.47000000000E+01 0.  1.
         13    1    6    6    0    0 -0.58633006632E+02 -0.47449637376E+02  0.11667154284E+02  0.76324439355E+02  0.00000000000E+00 0. -1.
        -14    1    6    6    0    0 -0.20824866695E+02 -0.27999429409E+02  0.76798376425E+02  0.84354215909E+02  0.00000000000E+00 0.  1.
</event>
<event>
12    1  0.1046899E+000  0.3413222E+03  0.7818608E-02  0.1066259E+00
         21   -1    0    0  503  502  0.00000000000E+00  0.00000000000E+00  0.24020501785E+03  0.24020501785E+03  0.00000000000E+00 0.  1.
         21   -1    0    0  501  503 -0.00000000000E+00 -0.00000000000E+00 -0.59939285115E+03  0.59939285115E+03  0.00000000000E+00 0. -1.
          6    2    1    2  501    0 -0.19446934011E+03  0.22081778963E+03 -0.36319903415E+03  0.49825213100E+03  0.17251906324E+03 0.  0.
         24    2    3    3    0    0 -0.17425757062E+03  0.19367865050E+03 -0.21825844887E+03  0.34933970117E+03  0.80773484071E+02 0.  0.
         -6    2    1    2    0  502  0.19446934011E+03 -0.22081778963E+03  0.40112008435E+01  0.34134573799E+03  0.17297977527E+03 0.  0.
        -24    2    5    5    0    0  0.80967427790E+02 -0.34502144914E+02  0.53087514302E+01  0.12312571782E+03  0.85939729927E+02 0.  0.
          5    1    3    3  501    0 -0.20211769489E+02  0.27139139128E+02 -0.14494058528E+03  0.14891242983E+03  0.47000000000E+01 0. -1.
        -11    1    4    4    0    0 -0.11508822568E+03  0.67566909102E+02 -0.10549164048E+03  0.17011488209E+03  0.00000000000E+00 0.  1.
         12    1    4    4    0    0 -0.59169344939E+02  0.12611174140E+03 -0.11276680839E+03  0.17922481908E+03  0.00000000000E+00 0. -1.
         -5    1    5    5    0  502  0.11350191232E+03 -0.18631564472E+03 -0.12975505866E+01  0.21822002018E+03  0.47000000000E+01 0.  1.
         13    1    6    6    0    0  0.99264117688E+02 -0.31269471523E+02  0.78700792318E+01  0.10436993368E+03  0.00000000000E+00 0. -1.
        -14    1    6    6    0    0 -0.18296689898E+02 -0.32326733905E+01 -0.25613278016E+01  0.18755784136E+02  0.00000000000E+00 0.  1.
</event>
<event>
12    1  0.1046899E+000  0.1864567E+03  0.7818608E-02  0.1162059E+00
         21   -1    0    0  501  502  0.00000000000E+00  0.00000000000E+00  0.14212573620E+03  0.14212573620E+03  0.00000000000E+00 0. -1.
         21   -1    0    0  502  503 -0.00000000000E+00 -0.00000000000E+00 -0.26840017541E+03  0.26840017541E+03  0.00000000000E+00 0. -1.
         -6    2    1    2    0  503 -0.67797975887E+02  0.49398133204E+01  0.77876842654E+00  0.18489655653E+03  0.17194523212E+03 0.  0.
        -24    2    3    3    0    0 -0.32309255978E+02 -0.29420767697E+02  0.59864301357E+02  0.10773899715E+03  0.78195187421E+02 0.  0.
          6    2    1    2  501    0  0.67797975887E+02 -0.49398133204E+01 -0.12705320764E+03  0.22562935508E+03  0.17362350363E+03 0.  0.
         24    2    5    5    0    0  0.54026692364E+02  0.29381624853E+02 -0.15032046886E+03  0.18168547254E+03  0.81432206203E+02 0.  0.
          5    1    5    5  501    0  0.13771283523E+02 -0.34321438173E+02  0.23267261221E+02  0.43943882542E+02  0.47000000000E+01 0. -1.
        -11    1    6    6    0    0  0.28008537237E+02  0.35525909324E+02 -0.21441611226E+02  0.50063071054E+02  0.00000000000E+00 0.  1.
         12    1    6    6    0    0  0.26018155126E+02 -0.61442844710E+01 -0.12887885763E+03  0.13162240149E+03  0.00000000000E+00 0. -1.
         -5    1    3    3    0  503 -0.35488719909E+02  0.34360581017E+02 -0.59085532930E+02  0.77157559385E+02  0.47000000000E+01 0.  1.
         13    1    4    4    0    0 -0.55654170298E+02 -0.30337611172E+02  0.30869898396E+02  0.70503247798E+02  0.00000000000E+00 0. -1.
        -14    1    4    4    0    0  0.23344914320E+02  0.91684347499E+00  0.28994402961E+02  0.37235749350E+02  0.00000000000E+00 0.  1.
</event>
<event>
12    1  0.1046899E+000  0.2032822E+03  0.7818608E-02  0.1147438E+00
         21   -1    0    0  503  502  0.00000000000E+00  0.00000000000E+00  0.26606551796E+03  0.26606551796E+03  0.00000000000E+00 0.  1.
         21   -1    0    0  501  503 -0.00000000000E+00 -0.00000000000E+00 -0.15885800221E+03  0.15885800221E+03  0.00000000000E+00 0.  1.
          6    2    1    2  501    0  0.80241110103E+02 -0.67818030369E+02  0.92145435455E+02  0.22319151348E+03  0.17402801332E+03 0.  0.
         24    2    3    3    0    0  0.99644991343E+02 -0.88388776062E+02  0.35436899813E+02  0.15964928972E+03  0.80563154147E+02 0.  0.
         -6    2    1    2    0  502 -0.80241110103E+02  0.67818030369E+02  0.15062080293E+02  0.20173200669E+03  0.17155470051E+03 0.  0.
        -24    2    5    5    0    0 -0.27592417925E+02  0.82702936443E+02 -0.39444358386E+02  0.12435961450E+03  0.79425053262E+02 0.  0.
          5    1    3    3  501    0 -0.19403881240E+02  0.20570745693E+02  0.56708535641E+02  0.63542223758E+02  0.47000000000E+01 0. -1.
        -11    1    4    4    0    0 -0.98703604332E+01  0.55603029524E+01  0.15751036260E+01  0.11437741710E+02  0.00000000000E+00 0.  1.
         12    1    4    4    0    0  0.10951535178E+03 -0.93949079014E+02  0.33861796187E+02  0.14821154801E+03  0.00000000000E+00 0. -1.
         -5    1    5    5    0  502 -0.52648692178E+02 -0.14884906074E+02  0.54506438678E+02  0.77372392197E+02  0.47000000000E+01 0.  1.
         11    1    6    6    0    0 -0.29000882120E+02  0.94770252187E+02 -0.19503344743E+02  0.10100907048E+03  0.00000000000E+00 0. -1.
        -12    1    6    6    0    0  0.14084641952E+01 -0.12067315744E+02 -0.19941013642E+02  0.23350544014E+02  0.00000000000E+00 0.  1.
</event>
<event>
12    1  0.1046899E+000  0.2351256E+03  0.7818608E-02  0.1123224E+00
         21   -1    0    0  503  502  0.00000000000E+00  0.00000000000E+00  0.15332904574E+04  0.15332904574E+04  0.00000000000E+00 0.  1.
         21   -1    0    0  501  503 -0.00000000000E+00 -0.00000000000E+00 -0.43141218229E+02  0.43141218229E+02  0.00000000000E+00 0. -1.
          6    2    1    2  501    0 -0.92227459810E+02 -0.13127129483E+03  0.42389908021E+03  0.48474166348E+03  0.17188947880E+03 0.  0.
         24    2    3    3    0    0 -0.36853533978E+02 -0.12134023713E+02  0.94312533745E+02  0.12990459856E+03  0.80466969667E+02 0.  0.
         -6    2    1    2    0  502  0.92227459810E+02  0.13127129483E+03  0.10662501589E+04  0.10916900121E+04  0.17076189255E+03 0.  0.
        -24    2    5    5    0    0 -0.14837206072E+02  0.46625088279E+02  0.53227606575E+03  0.54052919607E+03  0.80373876892E+02 0.  0.
          5    1    3    3  501    0 -0.55373925832E+02 -0.11913727112E+03  0.32958654646E+03  0.35483706492E+03  0.47000000000E+01 0. -1.
        -13    1    4    4    0    0 -0.21286721786E+02 -0.22556304920E+02  0.10420282402E+03  0.10872046702E+03  0.00000000000E+00 0.  1.
         14    1    4    4    0    0 -0.15566812192E+02  0.10422281207E+02 -0.98902902724E+01  0.21184131538E+02  0.00000000000E+00 0. -1.
         -5    1    5    5    0  502  0.10706466588E+03  0.84646206554E+02  0.53397409319E+03  0.55116081606E+03  0.47000000000E+01 0.  1.
         11    1    6    6    0    0  0.11467338485E+02 -0.17534186647E+02  0.69575534241E+02  0.72661561490E+02  0.00000000000E+00 0. -1.
        -12    1    6    6    0    0 -0.26304544557E+02  0.64159274925E+02  0.46270053151E+03  0.46786763458E+03  0.00000000000E+00 0.  1.
</event>
<event>
12    1  0.1046899E+000  0.3037106E+03  0.7818608E-02  0.1085174E+00
         21   -1    0    0  503  502  0.00000000000E+00  0.00000000000E+00  0.10850858576E+04  0.10850858576E+04  0.00000000000E+00 0.  1.
         21   -1    0    0  501  503 -0.00000000000E+00 -0.00000000000E+00 -0.35552129513E+03  0.35552129513E+03  0.00000000000E+00 0. -1.
          6    2    1    2  501    0 -0.22106753563E+03  0.75020764286E+02 -0.26996356719E+03  0.39595571852E+03  0.17146904395E+03 0.  0.
         24    2    3    3    0    0 -0.12011578519E+03  0.52234474481E+02 -0.69165418524E+02  0.17000780986E+03  0.83441944586E+02 0.  0.
         -6    2    1    2    0  502  0.22106753563E+03 -0.75020764286E+02  0.99952812965E+03  0.10446514342E+04  0.19427085891E+03 0.  0.
        -24    2    5    5    0    0  0.17959690222E+03 -0.11093995272E+03  0.92393778439E+03  0.95113142655E+03  0.80170073970E+02 0.  0.
          5    1    3    3  501    0 -0.10095175044E+03  0.22786289806E+02 -0.20079814867E+03  0.22594790866E+03  0.47000000000E+01 0. -1.
        -11    1    4    4    0    0 -0.16831004088E+02  0.44948574606E+02 -0.39885540700E+02  0.62406036684E+02  0.00000000000E+00 0.  1.
         12    1    4    4    0    0 -0.10328478110E+03  0.72858998746E+01 -0.29279877824E+02  0.10760177317E+03  0.00000000000E+00 0. -1.
         -5    1    5    5    0  502  0.41470633412E+02  0.35919188431E+02  0.75590345266E+02  0.93520007648E+02  0.47000000000E+01 0.  1.
         13    1    6    6    0    0  0.16278951063E+03 -0.11420842807E+03  0.73520392299E+03  0.76162247747E+03  0.00000000000E+00 0. -1.
        -14    1    6    6    0    0  0.16807391593E+02  0.32684753481E+01  0.18873386140E+03  0.18950894908E+03  0.00000000000E+00 0.  1.
</event>
<event>
12    1  0.1046899E+000  0.2171954E+03  0.7818608E-02  0.1136208E+00
         21   -1    0    0  503  502  0.00000000000E+00  0.00000000000E+00  0.45642932088E+03  0.45642932088E+03  0.00000000000E+00 0.  1.
         21   -1    0    0  501  503 -0.00000000000E+00 -0.00000000000E+00 -0.31496362425E+03  0.31496362425E+03  0.00000000000E+00 0. -1.
          6    2    1    2  501    0  0.10417960226E+03 -0.81360617171E+02  0.38721868555E+03  0.44341676734E+03  0.17090108123E+03 0.  0.
         24    2    3    3    0    0  0.13864544261E+03 -0.64619749565E+02  0.27090090475E+03  0.32086038468E+03  0.78522706756E+02 0.  0.
         -6    2    1    2    0  502 -0.10417960226E+03  0.81360617171E+02 -0.24575298892E+03  0.32797617779E+03  0.17233949658E+03 0.  0.
        -24    2    5    5    0    0 -0.91338693671E+02 -0.28176826463E+00 -0.19984438436E+03  0.23331859486E+03  0.78466250017E+02 0.  0.
          5    1    3    3  501    0 -0.34465840350E+02 -0.16740867606E+02  0.11631778081E+03  0.12255638266E+03  0.47000000000E+01 0. -1.
        -13    1    4    4    0    0  0.37747771629E+02 -0.57873835379E+02  0.13273227038E+03  0.14964000362E+03  0.00000000000E+00 0.  1.
         14    1    4    4    0    0  0.10089767098E+03 -0.67459141862E+01  0.13816863437E+03  0.17122038106E+03  0.00000000000E+00 0. -1.
         -5    1    5    5    0  502 -0.12840908586E+02  0.81642385436E+02 -0.45908604552E+02  0.94657582923E+02  0.47000000000E+01 0.  1.
         13    1    6    6    0    0 -0.32948738862E+02 -0.17511118573E+02 -0.15019657043E+03  0.15476197348E+03  0.00000000000E+00 0. -1.
        -14    1    6    6    0    0 -0.58389954809E+02  0.17229350309E+02 -0.49647813934E+02  0.78556621383E+02  0.00000000000E+00 0.  1.
</event>
<event>
12    1  0.1046899E+000  0.3080157E+03  0.7818608E-02  0.1081303E+00
         21   -1    0    0  501  502  0.00000000000E+00  0.00000000000E+00  0.14944417441E+03  0.14944417441E+03  0.00000000000E+00 0. -1.
         21   -1    0    0  502  503 -0.00000000000E+00 -0.00000000000E+00 -0.68984737839E+03  0.68984737839E+03  0.00000000000E+00 0.  1.
         -6    2    1    2    0  503 -0.18597792985E+03  0.17581031014E+03 -0.15165021231E+03  0.34330513035E+03  0.17135801729E+03 0.  0.
        -24    2    3    3    0    0 -0.17622389040E+03  0.16508009279E+03 -0.78643565223E+02  0.26872403778E+03  0.87872074908E+02 0.  0.
          6    2    1    2  501    0  0.18597792985E+03 -0.17581031014E+03 -0.38875299167E+03  0.49598642245E+03  0.17139599523E+03 0.  0.
         24    2    5    5    0    0  0.19804282398E+02 -0.69821487226E+02 -0.15390611707E+03  0.18935560828E+03  0.83073484549E+02 0.  0.
          5    1    5    5  501    0  0.16617364746E+03 -0.10598882291E+03 -0.23484687459E+03  0.30663081417E+03  0.47000000000E+01 0. -1.
        -13    1    6    6    0    0  0.17881208007E+02 -0.18416980546E+02  0.14442445379E+01  0.25710087796E+02  0.00000000000E+00 0.  1.
         14    1    6    6    0    0  0.19230743915E+01 -0.51404506681E+02 -0.15535036161E+03  0.16364552048E+03  0.00000000000E+00 0. -1.
         -5    1    3    3    0  503 -0.97540394520E+01  0.10730217354E+02 -0.73006647085E+02  0.74581092568E+02  0.47000000000E+01 0.  1.
         11    1    4    4    0    0 -0.83486115804E+02  0.43656213841E+02 -0.66775374723E+02  0.11547617593E+03  0.00000000000E+00 0. -1.
        -12    1    4    4    0    0 -0.92737774598E+02  0.12142387894E+03 -0.11868190500E+02  0.15324786185E+03  0.00000000000E+00 0.  1.
</event>
<event>
12    1  0.1046899E+000  0.2679009E+03  0.7818608E-02  0.1102494E+00
         21   -1    0    0  501  502  0.00000000000E+00  0.00000000000E+00  0.77619791710E+02  0.77619791710E+02  0.00000000000E+00 0.  1.
         21   -1    0    0  502  503 -0.00000000000E+00 -0.00000000000E+00 -0.92517549965E+03  0.92517549965E+03  0.00000000000E+00 0.  1.
         -6    2    1    2    0  503 -0.13644021106E+02  0.20614136987E+03 -0.40999506102E+03  0.48973564837E+03  0.17048352279E+03 0.  0.
        -24    2    3    3    0    0  0.14935387836E+02  0.45437792765E+02 -0.79841606998E+02  0.12140724122E+03  0.77957534546E+02 0.  0.
          6    2    1    2  501    0  0.13644021106E+02 -0.20614136987E+03 -0.43756064692E+03  0.51305964299E+03  0.17055923853E+03 0.  0.
         24    2    5    5    0    0 -0.33838794207E+02 -0.20202328058E+03 -0.37589163982E+03  0.43497806484E+03  0.77155182042E+02 0.  0.
          5    1    5    5  501    0  0.47482815313E+02 -0.41180892858E+01 -0.61669007103E+02  0.78081578150E+02  0.47000000000E+01 0. -1.
        -11    1    6    6    0    0 -0.27542107546E+02 -0.18939597576E+02 -0.37904023785E+02  0.50537026659E+02  0.00000000000E+00 0.  1.
         12    1    6    6    0    0 -0.62966866611E+01 -0.18308368301E+03 -0.33798761603E+03  0.38444103818E+03  0.00000000000E+00 0. -1.
         -5    1    3    3    0  503 -0.28579408942E+02  0.16070357710E+03 -0.33015345402E+03  0.36832840714E+03  0.47000000000E+01 0.  1.
         11    1    4    4    0    0 -0.12098556634E+02  0.56552977444E+02 -0.34140094650E+02  0.67157727724E+02  0.00000000000E+00 0. -1.
        -12    1    4    4    0    0  0.27033944470E+02 -0.11115184679E+02 -0.45701512349E+02  0.54249513500E+02  0.00000000000E+00 0.  1.
</event>
<event>
12    1  0.1046899E+000  0.6921459E+03  0.7818608E-02  0.9730946E-01
         21   -1    0    0  503  502  0.00000000000E+00  0.00000000000E+00  0.10281974007E+04  0.10281974007E+04  0.00000000000E+00 0.  1.
         21   -1    0    0  501  503 -0.00000000000E+00 -0.00000000000E+00 -0.51025474347E+03  0.51025474347E+03  0.00000000000E+00 0.  1.
          6    2    1    2  501    0  0.66165277492E+03 -0.10594587713E+03  0.31580474069E+02  0.69286597799E+03  0.17336958695E+03 0.  0.
         24    2    3    3    0    0  0.49796919820E+03 -0.10064145881E+03 -0.36212802640E+02  0.51555701458E+03  0.79910215975E+02 0.  0.
         -6    2    1    2    0  502 -0.66165277492E+03  0.10594587713E+03  0.48636218320E+03  0.84558616621E+03  0.17163585815E+03 0.  0.
        -24    2    5    5    0    0 -0.53543506286E+03  0.13440021749E+03  0.35462301940E+03  0.66087596725E+03  0.79028053214E+02 0.  0.
          5    1    3    3  501    0  0.16368357672E+03 -0.53044183240E+01  0.67793276709E+02  0.17730896341E+03  0.47000000000E+01 0. -1.
        -13    1    4    4    0    0  0.11913784774E+03 -0.30434782176E+02 -0.42855322683E+02  0.13021782295E+03  0.00000000000E+00 0.  1.
         14    1    4    4    0    0  0.37883135046E+03 -0.70206676633E+02  0.66425200430E+01  0.38533919163E+03  0.00000000000E+00 0. -1.
         -5    1    5    5    0  502 -0.12621771206E+03 -0.28454340362E+02  0.13173916380E+03  0.18471019896E+03  0.47000000000E+01 0.  1.
         13    1    6    6    0    0 -0.42488832394E+03  0.83569982274E+02  0.30404181475E+03  0.52910816935E+03  0.00000000000E+00 0. -1.
        -14    1    6    6    0    0 -0.11054673893E+03  0.50830235221E+02  0.50581204648E+02  0.13176779790E+03  0.00000000000E+00 0.  1.
</event>
<event>
12    1  0.1046899E+000  0.2009287E+03  0.7818608E-02  0.1149476E+00
         21   -1    0    0  503  502  0.00000000000E+00  0.00000000000E+00  0.48113004056E+03  0.48113004056E+03  0.00000000000E+00 0.  1.
         21   -1    0    0  501  503 -0.00000000000E+00 -0.00000000000E+00 -0.11537699127E+03  0.11537699127E+03  0.00000000000E+00 0.  1.
          6    2    1    2  501    0 -0.40574593492E+02  0.91675403610E+02  0.34033065734E+03  0.39397646985E+03  0.17129455687E+03 0.  0.
         24    2    3    3    0    0 -0.40448669128E+02  0.11238714727E+02  0.27509066747E+03  0.29030186808E+03  0.82691569934E+02 0.  0.
         -6    2    1    2    0  502  0.40574593492E+02 -0.91675403610E+02  0.25422391956E+02  0.20253056198E+03  0.17413113811E+03 0.  0.
        -24    2    5    5    0    0 -0.31231947038E+02 -0.70174122124E+02  0.51645075732E+02  0.12298055561E+03  0.80976300726E+02 0.  0.
          5    1    3    3  501    0 -0.12592436353E+00  0.80436688883E+02  0.65239989866E+02  0.10367460177E+03  0.47000000000E+01 0. -1.
        -13    1    4    4    0    0  0.91934977308E+00  0.31322583095E+02  0.19856368806E+03  0.20102111240E+03  0.00000000000E+00 0.  1.
         14    1    4    4    0    0 -0.41368018902E+02 -0.20083868368E+02  0.76526979410E+02  0.89280755676E+02  0.00000000000E+00 0. -1.
         -5    1    5    5    0  502  0.71806540530E+02 -0.21501281487E+02 -0.26222683776E+02  0.79550006366E+02  0.47000000000E+01 0.  1.
         11    1    6    6    0    0 -0.30786498652E+02 -0.74597122002E+02  0.68311919482E+02  0.10573106191E+03  0.00000000000E+00 0. -1.
        -12    1    6    6    0    0 -0.44544838557E+00  0.44229998784E+01 -0.16666843750E+02  0.17249493696E+02  0.00000000000E+00 0.  1.
</event>
<event>
12    1  0.1046899E+000  0.2045160E+03  0.7818608E-02  0.1146308E+00
         21   -1    0    0  503  502  0.00000000000E+00  0.00000000000E+00  0.12408163001E+03  0.12408163001E+03  0.00000000000E+00 0. -1.
         21   -1    0    0  501  503 -0.00000000000E+00 -0.00000000000E+00 -0.33494869215E+03  0.33494869215E+03  0.00000000000E+00 0. -1.
          6    2    1    2  501    0  0.10919516507E+03 -0.33257103236E+01 -0.97454042664E+02  0.22654822606E+03  0.17289350444E+03 0.  0.
         24    2    3    3    0    0  0.22953974341E+02  0.52642212859E+02 -0.29716852849E+02  0.10333958884E+03  0.80609501702E+02 0.  0.
         -6    2    1    2    0  502 -0.10919516507E+03  0.33257103236E+01 -0.11341301948E+03  0.23248209610E+03  0.17102855784E+03 0.  0.
        -24    2    5    5    0    0 -0.60034999342E+02  0.56982649259E+02 -0.24733868461E+02  0.11766976743E+03  0.79894846234E+02 0.  0.
          5    1    3    3  501    0  0.86241190728E+02 -0.55967923183E+02 -0.67737189816E+02  0.12320863723E+03  0.47000000000E+01 0. -1.
        -11    1    4    4    0    0  0.24055288670E+02 -0.16755865210E+02 -0.54859999076E+01  0.29824689888E+02  0.00000000000E+00 0.  1.
         12    1    4    4    0    0 -0.11013143297E+01  0.69398078069E+02 -0.24230852941E+02  0.73514898947E+02  0.00000000000E+00 0. -1.
         -5    1    5    5    0  502 -0.49160165727E+02 -0.53656938935E+02 -0.88679151016E+02  0.11481232867E+03  0.47000000000E+01 0.  1.
         13    1    6    6    0    0 -0.54918603594E+02  0.76282644211E+02 -0.14096589638E+02  0.95046350104E+02  0.00000000000E+00 0. -1.
        -14    1    6    6    0    0 -0.51163957478E+01 -0.19299994953E+02 -0.10637278823E+02  0.22623417323E+02  0.00000000000E+00 0.  1.
</event>
<event>
12    1  0.1046899E+000  0.2412734E+03  0.7818608E-02  0.1119002E+00
         21   -1    0    0  501  502  0.00000000000E+00  0.00000000000E+00  0.27274035098E+03  0.27274035098E+03  0.00000000000E+00 0. -1.
         21   -1    0    0  502  503 -0.00000000000E+00 -0.00000000000E+00 -0.29545363374E+03  0.29545363374E+03  0.00000000000E+00 0. -1.
         -6    2    1    2    0  503  0.63621947949E+02  0.15674239423E+03  0.13859945648E+03  0.27796192146E+03  0.17157240465E+03 0.  0.
        -24    2    3    3    0    0  0.26267058985E+02  0.17517065954E+03  0.13835089613E+03  0.23604366202E+03  0.72117415167E+02 0.  0.
          6    2    1    2  501    0 -0.63621947949E+02 -0.15674239423E+03 -0.16131273923E+03  0.29023206326E+03  0.17203755490E+03 0.  0.
         24    2    5    5    0    0  0.28430705390E+02 -0.97925435821E+02 -0.11244069891E+03  0.17046691011E+03  0.77578094090E+02 0.  0.
          5    1    5    5  501    0 -0.92052653339E+02 -0.58816958405E+02 -0.48872040321E+02  0.11976515315E+03  0.47000000000E+01 0. -1.
        -11    1    6    6    0    0 -0.26221741742E+02 -0.27429224936E+02 -0.43539903106E+02  0.57755218665E+02  0.00000000000E+00 0.  1.
         12    1    6    6    0    0  0.54652447132E+02 -0.70496210885E+02 -0.68900795802E+02  0.11271169145E+03  0.00000000000E+00 0. -1.
         -5    1    3    3    0  503  0.37354888964E+02 -0.18428265313E+02  0.24856034606E+00  0.41918259437E+02  0.47000000000E+01 0.  1.
         13    1    4    4    0    0 -0.17207875571E+02  0.85200610701E+02  0.39459175156E+02  0.95458271247E+02  0.00000000000E+00 0. -1.
        -14    1    4    4    0    0  0.43474934556E+02  0.89970048839E+02  0.98891720974E+02  0.14058539078E+03  0.00000000000E+00 0.  1.
</event>
<event>
12    1  0.1046899E+000  0.1754847E+03  0.7818608E-02  0.1172324E+00
         21   -1    0    0  503  502  0.00000000000E+00  0.00000000000E+00  0.36665194179E+02  0.36665194179E+02  0.00000000000E+00 0.  1.
         21   -1    0    0  501  503 -0.00000000000E+00 -0.00000000000E+00 -0.87601880204E+03  0.87601880204E+03  0.00000000000E+00 0.  1.
          6    2    1    2  501    0 -0.43507164945E+01  0.37328524964E+02 -0.51389208829E+03  0.54292720157E+03  0.17109213974E+03 0.  0.
         24    2    3    3    0    0 -0.19540886449E+02 -0.38629032102E+02 -0.35279053914E+03  0.36410860388E+03  0.78992800615E+02 0.  0.
         -6    2    1    2    0  502  0.43507164945E+01 -0.37328524964E+02 -0.32546151957E+03  0.36975679466E+03  0.17141335702E+03 0.  0.
        -24    2    5    5    0    0 -0.26812105147E+02 -0.12068931811E+02 -0.31799236334E+03  0.32868311946E+03  0.77774685999E+02 0.  0.
          5    1    3    3  501    0  0.15190169955E+02  0.75957557065E+02 -0.16110154915E+03  0.17881859769E+03  0.47000000000E+01 0. -1.
        -11    1    4    4    0    0  0.27005635972E+02 -0.26083427218E+02 -0.10117924159E+03  0.10792075091E+03  0.00000000000E+00 0.  1.
         12    1    4    4    0    0 -0.46546522421E+02 -0.12545604883E+02 -0.25161129755E+03  0.25618785297E+03  0.00000000000E+00 0. -1.
         -5    1    5    5    0  502  0.31162821642E+02 -0.25259593152E+02 -0.74691562322E+01  0.41073675191E+02  0.47000000000E+01 0.  1.
         11    1    6    6    0    0  0.51394720060E+01 -0.37496319884E+02 -0.10049002202E+03  0.10738078368E+03  0.00000000000E+00 0. -1.
        -12    1    6    6    0    0 -0.31951577153E+02  0.25427388072E+02 -0.21750234131E+03  0.22130233578E+03  0.00000000000E+00 0.  1.
</event>
<event>
12    1  0.1046899E+000  0.2466261E+03  0.7818608E-02  0.1115931E+00
         21   -1    0    0  503  502  0.00000000000E+00  0.00000000000E+00  0.15323077818E+03  0.15323077818E+03  0.00000000000E+00 0.  1.
         21   -1    0    0  501  503 -0.00000000000E+00 -0.00000000000E+00 -0.46812124079E+03  0.46812124079E+03  0.00000000000E+00 0.  1.
          6    2    1    2  501    0 -0.38716576109E+02 -0.16862693641E+03 -0.28332515290E+03  0.37562959053E+03  0.17575673547E+03 0.  0.
         24    2    3    3    0    0 -0.83634890456E+02 -0.70225882727E+02 -0.12673394890E+03  0.18525281280E+03  0.79565327485E+02 0.  0.
         -6    2    1    2    0  502  0.38716576109E+02  0.16862693641E+03 -0.31565309706E+02  0.24572242844E+03  0.17160747685E+03 0.  0.
        -24    2    5    5    0    0 -0.38658422079E+02  0.58491579101E+02 -0.18028477001E+00  0.10743361087E+03  0.81401534499E+02 0.  0.
          5    1    3    3  501    0  0.44918314346E+02 -0.98401053681E+02 -0.15659120400E+03  0.19037677773E+03  0.47000000000E+01 0. -1.
        -11    1    4    4    0    0 -0.20206639610E+02  0.17590985089E+02 -0.25065987823E+02  0.36688619301E+02  0.00000000000E+00 0.  1.
         12    1    4    4    0    0 -0.63428250846E+02 -0.87816867816E+02 -0.10166796108E+03  0.14856419349E+03  0.00000000000E+00 0. -1.
         -5    1    5    5    0  502  0.77374998188E+02  0.11013535731E+03 -0.31385024936E+02  0.13828881757E+03  0.47000000000E+01 0.  1.
         11    1    6    6    0    0 -0.45526170639E+02  0.76016707878E+02  0.19771960314E+00  0.88607060569E+02  0.00000000000E+00 0. -1.
        -12    1    6    6    0    0  0.68677485602E+01 -0.17525128777E+02 -0.37800437315E+00  0.18826550301E+02  0.00000000000E+00 0.  1.
</event>
<event>
12    1  0.1046899E+000  0.4469015E+03  0.7818608E-02  0.1028737E+00
         21   -1    0    0  503  502  0.00000000000E+00  0.00000000000E+00  0.34138198772E+03  0.34138198772E+03  0.00000000000E+00 0. -1.
         21   -1    0    0  501  503 -0.00000000000E+00 -0.00000000000E+00 -0.91081142303E+03  0.91081142303E+03  0.00000000000E+00 0. -1.
          6    2    1    2  501    0 -0.37073440295E+03 -0.17919339868E+03 -0.65978831766E+03  0.79624856359E+03  0.17069528184E+03 0.  0.
         24    2    3    3    0    0 -0.11492998049E+03 -0.51299803837E+02 -0.31361510409E+03  0.34719326862E+03  0.79675353593E+02 0.  0.
         -6    2    1    2    0  502  0.37073440295E+03  0.17919339868E+03  0.90358882348E+02  0.45594484715E+03  0.17368564813E+03 0.  0.
        -24    2    5    5    0    0  0.22128602481E+03  0.31282164929E+02  0.65052954937E+01  0.22952474021E+03  0.51896135533E+02 0.  0.
          5    1    3    3  501    0 -0.25580442246E+03 -0.12789359484E+03 -0.34617321356E+03  0.44905529497E+03  0.47000000000E+01 0. -1.
        -11    1    4    4    0    0 -0.25205911898E+02  0.21702740671E+02 -0.72774881848E+02  0.80015813283E+02  0.00000000000E+00 0.  1.
         12    1    4    4    0    0 -0.89724068590E+02 -0.73002544508E+02 -0.24084022224E+03  0.26717745534E+03  0.00000000000E+00 0. -1.
         -5    1    5    5    0  502  0.14944837814E+03  0.14791123375E+03  0.83853586854E+02  0.22642010694E+03  0.47000000000E+01 0.  1.
         11    1    6    6    0    0  0.10551619347E+03  0.31318644577E+01  0.26198358001E+02  0.10876502021E+03  0.00000000000E+00 0. -1.
        -12    1    6    6    0    0  0.11576983133E+03  0.28150300471E+02 -0.19693062508E+02  0.12075972000E+03  0.00000000000E+00 0.  1.
</event>
<event>
12    1  0.1046899E+000  0.1907611E+03  0.7818608E-02  0.1157851E+00
         21   -1    0    0  503  502  0.00000000000E+00  0.00000000000E+00  0.33845151321E+02  0.33845151321E+02  0.00000000000E+00 0. -1.
         21   -1    0    0  501  503 -0.00000000000E+00 -0.00000000000E+00 -0.13343947199E+04  0.13343947199E+04  0.00000000000E+00 0. -1.
          6    2    1    2  501    0  0.24174448476E+02 -0.78045183334E+02 -0.34812298097E+03  0.39696273424E+03  0.17237850183E+03 0.  0.
         24    2    3    3    0    0  0.29097386358E+02 -0.11877605797E+03 -0.24398167942E+03  0.28493264831E+03  0.81884945714E+02 0.  0.
         -6    2    1    2    0  502 -0.24174448476E+02  0.78045183334E+02 -0.95242658760E+03  0.97127713697E+03  0.17200993414E+03 0.  0.
        -24    2    5    5    0    0 -0.45620987159E+02  0.88620626255E+02 -0.92818173244E+03  0.93690131675E+03  0.79547841100E+02 0.  0.
          5    1    3    3  501    0 -0.49229378813E+01  0.40730874641E+02 -0.10414130155E+03  0.11203008593E+03  0.47000000000E+01 0. -1.
        -13    1    4    4    0    0  0.89039149932E+01 -0.98000467838E+02 -0.10887890426E+03  0.14675826106E+03  0.00000000000E+00 0.  1.
         14    1    4    4    0    0  0.20193471365E+02 -0.20775590137E+02 -0.13510277517E+03  0.13817438724E+03  0.00000000000E+00 0. -1.
         -5    1    5    5    0  502  0.21446538682E+02 -0.10575442921E+02 -0.24244855158E+02  0.34375820224E+02  0.47000000000E+01 0.  1.
         13    1    6    6    0    0  0.10061421131E+02 -0.38182109843E+01 -0.23996611800E+02  0.26299207368E+02  0.00000000000E+00 0. -1.
        -14    1    6    6    0    0 -0.55682408289E+02  0.92438837239E+02 -0.90418512064E+03  0.91060210938E+03  0.00000000000E+00 0.  1.
</event>
<event>
12    1  0.1046899E+000  0.3261939E+03  0.7818608E-02  0.1073091E+00
         21   -1    0    0  503  502  0.00000000000E+00  0.00000000000E+00  0.10045221774E+03  0.10045221774E+03  0.00000000000E+00 0.  1.
         21   -1    0    0  501  503 -0.00000000000E+00 -0.00000000000E+00 -0.12187797101E+04  0.12187797101E+04  0.00000000000E+00 0.  1.
          6    2    1    2  501    0 -0.19642810713E+03  0.19266060350E+03 -0.31333184104E+03  0.45065812364E+03  0.17092042705E+03 0.  0.
         24    2    3    3    0    0 -0.17677488335E+03  0.16590063809E+03 -0.17784620970E+03  0.31108451849E+03  0.79824321100E+02 0.  0.
         -6    2    1    2    0  502  0.19642810713E+03 -0.19266060350E+03 -0.80499565134E+03  0.86857380422E+03  0.17521514003E+03 0.  0.
        -24    2    5    5    0    0  0.21101598511E+03 -0.16119798212E+03 -0.77226760390E+03  0.82065806758E+03  0.81054774351E+02 0.  0.
          5    1    3    3  501    0 -0.19653223778E+02  0.26759965410E+02 -0.13548563135E+03  0.13957360515E+03  0.47000000000E+01 0. -1.
        -11    1    4    4    0    0 -0.92235440738E+02  0.43758432772E+02 -0.10193488492E+03  0.14426675893E+03  0.00000000000E+00 0.  1.
         12    1    4    4    0    0 -0.84539442609E+02  0.12214220532E+03 -0.75911324773E+02  0.16681775956E+03  0.00000000000E+00 0. -1.
         -5    1    5    5    0  502 -0.14587877989E+02 -0.31462621381E+02 -0.32728047437E+02  0.47915736636E+02  0.47000000000E+01 0.  1.
         13    1    6    6    0    0  0.65114825863E+02 -0.10016108017E+03 -0.32782540605E+03  0.34891500309E+03  0.00000000000E+00 0. -1.
        -14    1    6    6    0    0  0.14590115925E+03 -0.61036901947E+02 -0.44444219785E+03  0.47174306450E+03  0.00000000000E+00 0.  1.
</event>
<event>
12    1  0.1046899E+000  0.2936113E+03  0.7818608E-02  0.1088536E+00
         21   -1    0    0  503  502  0.00000000000E+00  0.00000000000E+00  0.10056038940E+03  0.10056038940E+03  0.00000000000E+00 0.  1.
         21   -1    0    0  501  503 -0.00000000000E+00 -0.00000000000E+00 -0.85856818589E+03  0.85856818589E+03  0.00000000000E+00 0.  1.
          6    2    1    2  501    0  0.38975744929E+01 -0.23690540125E+03 -0.35234201528E+03  0.45835686301E+03  0.17264633767E+03 0.  0.
         24    2    3    3    0    0 -0.24789232444E+02 -0.17357849516E+03 -0.17580964725E+03  0.26857014880E+03  0.10235669365E+03 0.  0.
         -6    2    1    2    0  502 -0.38975744929E+01  0.23690540125E+03 -0.40566578121E+03  0.50077171227E+03  0.17340190754E+03 0.  0.
        -24    2    5    5    0    0 -0.64662061201E+01  0.16148679386E+03 -0.15101417830E+03  0.23513268450E+03  0.79764032371E+02 0.  0.
          5    1    3    3  501    0  0.28686806937E+02 -0.63326906086E+02 -0.17653236804E+03  0.18978671421E+03  0.47000000000E+01 0. -1.
        -13    1    4    4    0    0  0.65829520432E+01 -0.10427717651E+03 -0.15964950976E+03  0.19080102402E+03  0.00000000000E+00 0.  1.
         14    1    4    4    0    0 -0.31372184487E+02 -0.69301318649E+02 -0.16160137482E+02  0.77769124782E+02  0.00000000000E+00 0. -1.
         -5    1    5    5    0  502  0.25686316271E+01  0.75418607383E+02 -0.25465160291E+03  0.26563902777E+03  0.47000000000E+01 0.  1.
         13    1    6    6    0    0 -0.12314481627E+02  0.63465335620E+02 -0.11230311461E+03  0.12958196184E+03  0.00000000000E+00 0. -1.
        -14    1    6    6    0    0  0.58482755069E+01  0.98021458243E+02 -0.38711063686E+02  0.10555072266E+03  0.00000000000E+00 0.  1.
</event>
<event>
12    1  0.1046899E+000  0.2194076E+03  0.7818608E-02  0.1134463E+00
         21   -1    0    0  501  502  0.00000000000E+00  0.00000000000E+00  0.10944312338E+03  0.10944312338E+03  0.00000000000E+00 0. -1.
         21   -1    0    0  502  503 -0.00000000000E+00 -0.00000000000E+00 -0.46240265936E+03  0.46240265936E+03  0.00000000000E+00 0. -1.
         -6    2    1    2    0  503  0.74257594025E+02 -0.11349290024E+03 -0.24191771765E+03  0.32659436860E+03  0.17246701369E+03 0.  0.
        -24    2    3    3    0    0 -0.18437049959E+02 -0.25040197843E+02 -0.13397845352E+03  0.15899618148E+03  0.79766054172E+02 0.  0.
          6    2    1    2  501    0 -0.74257594025E+02  0.11349290024E+03 -0.11104181833E+03  0.24525141414E+03  0.17153175230E+03 0.  0.
         24    2    5    5    0    0 -0.68827270924E+02  0.54849189845E+01 -0.36152894742E+02  0.11362446668E+03  0.82681376803E+02 0.  0.
          5    1    5    5  501    0 -0.54303231012E+01  0.10800798125E+03 -0.74888923590E+02  0.13162694747E+03  0.47000000000E+01 0. -1.
        -11    1    6    6    0    0  0.76759504452E+01  0.18480357105E+02  0.10987240610E+02  0.22829000639E+02  0.00000000000E+00 0.  1.
         12    1    6    6    0    0 -0.76503221369E+02 -0.12995438120E+02 -0.47140135352E+02  0.90795466037E+02  0.00000000000E+00 0. -1.
         -5    1    3    3    0  503  0.92694643985E+02 -0.88452702394E+02 -0.10793926413E+03  0.16759818712E+03  0.47000000000E+01 0.  1.
         11    1    4    4    0    0 -0.30370318306E+02 -0.37597664342E+02 -0.38039087969E+02  0.61505388475E+02  0.00000000000E+00 0. -1.
        -12    1    4    4    0    0  0.11933268347E+02  0.12557466499E+02 -0.95939365550E+02  0.97490793003E+02  0.00000000000E+00 0.  1.
</event>
<event>
12    1  0.1046899E+000  0.2912336E+03  0.7818608E-02  0.1089732E+00
         21   -1    0    0  503  502  0.00000000000E+00  0.00000000000E+00  0.41138696152E+03  0.41138696152E+03  0.00000000000E+00 0.  1.
         21   -1    0    0  501  503 -0.00000000000E+00 -0.00000000000E+00 -0.21462818423E+03  0.21462818423E+03  0.00000000000E+00 0.  1.
          6    2    1    2  501    0  0.26141753446E+02 -0.23267466476E+03  0.35779188234E+02  0.29342313993E+03  0.17319381582E+03 0.  0.
         24    2    3    3    0    0  0.47797552161E+02 -0.24581112909E+03  0.43208485256E+02  0.26661223231E+03  0.80668407954E+02 0.  0.
         -6    2    1    2    0  502 -0.26141753446E+02  0.23267466476E+03  0.16097958906E+03  0.33259200582E+03  0.17286446525E+03 0.  0.
        -24    2    5    5    0    0  0.31820255004E+02  0.19709389931E+03  0.15298239863E+03  0.26395068919E+03  0.80048849223E+02 0.  0.
          5    1    3    3  501    0 -0.21655798715E+02  0.13136464330E+02 -0.74292970220E+01  0.26810907618E+02  0.47000000000E+01 0. -1.
        -13    1    4    4    0    0  0.14073083975E+02 -0.13993638293E+03 -0.14529064517E+02  0.14139072345E+03  0.00000000000E+00 0.  1.
         14    1    4    4    0    0  0.33724468186E+02 -0.10587474616E+03  0.57737549773E+02  0.12522150887E+03  0.00000000000E+00 0. -1.
         -5    1    5    5    0  502 -0.57962008450E+02  0.35580765456E+02  0.79971904313E+01  0.68641316631E+02  0.47000000000E+01 0.  1.
         11    1    6    6    0    0  0.24675284279E+02  0.10790853577E+03  0.35436655041E+02  0.11622770008E+03  0.00000000000E+00 0. -1.
        -12    1    6    6    0    0  0.71449707247E+01  0.89185363541E+02  0.11754574358E+03  0.14772298911E+03  0.00000000000E+00 0.  1.
</event>
<event>
12    1  0.1046899E+000  0.2021553E+03  0.7818608E-02  0.1148645E+00
         21   -1    0    0  501  502  0.00000000000E+00  0.00000000000E+00  0.23087534898E+03  0.23087534898E+03  0.00000000000E+00 0. -1.
         21   -1    0    0  502  503 -0.00000000000E+00 -0.00000000000E+00 -0.23272143949E+03  0.23272143949E+03  0.00000000000E+00 0. -1.
         -6    2    1    2    0  503  0.23301070454E+02  0.96127623793E+02 -0.11730112279E+03  0.23079507515E+03  0.17240462106E+03 0.  0.
        -24    2    3    3    0    0 -0.19960375089E+02  0.42641296239E+01 -0.95693512167E+01  0.82677963243E+02  0.79545419403E+02 0.  0.
          6    2    1    2  501    0 -0.23301070454E+02 -0.96127623793E+02  0.11545503228E+03  0.23280171333E+03  0.17630460377E+03 0.  0.
         24    2    5    5    0    0  0.44866961533E+02 -0.81848750015E+02  0.42488134118E+02  0.13182139322E+03  0.82821350233E+02 0.  0.
          5    1    5    5  501    0 -0.68168031986E+02 -0.14278873779E+02  0.72966898162E+02  0.10098032011E+03  0.47000000000E+01 0. -1.
        -13    1    6    6    0    0 -0.89278333367E+01 -0.68095646940E+02  0.17144872495E+02  0.70786086155E+02  0.00000000000E+00 0.  1.
         14    1    6    6    0    0  0.53794794869E+02 -0.13753103074E+02  0.25343261623E+02  0.61035307068E+02  0.00000000000E+00 0. -1.
         -5    1    3    3    0  503  0.43261445543E+02  0.91863494169E+02 -0.10773177158E+03  0.14811711190E+03  0.47000000000E+01 0.  1.
         13    1    4    4    0    0  0.66900588636E+01 -0.33767619795E+02 -0.11227148990E+02  0.36208533644E+02  0.00000000000E+00 0. -1.
        -14    1    4    4    0    0 -0.26650433953E+02  0.38031749419E+02  0.16577977729E+01  0.46469429598E+02  0.00000000000E+00 0.  1.
</event>
<event>
12    1  0.1046899E+000  0.1755854E+03  0.7818608E-02  0.1172181E+00
         21   -1    0    0  501  502  0.00000000000E+00  0.00000000000E+00  0.19117794943E+02  0.19117794943E+02  0.00000000000E+00 0.  1.
         21   -1    0    0  502  503 -0.00000000000E+00 -0.00000000000E+00 -0.16840253796E+04  0.16840253796E+04  0.00000000000E+00 0.  1.
         -6    2    1    2    0  503 -0.23394528444E+02 -0.27208641813E+02 -0.65519259556E+03  0.67827508336E+03  0.17173274960E+03 0.  0.
        -24    2    3    3    0    0 -0.19851316522E+02 -0.84762522967E+02 -0.43074615129E+03  0.44649221098E+03  0.78957504681E+02 0.  0.
          6    2    1    2  501    0  0.23394528444E+02  0.27208641813E+02 -0.10097149891E+04  0.10248680912E+04  0.17187969908E+03 0.  0.
         24    2    5    5    0    0  0.39008441390E+02 -0.22279790417E+02 -0.28774710069E+03  0.30102237482E+03  0.76144787244E+02 0.  0.
          5    1    5    5  501    0 -0.15613912946E+02  0.49488432229E+02 -0.72196788838E+03  0.72384571633E+03  0.47000000000E+01 0. -1.
        -11    1    6    6    0    0  0.42895292242E+02 -0.38319224726E+02 -0.27266354040E+03  0.27866426995E+03  0.00000000000E+00 0.  1.
         12    1    6    6    0    0 -0.38868508521E+01  0.16039434309E+02 -0.15083560291E+02  0.22358104874E+02  0.00000000000E+00 0. -1.
         -5    1    3    3    0  503 -0.35432119221E+01  0.57553881154E+02 -0.22444644427E+03  0.23178287239E+03  0.47000000000E+01 0.  1.
         13    1    4    4    0    0 -0.35142676488E+02 -0.80736327482E+02 -0.24995862780E+03  0.26501448621E+03  0.00000000000E+00 0. -1.
        -14    1    4    4    0    0  0.15291359966E+02 -0.40261954846E+01 -0.18078752349E+03  0.18147772477E+03  0.00000000000E+00 0.  1.
</event>
<event>
12    1  0.1046899E+000  0.1852479E+03  0.7818608E-02  0.1164175E+00
         21   -1    0    0  501  502  0.00000000000E+00  0.00000000000E+00  0.10762742015E+03  0.10762742015E+03  0.00000000000E+00 0. -1.
         21   -1    0    0  502  503 -0.00000000000E+00 -0.00000000000E+00 -0.60277479062E+03  0.60277479062E+03  0.00000000000E+00 0. -1.
         -6    2    1    2    0  503  0.46863261207E+02  0.13914884692E+02 -0.16399314116E+01  0.18525516491E+03  0.17868127345E+03 0.  0.
        -24    2    3    3    0    0 -0.26588975303E+02 -0.24861303414E+02  0.34437413310E+02  0.94577225946E+02  0.80211334717E+02 0.  0.
          6    2    1    2  501    0 -0.46863261207E+02 -0.13914884692E+02 -0.49350743905E+03  0.52514704586E+03  0.17274269334E+03 0.  0.
         24    2    5    5    0    0 -0.51888422341E+02  0.11589917396E+02 -0.13460391943E+03  0.16527266003E+03  0.79812921697E+02 0.  0.
          5    1    5    5  501    0  0.50251611345E+01 -0.25504802087E+02 -0.35890351963E+03  0.35987438583E+03  0.47000000000E+01 0. -1.
        -13    1    6    6    0    0 -0.50040368984E+02  0.39890074717E+02 -0.11205304976E+03  0.12903930622E+03  0.00000000000E+00 0.  1.
         14    1    6    6    0    0 -0.18480533571E+01 -0.28300157322E+02 -0.22550869669E+02  0.36233353812E+02  0.00000000000E+00 0. -1.
         -5    1    3    3    0  503  0.73452236510E+02  0.38776188106E+02 -0.36077344722E+02  0.90677938963E+02  0.47000000000E+01 0.  1.
         13    1    4    4    0    0  0.39689298991E+01 -0.48336466205E+02  0.26381860596E+02  0.55210224943E+02  0.00000000000E+00 0. -1.
        -14    1    4    4    0    0 -0.30557905202E+02  0.23475162791E+02  0.80555527135E+01  0.39367001003E+02  0.00000000000E+00 0.  1.
</event>
<event>
12    1  0.1046899E+000  0.1046673E+04  0.7818608E-02  0.9258821E-01
         21   -1    0    0  501  502  0.00000000000E+00  0.00000000000E+00  0.56471851494E+03  0.56471851494E+03  0.00000000000E+00 0. -1.
         21   -1    0    0  502  503 -0.00000000000E+00 -0.00000000000E+00 -0.20334673006E+04  0.20334673006E+04  0.00000000000E+00 0. -1.
         -6    2    1    2    0  503 -0.10315304122E+04  0.45191193891E+02 -0.10133876020E+04  0.14568731062E+04  0.17154468830E+03 0.  0.
        -24    2    3    3    0    0 -0.55359495480E+03  0.88878786538E+02 -0.51726671221E+03  0.76659132706E+03  0.75700716509E+02 0.  0.
          6    2    1    2  501    0  0.10315304122E+04 -0.45191193891E+02 -0.45536118362E+03  0.11413127094E+04  0.17071513595E+03 0.  0.
         24    2    5    5    0    0  0.29769169630E+03 -0.10275039037E+01 -0.95443659659E+02  0.32275763696E+03  0.80259567857E+02 0.  0.
          5    1    5    5  501    0  0.73383871595E+03 -0.44163689987E+02 -0.35991752397E+03  0.81855507243E+03  0.47000000000E+01 0. -1.
        -13    1    6    6    0    0  0.24712366133E+03  0.23139470456E+02 -0.56627584486E+02  0.25458244717E+03  0.00000000000E+00 0.  1.
         14    1    6    6    0    0  0.50568034976E+02 -0.24166974360E+02 -0.38816075173E+02  0.68175189790E+02  0.00000000000E+00 0. -1.
         -5    1    3    3    0  503 -0.47793545745E+03 -0.43687592647E+02 -0.49612088982E+03  0.69028177910E+03  0.47000000000E+01 0.  1.
         13    1    4    4    0    0 -0.19439500571E+03  0.65525035590E+02 -0.20590709240E+03  0.29065560245E+03  0.00000000000E+00 0. -1.
        -14    1    4    4    0    0 -0.35919994908E+03  0.23353750947E+02 -0.31135961982E+03  0.47593572461E+03  0.00000000000E+00 0.  1.
</event>
<event>
12    1  0.1046899E+000  0.1776828E+03  0.7818608E-02  0.1170771E+00
         21   -1    0    0  501  502  0.00000000000E+00  0.00000000000E+00  0.57119529570E+03  0.57119529570E+03  0.00000000000E+00 0.  1.
         21   -1    0    0  502  503 -0.00000000000E+00 -0.00000000000E+00 -0.57101819984E+02  0.57101819984E+02  0.00000000000E+00 0.  1.
         -6    2    1    2    0  503  0.17740844846E+02  0.17100842387E+02  0.19057010103E+03  0.26055353493E+03  0.17596591935E+03 0.  0.
        -24    2    3    3    0    0  0.43796388195E+02  0.71011674255E+02  0.14603328887E+03  0.18578130232E+03  0.78918878195E+02 0.  0.
          6    2    1    2  501    0 -0.17740844846E+02 -0.17100842387E+02  0.32352337469E+03  0.36774358075E+03  0.17309185663E+03 0.  0.
         24    2    5    5    0    0 -0.14504717910E+02 -0.65795469324E+02  0.29000460586E+03  0.30835303375E+03  0.80246441510E+02 0.  0.
          5    1    5    5  501    0 -0.32361269352E+01  0.48694626937E+02  0.33518768825E+02  0.59390547005E+02  0.47000000000E+01 0. -1.
        -11    1    6    6    0    0  0.32569153943E+02 -0.22975084407E+02  0.13596275649E+03  0.14168442203E+03  0.00000000000E+00 0.  1.
         12    1    6    6    0    0 -0.47073871854E+02 -0.42820384917E+02  0.15404184937E+03  0.16666861172E+03  0.00000000000E+00 0. -1.
         -5    1    3    3    0  503 -0.26055543350E+02 -0.53910831868E+02  0.44536812161E+02  0.74772232610E+02  0.47000000000E+01 0.  1.
         13    1    4    4    0    0  0.64746270308E+02  0.51144450169E+02  0.12610499535E+03  0.15069938339E+03  0.00000000000E+00 0. -1.
        -14    1    4    4    0    0 -0.20949882113E+02  0.19867224086E+02  0.19928293518E+02  0.35081918932E+02  0.00000000000E+00 0.  1.
</event>
<event>
12    1  0.1046899E+000  0.1737392E+03  0.7818608E-02  0.1174543E+00
         21   -1    0    0  501  502  0.00000000000E+00  0.00000000000E+00  0.20970516984E+02  0.20970516984E+02  0.00000000000E+00 0. -1.
         21   -1    0    0  502  503 -0.00000000000E+00 -0.00000000000E+00 -0.21976553493E+04  0.21976553493E+04  0.00000000000E+00 0. -1.
         -6    2    1    2    0  503 -0.16661382462E+02 -0.88187194511E+00 -0.42498084995E+03  0.45832698333E+03  0.17081136221E+03 0.  0.
        -24    2    3    3    0    0 -0.25075013663E+02  0.28667884486E+02 -0.41724317713E+03  0.42629670272E+03  0.78653709266E+02 0.  0.
          6    2    1    2  501    0  0.16661382462E+02  0.88187194511E+00 -0.17517039823E+04  0.17602988829E+04  0.17293621986E+03 0.  0.
         24    2    5    5    0    0  0.26478803886E+02 -0.15557167766E+02 -0.17250108036E+04  0.17271139529E+04  0.79480697396E+02 0.  0.
          5    1    5    5  501    0 -0.98174214245E+01  0.16439039711E+02 -0.26693178775E+02  0.33184930061E+02  0.47000000000E+01 0. -1.
        -13    1    6    6    0    0  0.23602983808E+02 -0.27582054187E+02 -0.32060740327E+03  0.32265612901E+03  0.00000000000E+00 0.  1.
         14    1    6    6    0    0  0.28758200776E+01  0.12024886421E+02 -0.14044034003E+04  0.14044578239E+04  0.00000000000E+00 0. -1.
         -5    1    3    3    0  503  0.84136312016E+01 -0.29549756431E+02 -0.77376728264E+01  0.32030280609E+02  0.47000000000E+01 0.  1.
         11    1    4    4    0    0 -0.42674087223E+02  0.36666564233E+02 -0.18796177931E+03  0.19620179697E+03  0.00000000000E+00 0. -1.
        -12    1    4    4    0    0  0.17599073560E+02 -0.79986797474E+01 -0.22928139782E+03  0.23009490575E+03  0.00000000000E+00 0.  1.
</event>
<event>
12    1  0.1046899E+000  0.1922512E+03  0.7818608E-02  0.1156478E+00
         21   -1    0    0  501  502  0.00000000000E+00  0.00000000000E+00  0.24135175100E+03  0.24135175100E+03  0.00000000000E+00 0.  1.
         21   -1    0    0  502  503 -0.00000000000E+00 -0.00000000000E+00 -0.15450597339E+03  0.15450597339E+03  0.00000000000E+00 0.  1.
         -6    2    1    2    0  503  0.82481628506E+02 -0.28120014293E+02  0.62786857861E+02  0.20210692621E+03  0.17120474835E+03 0.  0.
        -24    2    3    3    0    0 -0.93379398466E+01 -0.35188529357E+01  0.68042298696E+02  0.10678767354E+03  0.81696226112E+02 0.  0.
          6    2    1    2  501    0 -0.82481628506E+02  0.28120014293E+02  0.24058919745E+02  0.19375079817E+03  0.17136681688E+03 0.  0.
         24    2    5    5    0    0  0.32266195245E+02  0.19694091473E+02  0.11661744694E+02  0.77932668417E+02  0.67145661980E+02 0.  0.
          5    1    5    5  501    0 -0.11474782375E+03  0.84259228208E+01  0.12397175051E+02  0.11581812976E+03  0.47000000000E+01 0. -1.
        -13    1    6    6    0    0 -0.36562807749E+01  0.28891116701E+02 -0.14519353045E+02  0.32540384543E+02  0.00000000000E+00 0.  1.
         14    1    6    6    0    0  0.35922476020E+02 -0.91970252285E+01  0.26181097740E+02  0.45392283874E+02  0.00000000000E+00 0. -1.
         -5    1    3    3    0  503  0.91819568353E+02 -0.24601161358E+02 -0.52554408352E+01  0.95319252678E+02  0.47000000000E+01 0.  1.
         13    1    4    4    0    0  0.24300878031E+02  0.15091793349E+02 -0.34623688060E-01  0.28605875242E+02  0.00000000000E+00 0. -1.
        -14    1    4    4    0    0 -0.33638817878E+02 -0.18610646284E+02  0.68076922384E+02  0.78181798295E+02  0.00000000000E+00 0.  1.
</event>
<event>
12    1  0.1046899E+000  0.2131058E+03  0.7818608E-02  0.1139374E+00
         21   -1    0    0  503  502  0.00000000000E+00  0.00000000000E+00  0.34287298557E+04  0.34287298557E+04  0.00000000000E+00 0.  1.
         21   -1    0    0  501  503 -0.00000000000E+00 -0.00000000000E+00 -0.24645062935E+02  0.24645062935E+02  0.00000000000E+00 0.  1.
          6    2    1    2  501    0  0.61775437219E+02 -0.10773848981E+03  0.52637246650E+03  0.56787503798E+03  0.17317707251E+03 0.  0.
         24    2    3    3    0    0  0.34664022402E+02 -0.12895079921E+03  0.50264917457E+03  0.52580515013E+03  0.77362524143E+02 0.  0.
         -6    2    1    2    0  502 -0.61775437219E+02  0.10773848981E+03  0.28777123263E+04  0.28854998807E+04  0.17163199498E+03 0.  0.
        -24    2    5    5    0    0 -0.24351086310E+00  0.90061476968E+01  0.72758556791E+03  0.73222297781E+03  0.81783620657E+02 0.  0.
          5    1    3    3  501    0  0.27111414817E+02  0.21212309407E+02  0.23723291936E+02  0.42069887854E+02  0.47000000000E+01 0. -1.
        -11    1    4    4    0    0  0.47926004821E+02 -0.52960124494E+02  0.31344749329E+03  0.32148251551E+03  0.00000000000E+00 0.  1.
         12    1    4    4    0    0 -0.13261982419E+02 -0.75990674720E+02  0.18920168127E+03  0.20432263462E+03  0.00000000000E+00 0. -1.
         -5    1    5    5    0  502 -0.61531926356E+02  0.98732342109E+02  0.21501267584E+04  0.21532769029E+04  0.47000000000E+01 0.  1.
         13    1    6    6    0    0  0.26677309954E+02  0.34289070082E+02  0.46994491735E+03  0.47194877321E+03  0.00000000000E+00 0. -1.
        -14    1    6    6    0    0 -0.26920820817E+02 -0.25282922386E+02  0.25764065056E+03  0.26027420460E+03  0.00000000000E+00 0.  1.
</event>
<event>
12    1  0.1046899E+000  0.1765057E+03  0.7818608E-02  0.1171499E+00
         21   -1    0    0  501  502  0.00000000000E+00  0.00000000000E+00  0.30230095028E+02  0.30230095028E+02  0.00000000000E+00 0. -1.
         21   -1    0    0  502  503 -0.00000000000E+00 -0.00000000000E+00 -0.14630153017E+04  0.14630153017E+04  0.00000000000E+00 0. -1.
         -6    2    1    2    0  503 -0.28839773382E+02 -0.28107418965E+02 -0.11268242097E+04  0.11405643610E+04  0.17185023237E+03 0.  0.
        -24    2    3    3    0    0  0.30226516695E+02 -0.61188411482E+02 -0.82493384793E+03  0.83114060747E+03  0.74974608392E+02 0.  0.
          6    2    1    2  501    0  0.28839773382E+02  0.28107418965E+02 -0.30596099696E+03  0.35268103577E+03  0.17073377463E+03 0.  0.
         24    2    5    5    0    0  0.60666391883E+02 -0.28755384219E+02 -0.20554438735E+03  0.23288163044E+03  0.86475866000E+02 0.  0.
          5    1    5    5  501    0 -0.31826618501E+02  0.56862803184E+02 -0.10041660961E+03  0.11979940533E+03  0.47000000000E+01 0. -1.
        -13    1    6    6    0    0  0.13525221686E+02 -0.11908339187E+02 -0.17126120908E+03  0.17220668366E+03  0.00000000000E+00 0.  1.
         14    1    6    6    0    0  0.47141170198E+02 -0.16847045033E+02 -0.34283178270E+02  0.60674946776E+02  0.00000000000E+00 0. -1.
         -5    1    3    3    0  503 -0.59066290078E+02  0.33080992517E+02 -0.30189036178E+03  0.30942375349E+03  0.47000000000E+01 0.  1.
         13    1    4    4    0    0 -0.15521678591E+02 -0.52314512618E+02 -0.47179252220E+03  0.47493780092E+03  0.00000000000E+00 0. -1.
        -14    1    4    4    0    0  0.45748195286E+02 -0.88738988646E+01 -0.35314132574E+03  0.35620280655E+03  0.00000000000E+00 0.  1.
</event>
<event>
12    1  0.1046899E+000  0.2028253E+03  0.7818608E-02  0.1147540E+00
         21   -1    0    0  503  502  0.00000000000E+00  0.00000000000E+00  0.95223772603E+02  0.95223772603E+02  0.00000000000E+00 0. -1.
         21   -1    0    0  501  503 -0.00000000000E+00 -0.00000000000E+00 -0.43035080829E+03  0.43035080829E+03  0.00000000000E+00 0.  1.
          6    2    1    2  501    0  0.13251127641E+02 -0.10600889043E+03 -0.16792400191E+03  0.26271538322E+03  0.17148593216E+03 0.  0.
         24    2    3    3    0    0  0.13433981063E+02 -0.64645087682E+02 -0.18020007758E+03  0.21931273759E+03  0.10614400455E+03 0.  0.
         -6    2    1    2    0  502 -0.13251127641E+02  0.10600889043E+03 -0.16720303378E+03  0.26285919767E+03  0.17240831205E+03 0.  0.
        -24    2    5    5    0    0  0.47454196666E+02  0.56391990296E+02 -0.14521078603E+03  0.18129497672E+03  0.79685248666E+02 0.  0.
          5    1    3    3  501    0 -0.18285342108E+00 -0.41363802751E+02  0.12276075674E+02  0.43402645626E+02  0.47000000000E+01 0. -1.
        -13    1    4    4    0    0  0.79140738153E+01 -0.92988950749E+02 -0.11572753409E+03  0.14866889275E+03  0.00000000000E+00 0.  1.
         14    1    4    4    0    0  0.55199072472E+01  0.28343863066E+02 -0.64472543487E+02  0.70643844836E+02  0.00000000000E+00 0. -1.
         -5    1    5    5    0  502 -0.60705324308E+02  0.49616900137E+02 -0.21992247751E+02  0.81564220953E+02  0.47000000000E+01 0.  1.
         11    1    6    6    0    0  0.62934779503E+01  0.14427865932E+02  0.76650836794E+01  0.17507846466E+02  0.00000000000E+00 0. -1.
        -12    1    6    6    0    0  0.41160718716E+02  0.41964124364E+02 -0.15287586971E+03  0.16378713025E+03  0.00000000000E+00 0.  1.
</event>
<event>
12    1  0.1046899E+000  0.2474841E+03  0.7818608E-02  0.1115216E+00
         21   -1    0    0  501  502  0.00000000000E+00  0.00000000000E+00  0.26066299317E+03  0.26066299317E+03  0.00000000000E+00 0.  1.
         21   -1    0    0  502  503 -0.00000000000E+00 -0.00000000000E+00 -0.23543164236E+03  0.23543164236E+03  0.00000000000E+00 0.  1.
         -6    2    1    2    0  503 -0.35553538347E+02  0.17397771547E+03 -0.11802356492E+02  0.24776534183E+03  0.17238349521E+03 0.  0.
        -24    2    3    3    0    0 -0.44613417846E+02  0.11814416007E+03  0.55656259248E+02  0.15960513446E+03  0.80173437883E+02 0.  0.
          6    2    1    2  501    0  0.35553538347E+02 -0.17397771547E+03  0.37033707303E+02  0.24832929371E+03  0.16959847602E+03 0.  0.
         24    2    5    5    0    0  0.89725780806E+01 -0.17364384547E+03 -0.13119429794E+02  0.19137241459E+03  0.78858033227E+02 0.  0.
          5    1    5    5  501    0  0.26580960266E+02 -0.33387000469E+00  0.50153137097E+02  0.56956879115E+02  0.47000000000E+01 0. -1.
        -13    1    6    6    0    0  0.59661584277E+01  0.72204405773E+01 -0.41955348762E+01  0.10263153580E+02  0.00000000000E+00 0.  1.
         14    1    6    6    0    0  0.30064196528E+01 -0.18086428604E+03 -0.89238949176E+01  0.18110926101E+03  0.00000000000E+00 0. -1.
         -5    1    3    3    0  503  0.90598794988E+01  0.55833555395E+02 -0.67458615740E+02  0.88160207362E+02  0.47000000000E+01 0.  1.
         13    1    4    4    0    0 -0.53954966191E+02  0.99444849172E+02  0.15315946649E+02  0.11417090096E+03  0.00000000000E+00 0. -1.
        -14    1    4    4    0    0  0.93415483459E+01  0.18699310903E+02  0.40340312599E+02  0.45434233507E+02  0.00000000000E+00 0.  1.
</event>
<event>
12    1  0.1046899E+000  0.3264878E+03  0.7818608E-02  0.1072718E+00
         21   -1    0    0  503  502  0.00000000000E+00  0.00000000000E+00  0.73610421408E+03  0.73610421408E+03  0.00000000000E+00 0. -1.
         21   -1    0    0  501  503 -0.00000000000E+00 -0.00000000000E+00 -0.14755831196E+03  0.14755831196E+03  0.00000000000E+00 0.  1.
          6    2    1    2  501    0  0.24277149802E+02  0.27658493290E+03  0.23330515203E+03  0.40127988395E+03  0.17177207627E+03 0.  0.
         24    2    3    3    0    0  0.40933986326E+02  0.48258851187E+02  0.90841255659E+02  0.13159803146E+03  0.71143518323E+02 0.  0.
         -6    2    1    2    0  502 -0.24277149802E+02 -0.27658493290E+03  0.35524075009E+03  0.48238264210E+03  0.17148882693E+03 0.  0.
        -24    2    5    5    0    0  0.34284615688E+02 -0.20200593527E+03  0.29984187022E+03  0.37246161065E+03  0.82708352112E+02 0.  0.
          5    1    3    3  501    0 -0.16656836524E+02  0.22832608171E+03  0.14246389637E+03  0.26968185249E+03  0.47000000000E+01 0. -1.
        -13    1    4    4    0    0 -0.18821850143E+02  0.83538965467E+00  0.20290016369E+02  0.27688349227E+02  0.00000000000E+00 0.  1.
         14    1    4    4    0    0  0.59755836469E+02  0.47423461532E+02  0.70551239290E+02  0.10390968223E+03  0.00000000000E+00 0. -1.
         -5    1    5    5    0  502 -0.58561765491E+02 -0.74578997625E+02  0.55398879868E+02  0.10992103145E+03  0.47000000000E+01 0.  1.
         11    1    6    6    0    0  0.46952644309E+02 -0.62977518519E+02  0.13742528894E+03  0.15829222561E+03  0.00000000000E+00 0. -1.
        -12    1    6    6    0    0 -0.12668028621E+02 -0.13902841675E+03  0.16241658128E+03  0.21416938504E+03  0.00000000000E+00 0.  1.
</event>
<event>
12    1  0.1046899E+000  0.2610600E+03  0.7818608E-02  0.1107232E+00
         21   -1    0    0  503  502  0.00000000000E+00  0.00000000000E+00  0.18440741009E+03  0.18440741009E+03  0.00000000000E+00 0. -1.
         21   -1    0    0  501  503 -0.00000000000E+00 -0.00000000000E+00 -0.10480574793E+04  0.10480574793E+04  0.00000000000E+00 0.  1.
          6    2    1    2  501    0 -0.17016937767E+03  0.85146616708E+02  0.65062834448E+02  0.26904549692E+03  0.17873092500E+03 0.  0.
         24    2    3    3    0    0 -0.17200088753E+03  0.12064752352E+03  0.51493518068E+02  0.23070641555E+03  0.80210582421E+02 0.  0.
         -6    2    1    2    0  502  0.17016937767E+03 -0.85146616708E+02 -0.92871290366E+03  0.96341939247E+03  0.17164412294E+03 0.  0.
        -24    2    5    5    0    0  0.19265607061E+03 -0.51390368408E+02 -0.76114424364E+03  0.79094770935E+03  0.80624982451E+02 0.  0.
          5    1    3    3  501    0  0.18315098598E+01 -0.35500906810E+02  0.13569316380E+02  0.38339081362E+02  0.47000000000E+01 0. -1.
        -11    1    4    4    0    0 -0.57875213500E+02 -0.89062566987E+00  0.82445734311E+01  0.58466285523E+02  0.00000000000E+00 0.  1.
         12    1    4    4    0    0 -0.11412567403E+03  0.12153814919E+03  0.43248944637E+02  0.17224013003E+03  0.00000000000E+00 0. -1.
         -5    1    5    5    0  502 -0.22486692939E+02 -0.33756248300E+02 -0.16756866002E+03  0.17247168312E+03  0.47000000000E+01 0.  1.
         11    1    6    6    0    0  0.64861801772E+02 -0.37865980531E+02 -0.41450744010E+03  0.42125681444E+03  0.00000000000E+00 0. -1.
        -12    1    6    6    0    0  0.12779426884E+03 -0.13524387877E+02 -0.34663680354E+03  0.36969089491E+03  0.00000000000E+00 0.  1.
</event>
<event>
12    1  0.1046899E+000  0.1822105E+03  0.7818608E-02  0.1167437E+00
         21   -1    0    0  503  502  0.00000000000E+00  0.00000000000E+00  0.85784706157E+02  0.85784706157E+02  0.00000000000E+00 0. -1.
         21   -1    0    0  501  503 -0.00000000000E+00 -0.00000000000E+00 -0.41641957563E+03  0.41641957563E+03  0.00000000000E+00 0. -1.
          6    2    1    2  501    0 -0.18783945694E+02  0.47930254948E+02 -0.80195461254E+02  0.19249381097E+03  0.16724954201E+03 0.  0.
         24    2    3    3    0    0  0.48973183382E+01  0.68881700657E+02 -0.93249686451E+02  0.15796457497E+03  0.10718502932E+03 0.  0.
         -6    2    1    2    0  502  0.18783945694E+02 -0.47930254948E+02 -0.25043940822E+03  0.30971047081E+03  0.17478710647E+03 0.  0.
        -24    2    5    5    0    0 -0.11414725628E+02 -0.42169181889E+02 -0.26143516044E+03  0.27672340851E+03  0.79491923118E+02 0.  0.
          5    1    3    3  501    0 -0.23681264032E+02 -0.20951445709E+02  0.13054225197E+02  0.34529236003E+02  0.47000000000E+01 0. -1.
        -13    1    4    4    0    0 -0.36091254739E+02  0.57942659678E+02 -0.16435895300E+02  0.70214451030E+02  0.00000000000E+00 0.  1.
         14    1    4    4    0    0  0.40988573077E+02  0.10939040979E+02 -0.76813791152E+02  0.87750123940E+02  0.00000000000E+00 0. -1.
         -5    1    5    5    0  502  0.30198671322E+02 -0.57610730594E+01  0.10995752222E+02  0.32987062302E+02  0.47000000000E+01 0.  1.
         11    1    6    6    0    0 -0.25325615009E+02  0.11876228810E+02 -0.43195968510E+02  0.51461862402E+02  0.00000000000E+00 0. -1.
        -12    1    6    6    0    0  0.13910889381E+02 -0.54045410699E+02 -0.21823919193E+03  0.22526154611E+03  0.00000000000E+00 0.  1.
</event>
<event>
12    1  0.1046899E+000  0.2471109E+03  0.7818608E-02  0.1115200E+00
         21   -1    0    0  503  502  0.00000000000E+00  0.00000000000E+00  0.12787346464E+03  0.12787346464E+03  0.00000000000E+00 0.  1.
         21   -1    0    0  501  503 -0.00000000000E+00 -0.00000000000E+00 -0.50518232406E+03  0.50518232406E+03  0.00000000000E+00 0.  1.
          6    2    1    2  501    0  0.15232486444E+03  0.90339082542E+02 -0.11384404592E+03  0.27207396065E+03  0.17233618050E+03 0.  0.
         24    2    3    3    0    0  0.10299485737E+03 -0.11317726780E+02 -0.40453388047E+02  0.13725617569E+03  0.80416102709E+02 0.  0.
         -6    2    1    2    0  502 -0.15232486444E+03 -0.90339082542E+02 -0.26346481350E+03  0.36098182805E+03  0.17184341147E+03 0.  0.
        -24    2    5    5    0    0 -0.72432245684E+01 -0.52998261014E+02 -0.99678666234E+02  0.13896603758E+03  0.80712100239E+02 0.  0.
          5    1    3    3  501    0  0.49330007071E+02  0.10165680932E+03 -0.73390657873E+02  0.13481778496E+03  0.47000000000E+01 0. -1.
        -13    1    4    4    0    0  0.25927766981E+02 -0.35556386997E+02 -0.35100922868E+02  0.56290146057E+02  0.00000000000E+00 0.  1.
         14    1    4    4    0    0  0.77067090391E+02  0.24238660217E+02 -0.53524651785E+01  0.80966029629E+02  0.00000000000E+00 0. -1.
         -5    1    5    5    0  502 -0.14508163987E+03 -0.37340821528E+02 -0.16378614727E+03  0.22201579047E+03  0.47000000000E+01 0.  1.
         11    1    6    6    0    0 -0.16047098118E+02 -0.11858489133E+02 -0.94492659185E+02  0.96576372692E+02  0.00000000000E+00 0. -1.
        -12    1    6    6    0    0  0.88038735495E+01 -0.41139771881E+02 -0.51860070487E+01  0.42389664885E+02  0.00000000000E+00 0.  1.
</event>
<event>
12    1  0.1046899E+000  0.2237051E+03  0.7818608E-02  0.1131277E+00
         21   -1    0    0  501  502  0.00000000000E+00  0.00000000000E+00  0.28284359727E+03  0.28284359727E+03  0.00000000000E+00 0.  1.
         21   -1    0    0  502  503 -0.00000000000E+00 -0.00000000000E+00 -0.19971745046E+03  0.19971745046E+03  0.00000000000E+00 0.  1.
         -6    2    1    2    0  503 -0.12998437903E+02 -0.14155501719E+03  0.12397578842E+03  0.25515689595E+03  0.17183789791E+03 0.  0.
        -24    2    3    3    0    0 -0.69038730445E+02 -0.83769682775E+02  0.44224156053E+02  0.14174582009E+03  0.79701916425E+02 0.  0.
          6    2    1    2  501    0  0.12998437903E+02  0.14155501719E+03 -0.40849641618E+02  0.22740415178E+03  0.17273439944E+03 0.  0.
         24    2    5    5    0    0  0.72902537198E+02  0.10842689778E+03 -0.13559018666E+02  0.15356079386E+03  0.79535516168E+02 0.  0.
          5    1    5    5  501    0 -0.59904099295E+02  0.33128119409E+02 -0.27290622952E+02  0.73843357921E+02  0.47000000000E+01 0. -1.
        -13    1    6    6    0    0  0.50759040530E+02  0.24075257820E+02  0.20688615940E+02  0.59867495890E+02  0.00000000000E+00 0.  1.
         14    1    6    6    0    0  0.22143496668E+02  0.84351639960E+02 -0.34247634607E+02  0.93693297971E+02  0.00000000000E+00 0. -1.
         -5    1    3    3    0  503  0.56040292542E+02 -0.57785334413E+02  0.79751632370E+02  0.11341107586E+03  0.47000000000E+01 0.  1.
         11    1    4    4    0    0 -0.31047735492E+02 -0.42389897868E+02  0.63441119914E+02  0.82375002376E+02  0.00000000000E+00 0. -1.
        -12    1    4    4    0    0 -0.37990994953E+02 -0.41379784907E+02 -0.19216963861E+02  0.59370817718E+02  0.00000000000E+00 0.  1.
</event>
<event>
12    1  0.1046899E+000  0.1723628E+03  0.7818608E-02  0.1175438E+00
         21   -1    0    0  503  502  0.00000000000E+00  0.00000000000E+00  0.12115123811E+03  0.12115123811E+03  0.00000000000E+00 0.  1.
         21   -1    0    0  501  503 -0.00000000000E+00 -0.00000000000E+00 -0.63216641650E+03  0.63216641650E+03  0.00000000000E+00 0.  1.
          6    2    1    2  501    0  0.88826988503E+01 -0.69599817372E+01  0.39208173664E+02  0.17676595491E+03  0.17199295988E+03 0.  0.
         24    2    3    3    0    0 -0.44491365690E+02 -0.34231248460E+02 -0.48734850883E+01  0.10221533189E+03  0.85281669919E+02 0.  0.
         -6    2    1    2    0  502 -0.88826988503E+01  0.69599817372E+01 -0.55022335206E+03  0.57655169971E+03  0.17186850088E+03 0.  0.
        -24    2    5    5    0    0 -0.41862373058E+02  0.61014664405E+02 -0.33619157335E+03  0.35330013772E+03  0.79504501594E+02 0.  0.
          5    1    3    3  501    0  0.53374064540E+02  0.27271266722E+02  0.44081658753E+02  0.74550623019E+02  0.47000000000E+01 0. -1.
        -11    1    4    4    0    0  0.23365632402E+02 -0.23869383234E+02 -0.31474097567E+01  0.33550058445E+02  0.00000000000E+00 0.  1.
         12    1    4    4    0    0 -0.67856998092E+02 -0.10361865226E+02 -0.17260753316E+01  0.68665273444E+02  0.00000000000E+00 0. -1.
         -5    1    5    5    0  502  0.32979674207E+02 -0.54054682668E+02 -0.21403177871E+03  0.22325156198E+03  0.47000000000E+01 0.  1.
         13    1    6    6    0    0 -0.21308542180E+02 -0.13881301912E+02 -0.42635594650E+02  0.49644117917E+02  0.00000000000E+00 0. -1.
        -14    1    6    6    0    0 -0.20553830878E+02  0.74895966317E+02 -0.29355597870E+03  0.30365601980E+03  0.00000000000E+00 0.  1.
</event>
<event>
12    1  0.1046899E+000  0.2508643E+03  0.7818608E-02  0.1112910E+00
         21   -1    0    0  503  502  0.00000000000E+00  0.00000000000E+00  0.17458394797E+03  0.17458394797E+03  0.00000000000E+00 0. -1.
         21   -1    0    0  501  503 -0.00000000000E+00 -0.00000000000E+00 -0.47853617743E+03  0.47853617743E+03  0.00000000000E+00 0. -1.
          6    2    1    2  501    0  0.14907335886E+03 -0.10582556653E+03  0.11381029178E+02  0.25017103786E+03  0.17039396558E+03 0.  0.
         24    2    3    3    0    0  0.97520894226E+02 -0.13409800748E+03  0.35189542668E+02  0.18656346880E+03  0.77942437456E+02 0.  0.
         -6    2    1    2    0  502 -0.14907335886E+03  0.10582556653E+03 -0.31533325864E+03  0.40294908754E+03  0.17178761972E+03 0.  0.
        -24    2    5    5    0    0 -0.12235580621E+03  0.12653115874E+03 -0.30821994427E+03  0.36808881775E+03  0.97512903078E+02 0.  0.
          5    1    3    3  501    0  0.51552464632E+02  0.28272440949E+02 -0.23808513490E+02  0.63607569058E+02  0.47000000000E+01 0. -1.
        -13    1    4    4    0    0  0.90254043726E+02 -0.88868730267E+02 -0.33375950061E+01  0.12670668163E+03  0.00000000000E+00 0.  1.
         14    1    4    4    0    0  0.72668505001E+01 -0.45229277216E+02  0.38527137674E+02  0.59856787176E+02  0.00000000000E+00 0. -1.
         -5    1    5    5    0  502 -0.26717552652E+02 -0.20705592203E+02 -0.71133143758E+01  0.34860269786E+02  0.47000000000E+01 0.  1.
         11    1    6    6    0    0 -0.14832791743E+02  0.18991486839E+02 -0.13692802906E+03  0.13903227476E+03  0.00000000000E+00 0. -1.
        -12    1    6    6    0    0 -0.10752301446E+03  0.10753967190E+03 -0.17129191520E+03  0.22905654299E+03  0.00000000000E+00 0.  1.
</event>
<event>
12    1  0.1046899E+000  0.2201677E+03  0.7818608E-02  0.1133825E+00
         21   -1    0    0  501  502  0.00000000000E+00  0.00000000000E+00  0.35887612402E+02  0.35887612402E+02  0.00000000000E+00 0.  1.
         21   -1    0    0  502  503 -0.00000000000E+00 -0.00000000000E+00 -0.14712830175E+04  0.14712830175E+04  0.00000000000E+00 0.  1.
         -6    2    1    2    0  503 -0.32098791418E+02 -0.13248617558E+03 -0.49949064664E+03  0.54571781451E+03  0.17243580794E+03 0.  0.
        -24    2    3    3    0    0  0.76369192034E+01 -0.10760238867E+03 -0.47314647575E+03  0.49173416060E+03  0.79361833386E+02 0.  0.
          6    2    1    2  501    0  0.32098791418E+02  0.13248617558E+03 -0.93590475844E+03  0.96145281538E+03  0.17288979205E+03 0.  0.
         24    2    5    5    0    0  0.14187291300E+02  0.13564089724E+03 -0.48568932574E+03  0.51084566947E+03  0.80432857929E+02 0.  0.
          5    1    5    5  501    0  0.17911500118E+02 -0.31547216604E+01 -0.45021543270E+03  0.45060714591E+03  0.47000000000E+01 0. -1.
        -13    1    6    6    0    0 -0.32591169576E+02  0.72145479007E+02 -0.22756468343E+03  0.24094156890E+03  0.00000000000E+00 0.  1.
         14    1    6    6    0    0  0.46778460876E+02  0.63495418238E+02 -0.25812464231E+03  0.26990410057E+03  0.00000000000E+00 0. -1.
         -5    1    3    3    0  503 -0.39735710621E+02 -0.24883786916E+02 -0.26344170888E+02  0.53983653912E+02  0.47000000000E+01 0.  1.
         11    1    4    4    0    0 -0.19780778582E+02  0.19197543150E+01 -0.50559047826E+02  0.54324782328E+02  0.00000000000E+00 0. -1.
        -12    1    4    4    0    0  0.27417697785E+02 -0.10952214298E+03 -0.42258742793E+03  0.43740937827E+03  0.00000000000E+00 0.  1.
</event>
<event>
12    1  0.1046899E+000  0.1773567E+03  0.7818608E-02  0.1170440E+00
         21   -1    0    0  503  502  0.00000000000E+00  0.00000000000E+00  0.38983546883E+02  0.38983546883E+02  0.00000000000E+00 0.  1.
         21   -1    0    0  501  503 -0.00000000000E+00 -0.00000000000E+00 -0.89091392045E+03  0.89091392045E+03  0.00000000000E+00 0.  1.
          6    2    1    2  501    0 -0.36564787923E+02 -0.21793874062E+02 -0.56983221643E+03  0.59679490368E+03  0.17217272000E+03 0.  0.
         24    2    3    3    0    0 -0.63557135616E+02 -0.56259226674E+02 -0.50481155638E+03  0.51826959822E+03  0.81018879943E+02 0.  0.
         -6    2    1    2    0  502  0.36564787923E+02  0.21793874062E+02 -0.28209815714E+03  0.33310256366E+03  0.17194764026E+03 0.  0.
        -24    2    5    5    0    0 -0.43411036006E+02  0.21270471129E+02 -0.18628603666E+03  0.20820877360E+03  0.79444666031E+02 0.  0.
          5    1    3    3  501    0  0.26992347694E+02  0.34465352612E+02 -0.65020660050E+02  0.78525305463E+02  0.47000000000E+01 0. -1.
        -13    1    4    4    0    0 -0.72392382993E+01  0.19796802214E+02 -0.12983745162E+03  0.13153738553E+03  0.00000000000E+00 0.  1.
         14    1    4    4    0    0 -0.56317897317E+02 -0.76056028888E+02 -0.37497410476E+03  0.38673221268E+03  0.00000000000E+00 0. -1.
         -5    1    5    5    0  502  0.79975823929E+02  0.52340293259E+00 -0.95812120480E+02  0.12489379006E+03  0.47000000000E+01 0.  1.
         11    1    6    6    0    0 -0.60887239859E+00  0.43489152747E+02 -0.71291807522E+02  0.83511669555E+02  0.00000000000E+00 0. -1.
        -12    1    6    6    0    0 -0.42802163608E+02 -0.22218681617E+02 -0.11499422914E+03  0.12469710405E+03  0.00000000000E+00 0.  1.
</event>
<event>
12    1  0.1046899E+000  0.1980613E+03  0.7818608E-02  0.1151758E+00
         21   -1    0    0  503  502  0.00000000000E+00  0.00000000000E+00  0.46853374370E+03  0.46853374370E+03  0.00000000000E+00 0.  1.
         21   -1    0    0  501  503 -0.00000000000E+00 -0.00000000000E+00 -0.10052731457E+03  0.10052731457E+03  0.00000000000E+00 0.  1.
          6    2    1    2  501    0 -0.65215347636E+02 -0.70002916315E+02  0.30216649360E+03  0.36034314226E+03  0.17143261202E+03 0.  0.
         24    2    3    3    0    0 -0.52713390025E+02  0.39898130907E+02  0.11535554021E+03  0.14319121059E+03  0.53162578892E+02 0.  0.
         -6    2    1    2    0  502  0.65215347636E+02  0.70002916315E+02  0.65839935536E+02  0.20871791601E+03  0.17342093729E+03 0.  0.
        -24    2    5    5    0    0  0.10075628509E+03  0.10886840667E+02  0.49611954684E+02  0.13770167844E+03  0.78930690571E+02 0.  0.
          5    1    3    3  501    0 -0.12501957611E+02 -0.10990104722E+03  0.18681095339E+03  0.21715193168E+03  0.47000000000E+01 0. -1.
        -11    1    4    4    0    0 -0.17421432670E+02  0.13602117043E+02  0.89409847855E+02  0.92101274681E+02  0.00000000000E+00 0.  1.
         12    1    4    4    0    0 -0.35291957355E+02  0.26296013865E+02  0.25945692353E+02  0.51089935905E+02  0.00000000000E+00 0. -1.
         -5    1    5    5    0  502 -0.35540937453E+02  0.59116075648E+02  0.16227980852E+02  0.71016237563E+02  0.47000000000E+01 0.  1.
         13    1    6    6    0    0  0.10569384969E+03  0.19694456735E+02  0.60076966533E+02  0.12315966627E+03  0.00000000000E+00 0. -1.
        -14    1    6    6    0    0 -0.49375646018E+01 -0.88076160679E+01 -0.10465011849E+02  0.14542012171E+02  0.00000000000E+00 0.  1.
</event>
<event>
12    1  0.1145541E+000  0.2344012E+03  0.7818608E-02  0.1123669E+00
         21   -1    0    0  501  502  0.00000000000E+00  0.00000000000E+00  0.27922468647E+03  0.27922468647E+03  0.00000000000E+00 0.  1.
         21   -1    0    0  502  503 -0.00000000000E+00 -0.00000000000E+00 -0.29492805402E+03  0.29492805402E+03  0.00000000000E+00 0.  1.
         -6    2    1    2    0  503 -0.11071701573E+03  0.11492082400E+03  0.15813481040E+03  0.28232462692E+03  0.17098398563E+03 0.  0.
        -24    2    3    3    0    0 -0.13499540867E+03  0.53652497131E+02  0.10301695689E+03  0.19628210244E+03  0.82533747775E+02 0.  0.
          6    2    1    2  501    0  0.11071701573E+03 -0.11492082400E+03 -0.17383817795E+03  0.29182811357E+03  0.17169415364E+03 0.  0.
         24    2    5    5    0    0  0.71471027914E+02 -0.15164462225E+02 -0.27495451440E+02  0.11036224108E+03  0.78011253427E+02 0.  0.
          5    1    5    5  501    0  0.39245987816E+02 -0.99756361779E+02 -0.14634272651E+03  0.18146587249E+03  0.47000000000E+01 0. -1.
        -11    1    6    6    0    0 -0.65428097151E+01  0.14157330302E+02  0.10465347740E+02  0.18781955797E+02  0.00000000000E+00 0.  1.
         12    1    6    6    0    0  0.78013837629E+02 -0.29321792527E+02 -0.37960799180E+02  0.91580285286E+02  0.00000000000E+00 0. -1.
         -5    1    3    3    0  503  0.24278392944E+02  0.61268326873E+02  0.55117853513E+02  0.86042524473E+02  0.47000000000E+01 0.  1.
         13    1    4    4    0    0 -0.57070683693E+02  0.65379216885E+02  0.67005598204E+02  0.10964148452E+03  0.00000000000E+00 0. -1.
        -14    1    4    4    0    0 -0.77924724981E+02 -0.11726719753E+02  0.36011358686E+02  0.86640617922E+02  0.00000000000E+00 0.  1.
</event>
<event>
12    1  0.1046899E+000  0.1806105E+03  0.7818608E-02  0.1167975E+00
         21   -1    0    0  501  502  0.00000000000E+00  0.00000000000E+00  0.24137230526E+03  0.24137230526E+03  0.00000000000E+00 0.  1.
         21   -1    0    0  502  503 -0.00000000000E+00 -0.00000000000E+00 -0.13899279413E+03  0.13899279413E+03  0.00000000000E+00 0.  1.
         -6    2    1    2    0  503  0.44324085269E+02  0.17189592030E+02  0.11512730939E+02  0.18097709467E+03  0.17424138203E+03 0.  0.
        -24    2    3    3    0    0  0.57034836013E+02 -0.51396765175E+02  0.42344939012E+01  0.11068687975E+03  0.79618178957E+02 0.  0.
          6    2    1    2  501    0 -0.44324085269E+02 -0.17189592030E+02  0.90866780192E+02  0.19938800473E+03  0.17099326910E+03 0.  0.
         24    2    5    5    0    0 -0.45708818251E+02 -0.76714012066E+02  0.71003501314E+02  0.13644585737E+03  0.74844098507E+02 0.  0.
          5    1    5    5  501    0  0.13847329816E+01  0.59524420037E+02  0.19863278878E+02  0.62942147357E+02  0.47000000000E+01 0. -1.
        -13    1    6    6    0    0 -0.76936939707E+01 -0.69883344267E+02  0.21223714905E+02  0.73439232071E+02  0.00000000000E+00 0.  1.
         14    1    6    6    0    0 -0.38015124280E+02 -0.68306677997E+01  0.49779786409E+02  0.63006625299E+02  0.00000000000E+00 0. -1.
         -5    1    3    3    0  503 -0.12710750744E+02  0.68586357205E+02  0.72782370383E+01  0.70290214920E+02  0.47000000000E+01 0.  1.
         13    1    4    4    0    0  0.55517698611E+02 -0.36310060183E+01  0.21822919619E+02  0.59763190046E+02  0.00000000000E+00 0. -1.
        -14    1    4    4    0    0  0.15171374017E+01 -0.47765759157E+02 -0.17588425717E+02  0.50923689703E+02  0.00000000000E+00 0.  1.
</event>
<event>
12    1  0.1046899E+000  0.1768263E+03  0.7818608E-02  0.1171020E+00
         21   -1    0    0  501  502  0.00000000000E+00  0.00000000000E+00  0.91178597731E+03  0.91178597731E+03  0.00000000000E+00 0. -1.
         21   -1    0    0  502  503 -0.00000000000E+00 -0.00000000000E+00 -0.36657113038E+02  0.36657113038E+02  0.00000000000E+00 0. -1.
         -6    2    1    2    0  503  0.39127452902E+02 -0.49110490245E+00  0.56066793684E+03  0.58789120234E+03  0.17244225595E+03 0.  0.
        -24    2    3    3    0    0  0.18999211348E+02 -0.61576185781E+02  0.43264659844E+03  0.44454516543E+03  0.79276278127E+02 0.  0.
          6    2    1    2  501    0 -0.39127452902E+02  0.49110490245E+00  0.31446092744E+03  0.36055188801E+03  0.17199066925E+03 0.  0.
         24    2    5    5    0    0 -0.41626153792E+02  0.12120411092E+02  0.66556500324E+02  0.11231776616E+03  0.79409519677E+02 0.  0.
          5    1    5    5  501    0  0.24987008906E+01 -0.11629306189E+02  0.24790442712E+03  0.24823412185E+03  0.47000000000E+01 0. -1.
        -11    1    6    6    0    0  0.10087925373E+02 -0.22248124817E+02  0.34956865272E+02  0.42646544126E+02  0.00000000000E+00 0.  1.
         12    1    6    6    0    0 -0.51714079165E+02  0.34368535909E+02  0.31599635052E+02  0.69671222035E+02  0.00000000000E+00 0. -1.
         -5    1    3    3    0  503  0.20128241554E+02  0.61085080878E+02  0.12802133840E+03  0.14334603691E+03  0.47000000000E+01 0.  1.
         13    1    4    4    0    0 -0.17291335162E+02 -0.35742429662E+02  0.82292999205E+02  0.91370943236E+02  0.00000000000E+00 0. -1.
        -14    1    4    4    0    0  0.36290546509E+02 -0.25833756119E+02  0.35035359924E+03  0.35317422219E+03  0.00000000000E+00 0.  1.
</event>
<event>
12    1  0.1046899E+000  0.1993477E+03  0.7818608E-02  0.1150368E+00
         21   -1    0    0  501  502  0.00000000000E+00  0.00000000000E+00  0.57643431643E+03  0.57643431643E+03  0.00000000000E+00 0. -1.
         21   -1    0    0  502  503 -0.00000000000E+00 -0.00000000000E+00 -0.92611350707E+02  0.92611350707E+02  0.00000000000E+00 0. -1.
         -6    2    1    2    0  503 -0.98631817483E+02  0.98825056036E+01  0.72170993500E+02  0.21166523029E+03  0.17253294779E+03 0.  0.
        -24    2    3    3    0    0 -0.33181998116E+02  0.37098604578E+02  0.98871596884E+02  0.13577447248E+03  0.78624189963E+02 0.  0.
          6    2    1    2  501    0  0.98631817483E+02 -0.98825056036E+01  0.41165197222E+03  0.45738043685E+03  0.17295553892E+03 0.  0.
         24    2    5    5    0    0  0.28968248165E+02 -0.33668924914E+01  0.78726941308E+02  0.11715017319E+03  0.81705179902E+02 0.  0.
          5    1    5    5  501    0  0.69663569318E+02 -0.65156131122E+01  0.33292503092E+03  0.34023026367E+03  0.47000000000E+01 0. -1.
        -13    1    6    6    0    0  0.26296586080E+02 -0.31436607580E+02  0.78948197933E+02  0.88952732912E+02  0.00000000000E+00 0.  1.
         14    1    6    6    0    0  0.26716620850E+01  0.28069715089E+02 -0.22125662502E+00  0.28197440273E+02  0.00000000000E+00 0. -1.
         -5    1    3    3    0  503 -0.65449819367E+02 -0.27216098974E+02 -0.26700603384E+02  0.75890757801E+02  0.47000000000E+01 0.  1.
         11    1    4    4    0    0  0.51083676394E+01 -0.20826863154E+02  0.37030551748E+02  0.42791534344E+02  0.00000000000E+00 0. -1.
        -12    1    4    4    0    0 -0.38290365755E+02  0.57925467732E+02  0.61841045136E+02  0.92982938140E+02  0.00000000000E+00 0.  1.
</event>
<event>
12    1  0.1046899E+000  0.2095470E+03  0.7818608E-02  0.1142322E+00
         21   -1    0    0  503  502  0.00000000000E+00  0.00000000000E+00  0.75640942665E+02  0.75640942665E+02  0.00000000000E+00 0. -1.
         21   -1    0    0  501  503 -0.00000000000E+00 -0.00000000000E+00 -0.69981212297E+03  0.69981212297E+03  0.00000000000E+00 0. -1.
          6    2    1    2  501    0 -0.66501083164E+02  0.91932497991E+02 -0.14957323148E+03  0.25745311353E+03  0.17617030352E+03 0.  0.
         24    2    3    3    0    0 -0.64609237189E+02  0.13171853330E+03 -0.97936813331E+02  0.19207026130E+03  0.75995001977E+02 0.  0.
         -6    2    1    2    0  502  0.66501083164E+02 -0.91932497991E+02 -0.47459794882E+03  0.51799995211E+03  0.17380091802E+03 0.  0.
        -24    2    5    5    0    0  0.29721999232E+02 -0.66255222444E+01 -0.36563396124E+03  0.37473369050E+03  0.76222374635E+02 0.  0.
          5    1    3    3  501    0 -0.18918459750E+01 -0.39786035306E+02 -0.51636418146E+02  0.65382852228E+02  0.47000000000E+01 0. -1.
        -11    1    4    4    0    0 -0.41094518129E+01  0.34294060662E+02 -0.63575543906E+02  0.72352055768E+02  0.00000000000E+00 0.  1.
         12    1    4    4    0    0 -0.60499785376E+02  0.97424472635E+02 -0.34361269425E+02  0.11971820553E+03  0.00000000000E+00 0. -1.
         -5    1    5    5    0  502  0.36779083933E+02 -0.85306975747E+02 -0.10896398758E+03  0.14326626161E+03  0.47000000000E+01 0.  1.
         11    1    6    6    0    0  0.49093584122E+02  0.11158339991E+02 -0.29695154066E+03  0.30118915328E+03  0.00000000000E+00 0. -1.
        -12    1    6    6    0    0 -0.19371584890E+02 -0.17783862235E+02 -0.68682420589E+02  0.73544537221E+02  0.00000000000E+00 0.  1.
</event>
<event>
12    1  0.1046899E+000  0.2260258E+03  0.7818608E-02  0.1129486E+00
         21   -1    0    0  503  502  0.00000000000E+00  0.00000000000E+00  0.12489619767E+03  0.12489619767E+03  0.00000000000E+00 0.  1.
         21   -1    0    0  501  503 -0.00000000000E+00 -0.00000000000E+00 -0.41116556114E+03  0.41116556114E+03  0.00000000000E+00 0.  1.
          6    2    1    2  501    0  0.12350096576E+03 -0.78586694089E+02 -0.12304998810E+03  0.25726390411E+03  0.17209026631E+03 0.  0.
         24    2    3    3    0    0  0.60131146395E+01  0.48665067375E+01 -0.38616634942E+02  0.90174368194E+02  0.81119244014E+02 0.  0.
         -6    2    1    2    0  502 -0.12350096576E+03  0.78586694089E+02 -0.16321937536E+03  0.27879785470E+03  0.17221882086E+03 0.  0.
        -24    2    5    5    0    0 -0.67299745724E+02 -0.24891679016E+02 -0.75145670423E+02  0.13167403496E+03  0.80884660100E+02 0.  0.
          5    1    3    3  501    0  0.11748785112E+03 -0.83453200826E+02 -0.84433353157E+02  0.16708953592E+03  0.47000000000E+01 0. -1.
        -11    1    4    4    0    0  0.72042210759E+00  0.39800114631E+01 -0.64051735933E+02  0.64179314232E+02  0.00000000000E+00 0.  1.
         12    1    4    4    0    0  0.52926925319E+01  0.88649527440E+00  0.25435100990E+02  0.25995053962E+02  0.00000000000E+00 0. -1.
         -5    1    5    5    0  502 -0.56201220034E+02  0.10347837310E+03 -0.88073704941E+02  0.14712381974E+03  0.47000000000E+01 0.  1.
         13    1    6    6    0    0 -0.65856452170E+02  0.56670549236E+01 -0.76437663739E+02  0.10105396698E+03  0.00000000000E+00 0. -1.
        -14    1    6    6    0    0 -0.14432935534E+01 -0.30558733940E+02  0.12919933160E+01  0.30620067978E+02  0.00000000000E+00 0.  1.
</event>
<event>
12    1  0.1046899E+000  0.1920358E+03  0.7818608E-02  0.1157236E+00
         21   -1    0    0  501  502  0.00000000000E+00  0.00000000000E+00  0.10199040627E+03  0.10199040627E+03  0.00000000000E+00 0. -1.
         21   -1    0    0  502  503 -0.00000000000E+00 -0.00000000000E+00 -0.40344421210E+03  0.40344421210E+03  0.00000000000E+00 0. -1.
         -6    2    1    2    0  503  0.47926495998E+02  0.68372394059E+02 -0.65523750863E+02  0.20290669556E+03  0.17293360543E+03 0.  0.
        -24    2    3    3    0    0 -0.20952119951E+02  0.67255019793E+02 -0.78940682885E+02  0.13256740124E+03  0.79876501173E+02 0.  0.
          6    2    1    2  501    0 -0.47926495998E+02 -0.68372394059E+02 -0.23593005497E+03  0.30252792281E+03  0.16996593764E+03 0.  0.
         24    2    5    5    0    0 -0.42245817676E+02 -0.59175550969E+02 -0.55568076080E+02  0.12178117884E+03  0.80351661446E+02 0.  0.
          5    1    5    5  501    0 -0.56806783223E+01 -0.91968430902E+01 -0.18036197889E+03  0.18074674397E+03  0.47000000000E+01 0. -1.
        -11    1    6    6    0    0 -0.91048926925E+01  0.83666466391E+01 -0.43947895135E+02  0.45654324370E+02  0.00000000000E+00 0.  1.
         12    1    6    6    0    0 -0.33140924983E+02 -0.67542197608E+02 -0.11620180945E+02  0.76126854471E+02  0.00000000000E+00 0. -1.
         -5    1    3    3    0  503  0.68878615949E+02  0.11173742659E+01  0.13416932022E+02  0.70339294318E+02  0.47000000000E+01 0.  1.
         11    1    4    4    0    0  0.28406208124E+02  0.42496371261E+02 -0.34264802153E+02  0.61538044305E+02  0.00000000000E+00 0. -1.
        -12    1    4    4    0    0 -0.49358328075E+02  0.24758648533E+02 -0.44675880732E+02  0.71029356936E+02  0.00000000000E+00 0.  1.
</event>
<event>
12    1  0.1046899E+000  0.1896259E+03  0.7818608E-02  0.1159023E+00
         21   -1    0    0  503  502  0.00000000000E+00  0.00000000000E+00  0.25713106731E+02  0.25713106731E+02  0.00000000000E+00 0. -1.
         21   -1    0    0  501  503 -0.00000000000E+00 -0.00000000000E+00 -0.17778046072E+04  0.17778046072E+04  0.00000000000E+00 0. -1.
          6    2    1    2  501    0  0.34934977153E+02  0.71771072403E+02 -0.12983592101E+04  0.13121336128E+04  0.17200709233E+03 0.  0.
         24    2    3    3    0    0 -0.31055882095E+02  0.84577068851E+02 -0.92031367217E+03  0.92812930836E+03  0.79555071852E+02 0.  0.
         -6    2    1    2    0  502 -0.34934977153E+02 -0.71771072403E+02 -0.45373229039E+03  0.49138410119E+03  0.17092046133E+03 0.  0.
        -24    2    5    5    0    0 -0.43764843665E+02  0.21737145619E+02 -0.18532409116E+03  0.20697804501E+03  0.78147471562E+02 0.  0.
          5    1    3    3  501    0  0.65990859248E+02 -0.12805996448E+02 -0.37804553794E+03  0.38400430441E+03  0.47000000000E+01 0. -1.
        -11    1    4    4    0    0  0.85106927753E+01  0.68915931641E+02 -0.72028353519E+03  0.72362297406E+03  0.00000000000E+00 0.  1.
         12    1    4    4    0    0 -0.39566574871E+02  0.15661137210E+02 -0.20003013698E+03  0.20450633430E+03  0.00000000000E+00 0. -1.
         -5    1    5    5    0  502  0.88298665119E+01 -0.93508218022E+02 -0.26840819923E+03  0.28440605618E+03  0.47000000000E+01 0.  1.
         13    1    6    6    0    0  0.20566017094E+02  0.13606483480E+02 -0.75668347726E+02  0.79585151250E+02  0.00000000000E+00 0. -1.
        -14    1    6    6    0    0 -0.64330860759E+02  0.81306621391E+01 -0.10965574343E+03  0.12739289376E+03  0.00000000000E+00 0.  1.
</event>
<event>
12    1  0.1046899E+000  0.2565705E+03  0.7818608E-02  0.1109344E+00
         21   -1    0    0  501  502  0.00000000000E+00  0.00000000000E+00  0.14609501562E+03  0.14609501562E+03  0.00000000000E+00 0.  1.
         21   -1    0    0  502  503 -0.00000000000E+00 -0.00000000000E+00 -0.10863102525E+04  0.10863102525E+04  0.00000000000E+00 0.  1.
         -6    2    1    2    0  503 -0.11644785431E+03 -0.15028798982E+03  0.21049198620E+01  0.25578063176E+03  0.17109271826E+03 0.  0.
        -24    2    3    3    0    0 -0.53363401935E+02 -0.16340451939E+03 -0.11622520318E+02  0.18973349637E+03  0.79467144442E+02 0.  0.
          6    2    1    2  501    0  0.11644785431E+03  0.15028798982E+03 -0.94232015676E+03  0.97662463637E+03  0.17228412544E+03 0.  0.
         24    2    5    5    0    0  0.88517515794E+02  0.11986748247E+03 -0.90554857561E+03  0.92112913874E+03  0.79101855216E+02 0.  0.
          5    1    5    5  501    0  0.27930338515E+02  0.30420507349E+02 -0.36771581155E+02  0.55495497633E+02  0.47000000000E+01 0. -1.
        -13    1    6    6    0    0 -0.13491749387E+02  0.18945552114E+02 -0.84844838170E+02  0.87975040839E+02  0.00000000000E+00 0.  1.
         14    1    6    6    0    0  0.10200926518E+03  0.10092193036E+03 -0.82070373744E+03  0.83315409790E+03  0.00000000000E+00 0. -1.
         -5    1    3    3    0  503 -0.63084452374E+02  0.13116529568E+02  0.13727440180E+02  0.66047135389E+02  0.47000000000E+01 0.  1.
         13    1    4    4    0    0 -0.17929903213E+02 -0.11408941466E+03  0.25890283720E+02  0.11835616907E+03  0.00000000000E+00 0. -1.
        -14    1    4    4    0    0 -0.35433498723E+02 -0.49315104731E+02 -0.37512804038E+02  0.71377327304E+02  0.00000000000E+00 0.  1.
</event>
<event>
12    1  0.1046899E+000  0.1911458E+03  0.7818608E-02  0.1157608E+00
         21   -1    0    0  501  502  0.00000000000E+00  0.00000000000E+00  0.67033525682E+03  0.67033525682E+03  0.00000000000E+00 0. -1.
         21   -1    0    0  502  503 -0.00000000000E+00 -0.00000000000E+00 -0.68976935535E+02  0.68976935535E+02  0.00000000000E+00 0. -1.
         -6    2    1    2    0  503  0.64915329560E+02  0.49074459992E+02  0.47179145201E+03  0.50904213463E+03  0.17295785036E+03 0.  0.
        -24    2    3    3    0    0  0.45223311641E+02 -0.42617856502E+02  0.21266856252E+03  0.23343005519E+03  0.73486349575E+02 0.  0.
          6    2    1    2  501    0 -0.64915329560E+02 -0.49074459992E+02  0.12956686928E+03  0.23027005773E+03  0.17208841692E+03 0.  0.
         24    2    5    5    0    0 -0.92463296431E+02 -0.76669536363E+02  0.72189265750E+02  0.16073835197E+03  0.78726416868E+02 0.  0.
          5    1    5    5  501    0  0.27547966871E+02  0.27595076371E+02  0.57377603527E+02  0.69531705755E+02  0.47000000000E+01 0. -1.
        -13    1    6    6    0    0 -0.28357281810E+02 -0.74177817308E+02  0.41996623786E+02  0.89834294241E+02  0.00000000000E+00 0.  1.
         14    1    6    6    0    0 -0.64106014620E+02 -0.24917190553E+01  0.30192641964E+02  0.70904057733E+02  0.00000000000E+00 0. -1.
         -5    1    3    3    0  503  0.19692017919E+02  0.91692316494E+02  0.25912288949E+03  0.27561207943E+03  0.47000000000E+01 0.  1.
         13    1    4    4    0    0 -0.11561348491E+02 -0.37373231208E+02  0.81593182843E+02  0.90486853610E+02  0.00000000000E+00 0. -1.
        -14    1    4    4    0    0  0.56784660132E+02 -0.52446252941E+01  0.13107537968E+03  0.14294320158E+03  0.00000000000E+00 0.  1.
</event>
<event>
12    1  0.1046899E+000  0.1783869E+03  0.7818608E-02  0.1169890E+00
         21   -1    0    0  503  502  0.00000000000E+00  0.00000000000E+00  0.29861658909E+04  0.29861658909E+04  0.00000000000E+00 0.  1.
         21   -1    0    0  501  503 -0.00000000000E+00 -0.00000000000E+00 -0.10659015218E+02  0.10659015218E+02  0.00000000000E+00 0.  1.
          6    2    1    2  501    0  0.40802842619E+02 -0.24754753387E+02  0.16428740100E+04  0.16523055703E+04  0.16970861767E+03 0.  0.
         24    2    3    3    0    0  0.19257317128E+02  0.44734931915E+02  0.76549694406E+03  0.77190473433E+03  0.86482883341E+02 0.  0.
         -6    2    1    2    0  502 -0.40802842619E+02  0.24754753387E+02  0.13326328657E+04  0.13445193359E+04  0.17188432182E+03 0.  0.
        -24    2    5    5    0    0 -0.29177044293E+02 -0.49671152141E+02  0.43362996671E+03  0.44235378735E+03  0.65752580830E+02 0.  0.
          5    1    3    3  501    0  0.21545525491E+02 -0.69489685302E+02  0.87737706597E+03  0.88040083594E+03  0.47000000000E+01 0. -1.
        -13    1    4    4    0    0  0.18934846628E+02  0.34172998109E+02  0.75786173895E+03  0.75886806335E+03  0.00000000000E+00 0.  1.
         14    1    4    4    0    0  0.32247049927E+00  0.10561933805E+02  0.76352051143E+01  0.13036670973E+02  0.00000000000E+00 0. -1.
         -5    1    5    5    0  502 -0.11625798326E+02  0.74425905528E+02  0.89900289896E+03  0.90216554852E+03  0.47000000000E+01 0.  1.
         13    1    6    6    0    0 -0.16912895976E+02 -0.14751386171E+02  0.35212249309E+03  0.35283693059E+03  0.00000000000E+00 0. -1.
        -14    1    6    6    0    0 -0.12264148316E+02 -0.34919765970E+02  0.81507473615E+02  0.89516856761E+02  0.00000000000E+00 0.  1.
</event>
<event>
12    1  0.1046899E+000  0.1797173E+03  0.7818608E-02  0.1168290E+00
         21   -1    0    0  503  502  0.00000000000E+00  0.00000000000E+00  0.15226244863E+03  0.15226244863E+03  0.00000000000E+00 0.  1.
         21   -1    0    0  501  503 -0.00000000000E+00 -0.00000000000E+00 -0.26499329436E+03  0.26499329436E+03  0.00000000000E+00 0.  1.
          6    2    1    2  501    0  0.10361479538E+02 -0.52300984005E+02  0.37618535472E+02  0.18361226631E+03  0.17162621286E+03 0.  0.
         24    2    3    3    0    0  0.14121026508E+02 -0.10133448281E+03  0.21892474301E+02  0.13176810368E+03  0.80096641127E+02 0.  0.
         -6    2    1    2    0  502 -0.10361479538E+02  0.52300984005E+02 -0.15034938120E+03  0.23364347668E+03  0.17070906415E+03 0.  0.
        -24    2    5    5    0    0 -0.66885951170E+02  0.58538386329E+02 -0.85242593821E+02  0.14707035820E+03  0.80392271528E+02 0.  0.
          5    1    3    3  501    0 -0.37595469698E+01  0.49033498808E+02  0.15726061172E+02  0.51844162629E+02  0.47000000000E+01 0. -1.
        -13    1    4    4    0    0 -0.32270191581E+02 -0.45888430423E+02  0.19644629836E+02  0.59439252963E+02  0.00000000000E+00 0.  1.
         14    1    4    4    0    0  0.46391218089E+02 -0.55446052389E+02  0.22478444646E+01  0.72328850717E+02  0.00000000000E+00 0. -1.
         -5    1    5    5    0  502  0.56524471632E+02 -0.62374023243E+01 -0.65106787376E+02  0.86573118480E+02  0.47000000000E+01 0.  1.
         13    1    6    6    0    0 -0.63516002094E+02  0.61465002548E+02 -0.98936463407E+02  0.13266745212E+03  0.00000000000E+00 0. -1.
        -14    1    6    6    0    0 -0.33699490758E+01 -0.29266162188E+01  0.13693869587E+02  0.14402906079E+02  0.00000000000E+00 0.  1.
</event>
<event>
12    1  0.1046899E+000  0.2145707E+03  0.7818608E-02  0.1138783E+00
         21   -1    0    0  503  502  0.00000000000E+00  0.00000000000E+00  0.22229782893E+02  0.22229782893E+02  0.00000000000E+00 0. -1.
         21   -1    0    0  501  503 -0.00000000000E+00 -0.00000000000E+00 -0.23958816592E+04  0.23958816592E+04  0.00000000000E+00 0. -1.
          6    2    1    2  501    0  0.11458238314E+03  0.36271287160E+02 -0.70627665871E+03  0.73698661445E+03  0.17285202470E+03 0.  0.
         24    2    3    3    0    0  0.63270363961E+02 -0.26853400597E+02 -0.22475684468E+03  0.24862090024E+03  0.81070763684E+02 0.  0.
         -6    2    1    2    0  502 -0.11458238314E+03 -0.36271287160E+02 -0.16673752176E+04  0.16811248277E+04  0.17775219003E+03 0.  0.
        -24    2    5    5    0    0 -0.58298975141E+02  0.24704218785E+02 -0.13195075718E+04  0.13234660191E+04  0.80330584018E+02 0.  0.
          5    1    3    3  501    0  0.51312019181E+02  0.63124687757E+02 -0.48151981403E+03  0.48836571421E+03  0.47000000000E+01 0. -1.
        -13    1    4    4    0    0  0.80181655611E+02 -0.18955440883E+02 -0.14562067607E+03  0.16731344218E+03  0.00000000000E+00 0.  1.
         14    1    4    4    0    0 -0.16911291650E+02 -0.78979597143E+01 -0.79136168612E+02  0.81307458056E+02  0.00000000000E+00 0. -1.
         -5    1    5    5    0  502 -0.56283408000E+02 -0.60975505946E+02 -0.34786764585E+03  0.35765880860E+03  0.47000000000E+01 0.  1.
         11    1    6    6    0    0  0.20983658450E+01 -0.71854114629E+01 -0.72645120034E+03  0.72648976576E+03  0.00000000000E+00 0. -1.
        -12    1    6    6    0    0 -0.60397340986E+02  0.31889630248E+02 -0.59305637143E+03  0.59697625331E+03  0.00000000000E+00 0.  1.
</event>
<event>
12    1  0.1046899E+000  0.1911029E+03  0.7818608E-02  0.1157587E+00
         21   -1    0    0  501  502  0.00000000000E+00  0.00000000000E+00  0.54639981994E+02  0.54639981994E+02  0.00000000000E+00 0. -1.
         21   -1    0    0  502  503 -0.00000000000E+00 -0.00000000000E+00 -0.27130888452E+04  0.27130888452E+04  0.00000000000E+00 0. -1.
         -6    2    1    2    0  503  0.54959302649E+02 -0.61175678052E+02 -0.12776452148E+03  0.22987845062E+03  0.17250316107E+03 0.  0.
        -24    2    3    3    0    0 -0.96622117286E+01 -0.86861950900E+02 -0.10043103669E+03  0.15501234264E+03  0.79398214029E+02 0.  0.
          6    2    1    2  501    0 -0.54959302649E+02  0.61175678052E+02 -0.25306843418E+04  0.25378503766E+04  0.17192529735E+03 0.  0.
         24    2    5    5    0    0 -0.10103869362E+03  0.40532381463E+02 -0.20546340977E+04  0.20591068327E+04  0.80919598749E+02 0.  0.
          5    1    5    5  501    0  0.46079390968E+02  0.20643296589E+02 -0.47605024405E+03  0.47874354390E+03  0.47000000000E+01 0. -1.
        -11    1    6    6    0    0 -0.40300602392E+02 -0.18728483440E+02 -0.10326380604E+04  0.10335938557E+04  0.00000000000E+00 0.  1.
         12    1    6    6    0    0 -0.60738091226E+02  0.59260864903E+02 -0.10219960373E+04  0.10255129770E+04  0.00000000000E+00 0. -1.
         -5    1    3    3    0  503  0.64621514378E+02  0.25686272849E+02 -0.27333484786E+02  0.74866107979E+02  0.47000000000E+01 0.  1.
         13    1    4    4    0    0  0.13867509696E+02 -0.23149765442E+02 -0.79479764802E+02  0.83936002276E+02  0.00000000000E+00 0. -1.
        -14    1    4    4    0    0 -0.23529721425E+02 -0.63712185458E+02 -0.20951271892E+02  0.71076340368E+02  0.00000000000E+00 0.  1.
</event>
<event>
12    1  0.1046899E+000  0.1874931E+03  0.7818608E-02  0.1161919E+00
         21   -1    0    0  503  502  0.00000000000E+00  0.00000000000E+00  0.30520507548E+03  0.30520507548E+03  0.00000000000E+00 0.  1.
         21   -1    0    0  501  503 -0.00000000000E+00 -0.00000000000E+00 -0.11499012476E+03  0.11499012476E+03  0.00000000000E+00 0.  1.
          6    2    1    2  501    0 -0.12950891216E+02  0.67616336318E+02  0.12717551530E+03  0.22238816061E+03  0.16894729288E+03 0.  0.
         24    2    3    3    0    0  0.39238367018E+02 -0.12014388011E+02  0.53835053871E+02  0.10211478777E+03  0.76454050849E+02 0.  0.
         -6    2    1    2    0  502  0.12950891216E+02 -0.67616336318E+02  0.63039435425E+02  0.19780703963E+03  0.17439598616E+03 0.  0.
        -24    2    5    5    0    0  0.73623212050E+02 -0.26011098311E+02  0.28130519019E+02  0.11624204230E+03  0.81387540257E+02 0.  0.
          5    1    3    3  501    0 -0.52189258235E+02  0.79630724329E+02  0.73340461425E+02  0.12027337284E+03  0.47000000000E+01 0. -1.
        -13    1    4    4    0    0  0.50350206930E+02 -0.28068361615E+02  0.16463136519E+02  0.59950071941E+02  0.00000000000E+00 0.  1.
         14    1    4    4    0    0 -0.11111839911E+02  0.16053973605E+02  0.37371917352E+02  0.42164715833E+02  0.00000000000E+00 0. -1.
         -5    1    5    5    0  502 -0.60672320834E+02 -0.41605238007E+02  0.34908916406E+02  0.81564997331E+02  0.47000000000E+01 0.  1.
         13    1    6    6    0    0  0.69941949698E+01 -0.29154834615E+02  0.38436767869E+02  0.48747392431E+02  0.00000000000E+00 0. -1.
        -14    1    6    6    0    0  0.66629017080E+02  0.31437363039E+01 -0.10306248849E+02  0.67494649865E+02  0.00000000000E+00 0.  1.
</event>
<event>
12    1  0.1046899E+000  0.1938798E+03  0.7818608E-02  0.1155438E+00
         21   -1    0    0  501  502  0.00000000000E+00  0.00000000000E+00  0.43429666055E+03  0.43429666055E+03  0.00000000000E+00 0.  1.
         21   -1    0    0  502  503 -0.00000000000E+00 -0.00000000000E+00 -0.86154975517E+02  0.86154975517E+02  0.00000000000E+00 0.  1.
         -6    2    1    2    0  503 -0.65235103884E+02  0.51295289100E+02  0.15395948373E+03  0.24605031336E+03  0.17306186353E+03 0.  0.
        -24    2    3    3    0    0 -0.10538603831E+02  0.22239489626E+01  0.21031081007E+01  0.77283751618E+02  0.76500634512E+02 0.  0.
          6    2    1    2  501    0  0.65235103884E+02 -0.51295289100E+02  0.19418220130E+03  0.27440132271E+03  0.17522138323E+03 0.  0.
         24    2    5    5    0    0  0.78920466734E+01 -0.52489479482E+01  0.18255941883E+03  0.19979789909E+03  0.80631403448E+02 0.  0.
          5    1    5    5  501    0  0.57343057210E+02 -0.46046341152E+02  0.11622782471E+02  0.74603423622E+02  0.47000000000E+01 0. -1.
        -13    1    6    6    0    0  0.90281275073E+01  0.13443202288E+02 -0.87322183233E-01  0.16193653053E+02  0.00000000000E+00 0.  1.
         14    1    6    6    0    0 -0.11360808339E+01 -0.18692150236E+02  0.18264674101E+03  0.18360424603E+03  0.00000000000E+00 0. -1.
         -5    1    3    3    0  503 -0.54696500052E+02  0.49071340137E+02  0.15185637563E+03  0.16876656174E+03  0.47000000000E+01 0.  1.
         11    1    4    4    0    0 -0.43263490689E+02  0.77685794206E+01 -0.82860158910E+00  0.43963246393E+02  0.00000000000E+00 0. -1.
        -12    1    4    4    0    0  0.32724886858E+02 -0.55446304580E+01  0.29317096898E+01  0.33320505225E+02  0.00000000000E+00 0.  1.
</event>
<event>
12    1  0.1046899E+000  0.2181534E+03  0.7818608E-02  0.1135302E+00
         21   -1    0    0  501  502  0.00000000000E+00  0.00000000000E+00  0.14160147550E+03  0.14160147550E+03  0.00000000000E+00 0.  1.
         21   -1    0    0  502  503 -0.00000000000E+00 -0.00000000000E+00 -0.34315062258E+03  0.34315062258E+03  0.00000000000E+00 0.  1.
         -6    2    1    2    0  503 -0.76925446376E+02  0.11070163924E+03 -0.13618109370E+03  0.25701565015E+03  0.17128741025E+03 0.  0.
        -24    2    3    3    0    0 -0.11777284252E+03  0.93922843724E+02 -0.11817050768E+03  0.20909374535E+03  0.84047501149E+02 0.  0.
          6    2    1    2  501    0  0.76925446376E+02 -0.11070163924E+03 -0.65368053388E+02  0.22773644793E+03  0.17151830830E+03 0.  0.
         24    2    5    5    0    0  0.17971455509E+02 -0.81895584712E+02  0.21952841071E+02  0.11840945938E+03  0.80678453322E+02 0.  0.
          5    1    5    5  501    0  0.58953990867E+02 -0.28806054525E+02 -0.87320894459E+02  0.10932698855E+03  0.47000000000E+01 0. -1.
        -11    1    6    6    0    0  0.42391162514E+02 -0.57005333692E+02  0.37387299306E+02  0.80277200238E+02  0.00000000000E+00 0.  1.
         12    1    6    6    0    0 -0.24419707005E+02 -0.24890251020E+02 -0.15434458234E+02  0.38132259139E+02  0.00000000000E+00 0. -1.
         -5    1    3    3    0  503  0.40847396148E+02  0.16778795513E+02 -0.18010586015E+02  0.47921904799E+02  0.47000000000E+01 0.  1.
         11    1    4    4    0    0 -0.68498416237E+02  0.99637385101E+02 -0.97620737193E+02  0.15540093264E+03  0.00000000000E+00 0. -1.
        -12    1    4    4    0    0 -0.49274426288E+02 -0.57145413767E+01 -0.20549770489E+02  0.53692812706E+02  0.00000000000E+00 0.  1.
</event>
<event>
12    1  0.1046899E+000  0.1989366E+03  0.7818608E-02  0.1150867E+00
         21   -1    0    0  501  502  0.00000000000E+00  0.00000000000E+00  0.25386490545E+03  0.25386490545E+03  0.00000000000E+00 0.  1.
         21   -1    0    0  502  503 -0.00000000000E+00 -0.00000000000E+00 -0.33603313487E+03  0.33603313487E+03  0.00000000000E+00 0.  1.
         -6    2    1    2    0  503 -0.95386996955E+02  0.32783371461E+02  0.17542241809E+03  0.26443111017E+03  0.17022737331E+03 0.  0.
        -24    2    3    3    0    0 -0.32153476217E+02  0.34320033056E+02  0.17862367782E+03  0.20092380714E+03  0.79071153370E+02 0.  0.
          6    2    1    2  501    0  0.95386996955E+02 -0.32783371461E+02 -0.25759064751E+03  0.32546693016E+03  0.17147114134E+03 0.  0.
         24    2    5    5    0    0 -0.17170808084E+02 -0.29044050116E+02 -0.10264479635E+03  0.13385913076E+03  0.79018473618E+02 0.  0.
          5    1    5    5  501    0  0.11255780504E+03 -0.37393213449E+01 -0.15494585116E+03  0.19160779940E+03  0.47000000000E+01 0. -1.
        -13    1    6    6    0    0  0.13020105827E+02  0.96800326145E+01 -0.76556078716E+02  0.78256369552E+02  0.00000000000E+00 0.  1.
         14    1    6    6    0    0 -0.30190913911E+02 -0.38724082730E+02 -0.26088717629E+02  0.55602761205E+02  0.00000000000E+00 0. -1.
         -5    1    3    3    0  503 -0.63233520738E+02 -0.15366615952E+01 -0.32012597324E+01  0.63507303026E+02  0.47000000000E+01 0.  1.
         13    1    4    4    0    0 -0.14045050593E+02  0.58926600484E+02  0.10514895587E+03  0.12135036305E+03  0.00000000000E+00 0. -1.
        -14    1    4    4    0    0 -0.18108425624E+02 -0.24606567428E+02  0.73474721951E+02  0.79573444094E+02  0.00000000000E+00 0.  1.
</event>
<event>
12    1  0.1046899E+000  0.4285868E+03  0.7818608E-02  0.1034373E+00
         21   -1    0    0  503  502  0.00000000000E+00  0.00000000000E+00  0.16543961142E+04  0.16543961142E+04  0.00000000000E+00 0. -1.
         21   -1    0    0  501  503 -0.00000000000E+00 -0.00000000000E+00 -0.11678982343E+03  0.11678982343E+03  0.00000000000E+00 0. -1.
          6    2    1    2  501    0 -0.37355142845E+03 -0.11810897967E+03  0.96978229653E+03  0.10602661739E+04  0.17377069946E+03 0.  0.
         24    2    3    3    0    0 -0.14685496380E+03 -0.14470711488E+02  0.27268413412E+03  0.31992833492E+03  0.78877884138E+02 0.  0.
         -6    2    1    2    0  502  0.37355142845E+03  0.11810897967E+03  0.56782399425E+03  0.71091976377E+03  0.17173357652E+03 0.  0.
        -24    2    5    5    0    0  0.33531477663E+03  0.57820653965E+02  0.45965691460E+03  0.58123194292E+03  0.10376350457E+03 0.  0.
          5    1    3    3  501    0 -0.22669646466E+03 -0.10363826818E+03  0.69709816242E+03  0.74033783894E+03  0.47000000000E+01 0. -1.
        -13    1    4    4    0    0 -0.52820453017E+02 -0.78623718453E+01  0.17990255159E+03  0.18766125124E+03  0.00000000000E+00 0.  1.
         14    1    4    4    0    0 -0.94034510782E+02 -0.66083396426E+01  0.92781582525E+02  0.13226708369E+03  0.00000000000E+00 0. -1.
         -5    1    5    5    0  502  0.38236651828E+02  0.60288325703E+02  0.10816707964E+03  0.12968782085E+03  0.47000000000E+01 0.  1.
         13    1    6    6    0    0  0.33120310228E+02 -0.22426549019E+02  0.30728992077E+02  0.50439825580E+02  0.00000000000E+00 0. -1.
        -14    1    6    6    0    0  0.30219446640E+03  0.80247202985E+02  0.42892792253E+03  0.53079211734E+03  0.00000000000E+00 0.  1.
</event>
<event>
12    1  0.1046899E+000  0.2754576E+03  0.7818608E-02  0.1098234E+00
         21   -1    0    0  503  502  0.00000000000E+00  0.00000000000E+00  0.11127952311E+03  0.11127952311E+03  0.00000000000E+00 0.  1.
         21   -1    0    0  501  503 -0.00000000000E+00 -0.00000000000E+00 -0.12225810830E+04  0.12225810830E+04  0.00000000000E+00 0.  1.
          6    2    1    2  501    0 -0.20135570983E+03  0.75011805586E+02 -0.11199265725E+03  0.29735376115E+03  0.17235431858E+03 0.  0.
         24    2    3    3    0    0 -0.67358764334E+02  0.63454620005E+01  0.84974970297E+01  0.10445426550E+03  0.79126595431E+02 0.  0.
         -6    2    1    2    0  502  0.20135570983E+03 -0.75011805586E+02 -0.99930890269E+03  0.10365068450E+04  0.17192226118E+03 0.  0.
        -24    2    5    5    0    0  0.61880582515E+02 -0.14730196758E+02 -0.21490575060E+03  0.23750898611E+03  0.78612032513E+02 0.  0.
          5    1    3    3  501    0 -0.13399694549E+03  0.68666343586E+02 -0.12049015428E+03  0.19289949565E+03  0.47000000000E+01 0. -1.
        -11    1    4    4    0    0 -0.73496604565E+02 -0.78949718137E+01  0.28431790515E+02  0.79198788970E+02  0.00000000000E+00 0.  1.
         12    1    4    4    0    0  0.61378402305E+01  0.14240433814E+02 -0.19934293485E+02  0.25255476528E+02  0.00000000000E+00 0. -1.
         -5    1    5    5    0  502  0.13947512731E+03 -0.60281608828E+02 -0.78440315209E+03  0.79899785889E+03  0.47000000000E+01 0.  1.
         11    1    6    6    0    0 -0.98621806437E+00 -0.26806812531E+02 -0.12047035184E+03  0.12342075796E+03  0.00000000000E+00 0. -1.
        -12    1    6    6    0    0  0.62866800579E+02  0.12076615773E+02 -0.94435398759E+02  0.11408822815E+03  0.00000000000E+00 0.  1.
</event>
<event>
12    1  0.1046899E+000  0.1759853E+03  0.7818608E-02  0.1172403E+00
         21   -1    0    0  501  502  0.00000000000E+00  0.00000000000E+00  0.12641313926E+03  0.12641313926E+03  0.00000000000E+00 0. -1.
         21   -1    0    0  502  503 -0.00000000000E+00 -0.00000000000E+00 -0.24685993190E+03  0.24685993190E+03  0.00000000000E+00 0. -1.
         -6    2    1    2    0  503  0.38075054475E+02 -0.29703296818E+02 -0.32834999738E+02  0.17902220130E+03  0.16923006747E+03 0.  0.
        -24    2    3    3    0    0  0.62816918617E+02  0.60396789453E+01 -0.68881195863E+02  0.12235529373E+03  0.79017439688E+02 0.  0.
          6    2    1    2  501    0 -0.38075054475E+02  0.29703296818E+02 -0.87611792899E+02  0.19425086986E+03  0.16650999541E+03 0.  0.
         24    2    5    5    0    0 -0.38262702098E+02  0.77906821581E+02 -0.85864820529E+02  0.14578689434E+03  0.79671475040E+02 0.  0.
          5    1    5    5  501    0  0.18764762276E+00 -0.48203524762E+02 -0.17469723703E+01  0.48463975524E+02  0.47000000000E+01 0. -1.
        -13    1    6    6    0    0 -0.56731999531E+02  0.25501659129E+02 -0.47536875145E+02  0.78285432155E+02  0.00000000000E+00 0.  1.
         14    1    6    6    0    0  0.18469297433E+02  0.52405162451E+02 -0.38327945384E+02  0.67501462181E+02  0.00000000000E+00 0. -1.
         -5    1    3    3    0  503 -0.24741864142E+02 -0.35742975763E+02  0.36046196125E+02  0.56666907563E+02  0.47000000000E+01 0.  1.
         13    1    4    4    0    0 -0.12000045541E+02 -0.31256219034E+01  0.79447696702E+01  0.14727184740E+02  0.00000000000E+00 0. -1.
        -14    1    4    4    0    0  0.74816964158E+02  0.91653008487E+01 -0.76825965533E+02  0.10762810899E+03  0.00000000000E+00 0.  1.
</event>
<event>
12    1  0.1046899E+000  0.1955346E+03  0.7818608E-02  0.1154062E+00
         21   -1    0    0  503  502  0.00000000000E+00  0.00000000000E+00  0.68069232983E+02  0.68069232983E+02  0.00000000000E+00 0. -1.
         21   -1    0    0  501  503 -0.00000000000E+00 -0.00000000000E+00 -0.68981437357E+03  0.68981437357E+03  0.00000000000E+00 0.  1.
          6    2    1    2  501    0  0.10228023217E+02  0.91734792655E+02 -0.14490947167E+03  0.24337736670E+03  0.17237721137E+03 0.  0.
         24    2    3    3    0    0  0.57093053553E+02  0.39340232418E+02 -0.13682857889E+03  0.17246254569E+03  0.78828922447E+02 0.  0.
         -6    2    1    2    0  502 -0.10228023217E+02 -0.91734792655E+02 -0.47683566891E+03  0.51450623985E+03  0.16977788740E+03 0.  0.
        -24    2    5    5    0    0  0.56589943578E+02 -0.50989816914E+02 -0.34704846553E+03  0.36287642122E+03  0.73717545452E+02 0.  0.
          5    1    3    3  501    0 -0.46865030336E+02  0.52394560237E+02 -0.80808927773E+01  0.70914821010E+02  0.47000000000E+01 0. -1.
        -13    1    4    4    0    0  0.31338626413E+01 -0.16106985289E+02 -0.64485074713E+02  0.66540070115E+02  0.00000000000E+00 0.  1.
         14    1    4    4    0    0  0.53959190912E+02  0.55447217708E+02 -0.72343504178E+02  0.10592247558E+03  0.00000000000E+00 0. -1.
         -5    1    5    5    0  502 -0.66817966795E+02 -0.40744975741E+02 -0.12978720338E+03  0.15162981862E+03  0.47000000000E+01 0.  1.
         11    1    6    6    0    0  0.54886892352E+02 -0.23108693072E+02 -0.11845559696E+03  0.13258322329E+03  0.00000000000E+00 0. -1.
        -12    1    6    6    0    0  0.17030512262E+01 -0.27881123842E+02 -0.22859286858E+03  0.23029319793E+03  0.00000000000E+00 0.  1.
</event>
<event>
12    1  0.1046899E+000  0.2249751E+03  0.7818608E-02  0.1130828E+00
         21   -1    0    0  503  502  0.00000000000E+00  0.00000000000E+00  0.93760264014E+02  0.93760264014E+02  0.00000000000E+00 0.  1.
         21   -1    0    0  501  503 -0.00000000000E+00 -0.00000000000E+00 -0.64046079027E+03  0.64046079027E+03  0.00000000000E+00 0.  1.
          6    2    1    2  501    0  0.12154355714E+03 -0.86209661332E+02 -0.42278153126E+03  0.47737532115E+03  0.16412809658E+03 0.  0.
         24    2    3    3    0    0  0.81791143191E+02 -0.97476310292E+02 -0.19850544724E+03  0.24927656260E+03  0.80888626539E+02 0.  0.
         -6    2    1    2    0  502 -0.12154355714E+03  0.86209661332E+02 -0.12391899500E+03  0.25684573314E+03  0.16854931420E+03 0.  0.
        -24    2    5    5    0    0 -0.24121595849E+02  0.30438992292E+02  0.21844413260E+00  0.89413359140E+02  0.80537677125E+02 0.  0.
          5    1    3    3  501    0  0.39752413947E+02  0.11266648960E+02 -0.22427608402E+03  0.22809875856E+03  0.47000000000E+01 0. -1.
        -11    1    4    4    0    0 -0.11352104426E+02 -0.28642854072E+02 -0.68825279936E+02  0.75406912963E+02  0.00000000000E+00 0.  1.
         12    1    4    4    0    0  0.93143247617E+02 -0.68833456219E+02 -0.12968016730E+03  0.17386964963E+03  0.00000000000E+00 0. -1.
         -5    1    5    5    0  502 -0.97421961289E+02  0.55770669040E+02 -0.12413743914E+03  0.16743237400E+03  0.47000000000E+01 0.  1.
         13    1    6    6    0    0  0.99073053995E+01 -0.94477222960E+01  0.27197848159E+02  0.30448926111E+02  0.00000000000E+00 0. -1.
        -14    1    6    6    0    0 -0.34028901249E+02  0.39886714588E+02 -0.26979404026E+02  0.58964433029E+02  0.00000000000E+00 0.  1.
</event>
<event>
12    1  0.1046899E+000  0.1947136E+03  0.7818608E-02  0.1154715E+00
         21   -1    0    0  501  502  0.00000000000E+00  0.00000000000E+00  0.90494858306E+03  0.90494858306E+03  0.00000000000E+00 0.  1.
         21   -1    0    0  502  503 -0.00000000000E+00 -0.00000000000E+00 -0.42173936264E+02  0.42173936264E+02  0.00000000000E+00 0.  1.
         -6    2    1    2    0  503  0.76443312931E+02  0.41927185723E+02  0.36795498103E+03  0.41537081723E+03  0.17187372908E+03 0.  0.
        -24    2    3    3    0    0  0.17935056730E+02 -0.17745743124E+02  0.28895147039E+03  0.30027208060E+03  0.77677490227E+02 0.  0.
          6    2    1    2  501    0 -0.76443312931E+02 -0.41927185723E+02  0.49481966577E+03  0.53175170209E+03  0.17410313626E+03 0.  0.
         24    2    5    5    0    0 -0.55268134770E+02  0.41237790949E+02  0.32368889639E+03  0.34025070538E+03  0.78999485706E+02 0.  0.
          5    1    5    5  501    0 -0.21175178160E+02 -0.83164976672E+02  0.17113076938E+03  0.19150099671E+03  0.47000000000E+01 0. -1.
        -13    1    6    6    0    0  0.19455338303E+02  0.13622546831E+02  0.52901314828E+02  0.57988215020E+02  0.00000000000E+00 0.  1.
         14    1    6    6    0    0 -0.74723473074E+02  0.27615244118E+02  0.27078758156E+03  0.28226249036E+03  0.00000000000E+00 0. -1.
         -5    1    3    3    0  503  0.58508256201E+02  0.59672928846E+02  0.79003510636E+02  0.11509873663E+03  0.47000000000E+01 0.  1.
         13    1    4    4    0    0 -0.14000315664E+02 -0.11480307310E+02  0.24455921582E+03  0.24522849821E+03  0.00000000000E+00 0. -1.
        -14    1    4    4    0    0  0.31935372394E+02 -0.62654358140E+01  0.44392254574E+02  0.55043582388E+02  0.00000000000E+00 0.  1.
</event>
<event>
12    1  0.1046899E+000  0.3353673E+03  0.7818608E-02  0.1068846E+00
         21   -1    0    0  503  502  0.00000000000E+00  0.00000000000E+00  0.23195626679E+03  0.23195626679E+03  0.00000000000E+00 0. -1.
         21   -1    0    0  501  503 -0.00000000000E+00 -0.00000000000E+00 -0.73173451837E+03  0.73173451837E+03  0.00000000000E+00 0. -1.
          6    2    1    2  501    0  0.32139757894E+01 -0.28788948126E+03  0.30293144811E+02  0.33673271862E+03  0.17199001747E+03 0.  0.
         24    2    3    3    0    0 -0.50100675189E+02 -0.25044456992E+03  0.40416262605E+02  0.27063324126E+03  0.79851842392E+02 0.  0.
         -6    2    1    2    0  502 -0.32139757894E+01  0.28788948126E+03 -0.53007139639E+03  0.62695806654E+03  0.17090947566E+03 0.  0.
        -24    2    5    5    0    0  0.43351611821E+02  0.14359125597E+03 -0.36795249938E+03  0.40493338652E+03  0.78001247923E+02 0.  0.
          5    1    3    3  501    0  0.53314650978E+02 -0.37444911334E+02 -0.10123117793E+02  0.66099477362E+02  0.47000000000E+01 0. -1.
        -13    1    4    4    0    0  0.18960524271E+02 -0.88758585709E+02  0.26199700852E+01  0.90798966189E+02  0.00000000000E+00 0.  1.
         14    1    4    4    0    0 -0.69061199459E+02 -0.16168598421E+03  0.37796292520E+02  0.17983427507E+03  0.00000000000E+00 0. -1.
         -5    1    5    5    0  502 -0.46565587610E+02  0.14429822529E+03 -0.16211889701E+03  0.22202468002E+03  0.47000000000E+01 0.  1.
         13    1    6    6    0    0 -0.13109921972E+02  0.39525485776E+02 -0.16305828892E+03  0.16829182887E+03  0.00000000000E+00 0. -1.
        -14    1    6    6    0    0  0.56461533793E+02  0.10406577019E+03 -0.20489421046E+03  0.23664155764E+03  0.00000000000E+00 0.  1.
</event>
<event>
12    1  0.1046899E+000  0.1792907E+03  0.7818608E-02  0.1168500E+00
         21   -1    0    0  501  502  0.00000000000E+00  0.00000000000E+00  0.42324906558E+03  0.42324906558E+03  0.00000000000E+00 0. -1.
         21   -1    0    0  502  503 -0.00000000000E+00 -0.00000000000E+00 -0.76291620525E+02  0.76291620525E+02  0.00000000000E+00 0. -1.
         -6    2    1    2    0  503  0.36328705361E+02  0.37344694901E+02  0.19063395245E+03  0.26169920293E+03  0.17155397959E+03 0.  0.
        -24    2    3    3    0    0  0.66359062778E+02  0.61493577730E+01  0.51686089391E+02  0.11608474597E+03  0.79767641287E+02 0.  0.
          6    2    1    2  501    0 -0.36328705361E+02 -0.37344694901E+02  0.15632349261E+03  0.23784148318E+03  0.17151424347E+03 0.  0.
         24    2    5    5    0    0  0.38132882848E+02 -0.30689808453E+02  0.41522833260E+02  0.10076450839E+03  0.77674702266E+02 0.  0.
          5    1    5    5  501    0 -0.74461588209E+02 -0.66548864475E+01  0.11480065935E+03  0.13707697479E+03  0.47000000000E+01 0. -1.
        -13    1    6    6    0    0  0.18152151198E+02 -0.49064976119E+02  0.14153310584E+01  0.52334268283E+02  0.00000000000E+00 0.  1.
         14    1    6    6    0    0  0.19980731650E+02  0.18375167666E+02  0.40107502202E+02  0.48430240108E+02  0.00000000000E+00 0. -1.
         -5    1    3    3    0  503 -0.30030357416E+02  0.31195337128E+02  0.13894786306E+03  0.14561445696E+03  0.47000000000E+01 0.  1.
         13    1    4    4    0    0  0.48401890879E+02  0.35149983177E+02  0.55704315740E+02  0.81738822784E+02  0.00000000000E+00 0. -1.
        -14    1    4    4    0    0  0.17957171898E+02 -0.29000625404E+02 -0.40182263494E+01  0.34345923185E+02  0.00000000000E+00 0.  1.
</event>
<event>
12    1  0.1046899E+000  0.2623413E+03  0.7818608E-02  0.1105812E+00
         21   -1    0    0  503  502  0.00000000000E+00  0.00000000000E+00  0.38647685843E+03  0.38647685843E+03  0.00000000000E+00 0.  1.
         21   -1    0    0  501  503 -0.00000000000E+00 -0.00000000000E+00 -0.18635735824E+03  0.18635735824E+03  0.00000000000E+00 0.  1.
          6    2    1    2  501    0 -0.13830653088E+03  0.14243677011E+03  0.38659925596E+02  0.26517456223E+03  0.17148186098E+03 0.  0.
         24    2    3    3    0    0 -0.15037121213E+03  0.15811336908E+03  0.53764712722E+02  0.23984558903E+03  0.83808849901E+02 0.  0.
         -6    2    1    2    0  502  0.13830653088E+03 -0.14243677011E+03  0.16145957460E+03  0.30765965445E+03  0.17078740816E+03 0.  0.
        -24    2    5    5    0    0  0.34576168331E+02 -0.22852995445E+02  0.11086055132E+03  0.14139896026E+03  0.77368167263E+02 0.  0.
          5    1    3    3  501    0  0.12064681255E+02 -0.15676598977E+02 -0.15104787126E+02  0.25328973200E+02  0.47000000000E+01 0. -1.
        -13    1    4    4    0    0 -0.46220670079E+02  0.89557396905E+02  0.55685182774E+02  0.11514216110E+03  0.00000000000E+00 0.  1.
         14    1    4    4    0    0 -0.10415054205E+03  0.68555972178E+02 -0.19204700516E+01  0.12470342792E+03  0.00000000000E+00 0. -1.
         -5    1    5    5    0  502  0.10373036254E+03 -0.11958377466E+03  0.50599023274E+02  0.16626069419E+03  0.47000000000E+01 0.  1.
         11    1    6    6    0    0  0.34975999545E+02  0.20339515690E+02  0.32398913509E+02  0.51833445180E+02  0.00000000000E+00 0. -1.
        -12    1    6    6    0    0 -0.39983121401E+00 -0.43192511134E+02  0.78461637812E+02  0.89565515078E+02  0.00000000000E+00 0.  1.
</event>
<event>
12    1  0.1046899E+000  0.1790620E+03  0.7818608E-02  0.1168845E+00
         21   -1    0    0  501  502  0.00000000000E+00  0.00000000000E+00  0.57185650108E+02  0.57185650108E+02  0.00000000000E+00 0. -1.
         21   -1    0    0  502  503 -0.00000000000E+00 -0.00000000000E+00 -0.63021168120E+03  0.63021168120E+03  0.00000000000E+00 0. -1.
         -6    2    1    2    0  503  0.44259321556E+02 -0.43508870449E+01 -0.17059790123E+03  0.24692984991E+03  0.17289560177E+03 0.  0.
        -24    2    3    3    0    0  0.90273824505E+02 -0.34835462435E+02 -0.10641899868E+03  0.16214974994E+03  0.74864312549E+02 0.  0.
          6    2    1    2  501    0 -0.44259321556E+02  0.43508870449E+01 -0.40242812986E+03  0.44046748140E+03  0.17345139001E+03 0.  0.
         24    2    5    5    0    0  0.14659388426E+02 -0.28771659924E+02 -0.10787043180E+03  0.13821784121E+03  0.80158814162E+02 0.  0.
          5    1    5    5  501    0 -0.58918709982E+02  0.33122546969E+02 -0.29455769807E+03  0.30224964019E+03  0.47000000000E+01 0. -1.
        -11    1    6    6    0    0 -0.22328739225E+02  0.13638280027E+02 -0.16575772557E+02  0.30973077234E+02  0.00000000000E+00 0.  1.
         12    1    6    6    0    0  0.36988127652E+02 -0.42409939951E+02 -0.91294659241E+02  0.10724476397E+03  0.00000000000E+00 0. -1.
         -5    1    3    3    0  503 -0.46014502948E+02  0.30484575390E+02 -0.64178902553E+02  0.84780099972E+02  0.47000000000E+01 0.  1.
         11    1    4    4    0    0  0.90502227279E+02 -0.18251951916E+02 -0.53528015333E+02  0.10671942333E+03  0.00000000000E+00 0. -1.
        -12    1    4    4    0    0 -0.22840277431E+00 -0.16583510519E+02 -0.52890983343E+02  0.55430326608E+02  0.00000000000E+00 0.  1.
</event>
<event>
12    1  0.1046899E+000  0.5069948E+03  0.7818608E-02  0.1012027E+00
         21   -1    0    0  503  502  0.00000000000E+00  0.00000000000E+00  0.14258537398E+04  0.14258537398E+04  0.00000000000E+00 0.  1.
         21   -1    0    0  501  503 -0.00000000000E+00 -0.00000000000E+00 -0.26245732712E+03  0.26245732712E+03  0.00000000000E+00 0. -1.
          6    2    1    2  501    0 -0.44891188865E+03 -0.16030834280E+03  0.10546400672E+04  0.11697826833E+04  0.17001531185E+03 0.  0.
         24    2    3    3    0    0 -0.45911091675E+03 -0.16285819955E+03  0.10410171488E+04  0.11519446383E+04  0.77162935261E+02 0.  0.
         -6    2    1    2    0  502  0.44891188865E+03  0.16030834280E+03  0.10875634542E+03  0.51852838356E+03  0.17269364015E+03 0.  0.
        -24    2    5    5    0    0  0.41699588966E+03  0.18718041536E+03  0.91628157719E+02  0.47318299693E+03  0.81144004134E+02 0.  0.
          5    1    3    3  501    0  0.10199028099E+02  0.25498567453E+01  0.13622918388E+02  0.17838044988E+02  0.47000000000E+01 0. -1.
        -13    1    4    4    0    0 -0.15616535484E+03 -0.92240091778E+02  0.41497365456E+03  0.45287855608E+03  0.00000000000E+00 0.  1.
         14    1    4    4    0    0 -0.30294556190E+03 -0.70618107772E+02  0.62604349428E+03  0.69906608225E+03  0.00000000000E+00 0. -1.
         -5    1    5    5    0  502  0.31915998992E+02 -0.26872072559E+02  0.17128187701E+02  0.45345386636E+02  0.47000000000E+01 0.  1.
         11    1    6    6    0    0  0.19278315973E+02 -0.19952405031E+01 -0.90740047061E+01  0.21400280671E+02  0.00000000000E+00 0. -1.
        -12    1    6    6    0    0  0.39771757368E+03  0.18917565587E+03  0.10070216242E+03  0.45178271625E+03  0.00000000000E+00 0.  1.
</event>
<event>
12    1  0.1046899E+000  0.2196383E+03  0.7818608E-02  0.1134386E+00
         21   -1    0    0  501  502  0.00000000000E+00  0.00000000000E+00  0.37076750099E+03  0.37076750099E+03  0.00000000000E+00 0. -1.
         21   -1    0    0  502  503 -0.00000000000E+00 -0.00000000000E+00 -0.12937602960E+03  0.12937602960E+03  0.00000000000E+00 0.  1.
         -6    2    1    2    0  503  0.13472912941E+03  0.20850740870E+02  0.12040753337E+03  0.25047749613E+03  0.17220426902E+03 0.  0.
        -24    2    3    3    0    0  0.10332543500E+03 -0.53828899710E+01  0.15041707543E+03  0.19951615761E+03  0.80475334989E+02 0.  0.
          6    2    1    2  501    0 -0.13472912941E+03 -0.20850740870E+02  0.12098393802E+03  0.24966603445E+03  0.17061454742E+03 0.  0.
         24    2    5    5    0    0 -0.15030663950E+03  0.22145817711E+02  0.88653806315E+02  0.19346380775E+03  0.80537099614E+02 0.  0.
          5    1    5    5  501    0  0.15577510088E+02 -0.42996558581E+02  0.32330131708E+02  0.56202226705E+02  0.47000000000E+01 0. -1.
        -13    1    6    6    0    0 -0.51608198581E+02 -0.30525072484E+02  0.34436169112E+02  0.69145035643E+02  0.00000000000E+00 0.  1.
         14    1    6    6    0    0 -0.98698440919E+02  0.52670890195E+02  0.54217637203E+02  0.12431877210E+03  0.00000000000E+00 0. -1.
         -5    1    3    3    0  503  0.31403694410E+02  0.26233630841E+02 -0.30009542062E+02  0.50961338527E+02  0.47000000000E+01 0.  1.
         11    1    4    4    0    0  0.92402945421E+02 -0.41721807020E+01  0.64181520593E+02  0.11258320923E+03  0.00000000000E+00 0. -1.
        -12    1    4    4    0    0  0.10922489582E+02 -0.12107092690E+01  0.86235554838E+02  0.86932948379E+02  0.00000000000E+00 0.  1.
</event>
<event>
12    1  0.1046899E+000  0.2451640E+03  0.7818608E-02  0.1117121E+00
         21   -1    0    0  503  502  0.00000000000E+00  0.00000000000E+00  0.18787041568E+03  0.18787041568E+03  0.00000000000E+00 0. -1.
         21   -1    0    0  501  503 -0.00000000000E+00 -0.00000000000E+00 -0.36744015106E+03  0.36744015106E+03  0.00000000000E+00 0.  1.
          6    2    1    2  501    0  0.69653063921E+02  0.15754317997E+03  0.16598108236E+02  0.24132459879E+03  0.16819828155E+03 0.  0.
         24    2    3    3    0    0 -0.10049999183E+02  0.34233391018E+02  0.19103463811E+02  0.94402003092E+02  0.85286976228E+02 0.  0.
         -6    2    1    2    0  502 -0.69653063921E+02 -0.15754317997E+03 -0.19616784361E+03  0.31398596795E+03  0.17445332423E+03 0.  0.
        -24    2    5    5    0    0  0.20194174105E+00 -0.15294887083E+03 -0.15254573132E+03  0.23136751860E+03  0.82869358941E+02 0.  0.
          5    1    3    3  501    0  0.79703063103E+02  0.12330978895E+03 -0.25053555752E+01  0.14692259570E+03  0.47000000000E+01 0. -1.
        -11    1    4    4    0    0  0.22989405295E+02  0.36877585648E+02 -0.15826880100E+02  0.46248883368E+02  0.00000000000E+00 0.  1.
         12    1    4    4    0    0 -0.33039404478E+02 -0.26441946305E+01  0.34930343911E+02  0.48153119725E+02  0.00000000000E+00 0. -1.
         -5    1    5    5    0  502 -0.69855005662E+02 -0.45943091409E+01 -0.43622112296E+02  0.82618449354E+02  0.47000000000E+01 0.  1.
         11    1    6    6    0    0  0.34172898574E+02 -0.27935989252E+02 -0.33256866702E+02  0.55265049311E+02  0.00000000000E+00 0. -1.
        -12    1    6    6    0    0 -0.33970956833E+02 -0.12501288158E+03 -0.11928886461E+03  0.17610246929E+03  0.00000000000E+00 0.  1.
</event>
<event>
12    1  0.1046899E+000  0.2507648E+03  0.7818608E-02  0.1113317E+00
         21   -1    0    0  501  502  0.00000000000E+00  0.00000000000E+00  0.17894711692E+03  0.17894711692E+03  0.00000000000E+00 0. -1.
         21   -1    0    0  502  503 -0.00000000000E+00 -0.00000000000E+00 -0.52743435871E+03  0.52743435871E+03  0.00000000000E+00 0. -1.
         -6    2    1    2    0  503 -0.17778787983E+03  0.39194678706E+02  0.31588175114E+02  0.25274652850E+03  0.17244779445E+03 0.  0.
        -24    2    3    3    0    0 -0.11014471376E+03 -0.42658950576E+02  0.28222756936E+01  0.14263212657E+03  0.79901903964E+02 0.  0.
          6    2    1    2  501    0  0.17778787983E+03 -0.39194678706E+02 -0.38007541691E+03  0.45363494713E+03  0.16787670971E+03 0.  0.
         24    2    5    5    0    0  0.17140519522E+03  0.17107884942E+02 -0.31165230530E+03  0.36467130546E+03  0.78648464401E+02 0.  0.
          5    1    5    5  501    0  0.63826846109E+01 -0.56302563648E+02 -0.68423111609E+02  0.88963641665E+02  0.47000000000E+01 0. -1.
        -13    1    6    6    0    0  0.16327314325E+03 -0.26127764466E+01 -0.29654502180E+03  0.33853197170E+03  0.00000000000E+00 0.  1.
         14    1    6    6    0    0  0.81320519728E+01  0.19720661389E+02 -0.15107283499E+02  0.26139333764E+02  0.00000000000E+00 0. -1.
         -5    1    3    3    0  503 -0.67643166070E+02  0.81853629282E+02  0.28765899421E+02  0.11011440193E+03  0.47000000000E+01 0.  1.
         11    1    4    4    0    0 -0.12104253970E+03 -0.45063163128E+02 -0.45809006872E+01  0.12923996959E+03  0.00000000000E+00 0. -1.
        -12    1    4    4    0    0  0.10897825939E+02  0.24042125516E+01  0.74031763808E+01  0.13392156985E+02  0.00000000000E+00 0.  1.
</event>
<event>
12    1  0.1046899E+000  0.2701675E+03  0.7818608E-02  0.1101237E+00
         21   -1    0    0  501  502  0.00000000000E+00  0.00000000000E+00  0.56591604597E+02  0.56591604597E+02  0.00000000000E+00 0. -1.
         21   -1    0    0  502  503 -0.00000000000E+00 -0.00000000000E+00 -0.21032907781E+04  0.21032907781E+04  0.00000000000E+00 0.  1.
         -6    2    1    2    0  503  0.55491741865E+02  0.20014441180E+03 -0.16952845690E+04  0.17166187089E+04  0.17220018261E+03 0.  0.
        -24    2    3    3    0    0  0.38619110505E+02  0.15360690132E+03 -0.78304050108E+03  0.80302046294E+03  0.81258364162E+02 0.  0.
          6    2    1    2  501    0 -0.55491741865E+02 -0.20014441180E+03 -0.35141460450E+03  0.44326367379E+03  0.17278119473E+03 0.  0.
         24    2    5    5    0    0 -0.35984024749E+02 -0.22184921360E+03 -0.32794006425E+03  0.40551723703E+03  0.79922588650E+02 0.  0.
          5    1    5    5  501    0 -0.19507717116E+02  0.21704801796E+02 -0.23474540251E+02  0.37746436760E+02  0.47000000000E+01 0. -1.
        -13    1    6    6    0    0  0.64104631429E+01 -0.14036810523E+03 -0.24141620779E+03  0.27933149552E+03  0.00000000000E+00 0.  1.
         14    1    6    6    0    0 -0.42394487892E+02 -0.81481108366E+02 -0.86523856457E+02  0.12618574151E+03  0.00000000000E+00 0. -1.
         -5    1    3    3    0  503  0.16872631360E+02  0.46537510476E+02 -0.91224406794E+03  0.91359824598E+03  0.47000000000E+01 0.  1.
         13    1    4    4    0    0 -0.72830969041E+01  0.88984950229E+02 -0.28338979478E+03  0.29712142409E+03  0.00000000000E+00 0. -1.
        -14    1    4    4    0    0  0.45902207410E+02  0.64621951094E+02 -0.49965070630E+03  0.50589903885E+03  0.00000000000E+00 0.  1.
</event>
<event>
12    1  0.1046899E+000  0.1760809E+03  0.7818608E-02  0.1171651E+00
         21   -1    0    0  503  502  0.00000000000E+00  0.00000000000E+00  0.12325507595E+04  0.12325507595E+04  0.00000000000E+00 0.  1.
         21   -1    0    0  501  503 -0.00000000000E+00 -0.00000000000E+00 -0.36637714151E+02  0.36637714151E+02  0.00000000000E+00 0.  1.
          6    2    1    2  501    0  0.28300886858E+02  0.30868824060E+02  0.95322828796E+03  0.96935456705E+03  0.17102714166E+03 0.  0.
         24    2    3    3    0    0  0.18865533740E+02  0.82350718168E+02  0.76550415559E+03  0.77441393202E+03  0.81134312932E+02 0.  0.
         -6    2    1    2    0  502 -0.28300886858E+02 -0.30868824060E+02  0.24268475737E+03  0.29983390659E+03  0.17102823037E+03 0.  0.
        -24    2    5    5    0    0 -0.11383187237E+02 -0.85721683904E+02  0.14723763593E+03  0.18835616089E+03  0.79506841657E+02 0.  0.
          5    1    3    3  501    0  0.94353531177E+01 -0.51481894107E+02  0.18772413237E+03  0.19494063502E+03  0.47000000000E+01 0. -1.
        -13    1    4    4    0    0  0.49584472799E+02  0.53525232175E+02  0.41225382735E+03  0.41866070819E+03  0.00000000000E+00 0.  1.
         14    1    4    4    0    0 -0.30718939059E+02  0.28825485992E+02  0.35325032825E+03  0.35575322383E+03  0.00000000000E+00 0. -1.
         -5    1    5    5    0  502 -0.16917699620E+02  0.54852859844E+02  0.95447121438E+02  0.11147774569E+03  0.47000000000E+01 0.  1.
         11    1    6    6    0    0 -0.27449932777E+02 -0.46122553260E+02  0.25669254888E+02  0.59495372721E+02  0.00000000000E+00 0. -1.
        -12    1    6    6    0    0  0.16066745540E+02 -0.39599130644E+02  0.12156838104E+03  0.12886078817E+03  0.00000000000E+00 0.  1.
</event>
<event>
12    1  0.1046899E+000  0.1897595E+03  0.7818608E-02  0.1158710E+00
         21   -1    0    0  503  502  0.00000000000E+00  0.00000000000E+00  0.63167455372E+03  0.63167455372E+03  0.00000000000E+00 0.  1.
         21   -1    0    0  501  503 -0.00000000000E+00 -0.00000000000E+00 -0.67953520859E+02  0.67953520859E+02  0.00000000000E+00 0.  1.
          6    2    1    2  501    0 -0.28533908859E+02 -0.73669954783E+02  0.42245501469E+03  0.46305940055E+03  0.17237842905E+03 0.  0.
         24    2    3    3    0    0 -0.32492625916E+02 -0.40681483560E+02  0.41859551405E+03  0.42928224230E+03  0.79688677507E+02 0.  0.
         -6    2    1    2    0  502  0.28533908859E+02  0.73669954783E+02  0.14126601817E+03  0.23656867403E+03  0.17253174622E+03 0.  0.
        -24    2    5    5    0    0 -0.47985459448E+02  0.61949087264E+02  0.99089388768E+02  0.14828758586E+03  0.77654410195E+02 0.  0.
          5    1    3    3  501    0  0.39587170565E+01 -0.32988471223E+02  0.38595006432E+01  0.33777158251E+02  0.47000000000E+01 0. -1.
        -13    1    4    4    0    0  0.68517346130E+01 -0.34954242916E+02  0.33304303305E+03  0.33494239389E+03  0.00000000000E+00 0.  1.
         14    1    4    4    0    0 -0.39344360529E+02 -0.57272406437E+01  0.85552481006E+02  0.94339848405E+02  0.00000000000E+00 0. -1.
         -5    1    5    5    0  502  0.76519368307E+02  0.11720867518E+02  0.42176629398E+02  0.88281088172E+02  0.47000000000E+01 0.  1.
         13    1    6    6    0    0 -0.40620964364E+02  0.44654096111E+02  0.15107559546E+02  0.62227722125E+02  0.00000000000E+00 0. -1.
        -14    1    6    6    0    0 -0.73644950836E+01  0.17294991153E+02  0.83981829222E+02  0.86059863736E+02  0.00000000000E+00 0.  1.
</event>
<event>
12    1  0.1046899E+000  0.2971779E+03  0.7818608E-02  0.1086727E+00
         21   -1    0    0  503  502  0.00000000000E+00  0.00000000000E+00  0.26388049300E+03  0.26388049300E+03  0.00000000000E+00 0.  1.
         21   -1    0    0  501  503 -0.00000000000E+00 -0.00000000000E+00 -0.36485656309E+03  0.36485656309E+03  0.00000000000E+00 0.  1.
          6    2    1    2  501    0  0.18318376867E+03  0.15842195401E+03  0.40858938166E+02  0.29944711840E+03  0.17130474387E+03 0.  0.
         24    2    3    3    0    0  0.12632108116E+03  0.15320991882E+03  0.77530081126E+02  0.23142217247E+03  0.90083370628E+02 0.  0.
         -6    2    1    2    0  502 -0.18318376867E+03 -0.15842195401E+03 -0.14183500825E+03  0.32928993769E+03  0.17222335754E+03 0.  0.
        -24    2    5    5    0    0 -0.93509641140E+02 -0.14308901048E+03 -0.49294216963E+02  0.19943449361E+03  0.90142551044E+02 0.  0.
          5    1    3    3  501    0  0.56862687510E+02  0.52120351867E+01 -0.36671142960E+02  0.68024945922E+02  0.47000000000E+01 0. -1.
        -11    1    4    4    0    0 -0.10077095435E+02  0.91430621067E+00 -0.45753665085E+01  0.11104854206E+02  0.00000000000E+00 0.  1.
         12    1    4    4    0    0  0.13639817659E+03  0.15229561261E+03  0.82105447635E+02  0.22031731827E+03  0.00000000000E+00 0. -1.
         -5    1    5    5    0  502 -0.89674127527E+02 -0.15332943530E+02 -0.92540791289E+02  0.12985544408E+03  0.47000000000E+01 0.  1.
         13    1    6    6    0    0 -0.10314414886E+03 -0.10898925054E+03 -0.61192953843E+02  0.16205539108E+03  0.00000000000E+00 0. -1.
        -14    1    6    6    0    0  0.96345077172E+01 -0.34099759935E+02  0.11898736880E+02  0.37379102529E+02  0.00000000000E+00 0.  1.
</event>
<event>
12    1  0.1046899E+000  0.1814130E+03  0.7818608E-02  0.1166510E+00
         21   -1    0    0  501  502  0.00000000000E+00  0.00000000000E+00  0.66374734753E+02  0.66374734753E+02  0.00000000000E+00 0.  1.
         21   -1    0    0  502  503 -0.00000000000E+00 -0.00000000000E+00 -0.59581677145E+03  0.59581677145E+03  0.00000000000E+00 0.  1.
         -6    2    1    2    0  503 -0.25919628926E+02  0.53197497437E+02 -0.12873845084E+03  0.22245055431E+03  0.17149011486E+03 0.  0.
        -24    2    3    3    0    0 -0.28580169647E+02 -0.21047901856E+02 -0.19554854351E+02  0.90304402138E+02  0.80701006482E+02 0.  0.
          6    2    1    2  501    0  0.25919628926E+02 -0.53197497437E+02 -0.40070358586E+03  0.43974095189E+03  0.17119269888E+03 0.  0.
         24    2    5    5    0    0  0.39169747146E+02  0.32636261917E+02 -0.19060288039E+03  0.21234834798E+03  0.78504574326E+02 0.  0.
          5    1    5    5  501    0 -0.13250118219E+02 -0.85833759354E+02 -0.21010070547E+03  0.22739260392E+03  0.47000000000E+01 0. -1.
        -13    1    6    6    0    0 -0.77297022935E+01  0.21378100510E+02 -0.89994803842E+01  0.24449174345E+02  0.00000000000E+00 0.  1.
         14    1    6    6    0    0  0.46899449439E+02  0.11258161407E+02 -0.18160340001E+03  0.18789917363E+03  0.00000000000E+00 0. -1.
         -5    1    3    3    0  503  0.26605407205E+01  0.74245399293E+02 -0.10918359649E+03  0.13214615218E+03  0.47000000000E+01 0.  1.
         13    1    4    4    0    0  0.26244751870E+02  0.61046261690E+01 -0.47925801102E+01  0.27368271511E+02  0.00000000000E+00 0. -1.
        -14    1    4    4    0    0 -0.54824921517E+02 -0.27152528025E+02 -0.14762274241E+02  0.62936130627E+02  0.00000000000E+00 0.  1.
</event>
<event>
12    1  0.1046899E+000  0.2006248E+03  0.7818608E-02  0.1149574E+00
         21   -1    0    0  501  502  0.00000000000E+00  0.00000000000E+00  0.60599829964E+02  0.60599829964E+02  0.00000000000E+00 0. -1.
         21   -1    0    0  502  503 -0.00000000000E+00 -0.00000000000E+00 -0.65908281042E+03  0.65908281042E+03  0.00000000000E+00 0. -1.
         -6    2    1    2    0  503 -0.65600287221E+02  0.79241284354E+02 -0.30817612352E+03  0.36679686001E+03  0.17024933061E+03 0.  0.
        -24    2    3    3    0    0 -0.38567507323E+02  0.10628558302E+03 -0.15368378100E+03  0.20757330906E+03  0.81755099607E+02 0.  0.
          6    2    1    2  501    0  0.65600287221E+02 -0.79241284354E+02 -0.29030685694E+03  0.35288578038E+03  0.17224321171E+03 0.  0.
         24    2    5    5    0    0 -0.65323736447E+00 -0.94518321262E+02 -0.12866554918E+03  0.17746366162E+03  0.77487985372E+02 0.  0.
          5    1    5    5  501    0  0.66253524585E+02  0.15277036908E+02 -0.16164130776E+03  0.17542211876E+03  0.47000000000E+01 0. -1.
        -13    1    6    6    0    0  0.37654559337E+02 -0.37018993062E+02 -0.49349256153E+02  0.72274620505E+02  0.00000000000E+00 0.  1.
         14    1    6    6    0    0 -0.38307796702E+02 -0.57499328200E+02 -0.79316293026E+02  0.10518904112E+03  0.00000000000E+00 0. -1.
         -5    1    3    3    0  503 -0.27032779898E+02 -0.27044298665E+02 -0.15449234252E+03  0.15922355095E+03  0.47000000000E+01 0.  1.
         13    1    4    4    0    0 -0.30341050249E+02  0.45594402403E+02 -0.16276634609E+02  0.57134557799E+02  0.00000000000E+00 0. -1.
        -14    1    4    4    0    0 -0.82264570739E+01  0.60691180616E+02 -0.13740714639E+03  0.15043875126E+03  0.00000000000E+00 0.  1.
</event>
<event>
12    1  0.1046899E+000  0.2476357E+03  0.7818608E-02  0.1114867E+00
         21   -1    0    0  501  502  0.00000000000E+00  0.00000000000E+00  0.31181091338E+03  0.31181091338E+03  0.00000000000E+00 0.  1.
         21   -1    0    0  502  503 -0.00000000000E+00 -0.00000000000E+00 -0.21939561175E+03  0.21939561175E+03  0.00000000000E+00 0.  1.
         -6    2    1    2    0  503  0.17651567786E+03 -0.20146601433E+02  0.13220710918E+03  0.28039416581E+03  0.17198400631E+03 0.  0.
        -24    2    3    3    0    0  0.12176188876E+03 -0.56142814217E+01  0.11020250458E+02  0.14653786050E+03  0.80587970118E+02 0.  0.
          6    2    1    2  501    0 -0.17651567786E+03  0.20146601433E+02 -0.39791807556E+02  0.25081235932E+03  0.17251023610E+03 0.  0.
         24    2    5    5    0    0 -0.19151899871E+03  0.24948043580E+01 -0.43336255450E+01  0.20819712439E+03  0.81495468453E+02 0.  0.
          5    1    5    5  501    0  0.15003320853E+02  0.17651797075E+02 -0.35458182011E+02  0.42615234930E+02  0.47000000000E+01 0. -1.
        -11    1    6    6    0    0 -0.12556406739E+03  0.40564052426E+02 -0.48340256403E+01  0.13204220981E+03  0.00000000000E+00 0.  1.
         12    1    6    6    0    0 -0.65954931319E+02 -0.38069248068E+02  0.50040009533E+00  0.76154914576E+02  0.00000000000E+00 0. -1.
         -5    1    3    3    0  503  0.54753789094E+02 -0.14532320012E+02  0.12118685873E+03  0.13385630532E+03  0.47000000000E+01 0.  1.
         13    1    4    4    0    0  0.29501247551E+02  0.26476775207E+02  0.26435715768E+02  0.47646514045E+02  0.00000000000E+00 0. -1.
        -14    1    4    4    0    0  0.92260641211E+02 -0.32091056629E+02 -0.15415465310E+02  0.98891346452E+02  0.00000000000E+00 0.  1.
</event>
<event>
12    1  0.1046899E+000  0.2163312E+03  0.7818608E-02  0.1136902E+00
         21   -1    0    0  503  502  0.00000000000E+00  0.00000000000E+00  0.12626294534E+04  0.12626294534E+04  0.00000000000E+00 0.  1.
         21   -1    0    0  501  503 -0.00000000000E+00 -0.00000000000E+00 -0.50476283613E+02  0.50476283613E+02  0.00000000000E+00 0.  1.
          6    2    1    2  501    0 -0.91391513856E+02  0.91793109861E+02  0.26615896937E+03  0.34298654819E+03  0.17326509008E+03 0.  0.
         24    2    3    3    0    0 -0.11545851995E+03  0.10473319042E+03  0.17235658928E+03  0.24517221909E+03  0.78121137601E+02 0.  0.
         -6    2    1    2    0  502  0.91391513856E+02 -0.91793109861E+02  0.94599420046E+03  0.97011918887E+03  0.17160369891E+03 0.  0.
        -24    2    5    5    0    0  0.70073901856E+02 -0.13080178200E+03  0.70641885383E+03  0.72640921001E+03  0.81383569811E+02 0.  0.
          5    1    3    3  501    0  0.24067006095E+02 -0.12940080561E+02  0.93802380089E+02  0.97814329102E+02  0.47000000000E+01 0. -1.
        -11    1    4    4    0    0 -0.44701692257E+02  0.77824631660E+01  0.16114854988E+02  0.48150769203E+02  0.00000000000E+00 0.  1.
         12    1    4    4    0    0 -0.70756827694E+02  0.96950727256E+02  0.15624173430E+03  0.19702144989E+03  0.00000000000E+00 0. -1.
         -5    1    5    5    0  502  0.21317612001E+02  0.39008672144E+02  0.23957534663E+03  0.24370997886E+03  0.47000000000E+01 0.  1.
         13    1    6    6    0    0  0.87861693759E+02 -0.10192687655E+03  0.53471731877E+03  0.55139040288E+03  0.00000000000E+00 0. -1.
        -14    1    6    6    0    0 -0.17787791903E+02 -0.28874905451E+02  0.17170153506E+03  0.17501880713E+03  0.00000000000E+00 0.  1.
</event>
<event>
12    1  0.1046899E+000  0.1837279E+03  0.7818608E-02  0.1164245E+00
         21   -1    0    0  501  502  0.00000000000E+00  0.00000000000E+00  0.21320427681E+03  0.21320427681E+03  0.00000000000E+00 0. -1.
         21   -1    0    0  502  503 -0.00000000000E+00 -0.00000000000E+00 -0.15946753477E+03  0.15946753477E+03  0.00000000000E+00 0. -1.
         -6    2    1    2    0  503 -0.57815314307E+02  0.31915718873E+02  0.42666057778E+02  0.18861068857E+03  0.17144204757E+03 0.  0.
        -24    2    3    3    0    0 -0.10580970596E+03  0.19543746089E+02  0.31836939609E+02  0.13766083929E+03  0.79744993978E+02 0.  0.
          6    2    1    2  501    0  0.57815314307E+02 -0.31915718873E+02  0.11070684264E+02  0.18406112302E+03  0.17144886491E+03 0.  0.
         24    2    5    5    0    0  0.29053676290E+02  0.31206322290E+02  0.50218375082E+02  0.10427230426E+03  0.80826218418E+02 0.  0.
          5    1    5    5  501    0  0.28761638017E+02 -0.63122041163E+02 -0.39147690817E+02  0.79788818755E+02  0.47000000000E+01 0. -1.
        -11    1    6    6    0    0 -0.32315521433E+01  0.20952224396E+02  0.64212033403E+02  0.67621179154E+02  0.00000000000E+00 0.  1.
         12    1    6    6    0    0  0.32285228433E+02  0.10254097894E+02 -0.13993658322E+02  0.36651125110E+02  0.00000000000E+00 0. -1.
         -5    1    3    3    0  503  0.47994391653E+02  0.12371972785E+02  0.10829118169E+02  0.50949849274E+02  0.47000000000E+01 0.  1.
         11    1    4    4    0    0 -0.36929673874E+01  0.19580390997E+02  0.29398720841E+02  0.35514989889E+02  0.00000000000E+00 0. -1.
        -12    1    4    4    0    0 -0.10211673857E+03 -0.36644908696E-01  0.24382187682E+01  0.10214584940E+03  0.00000000000E+00 0.  1.
</event>
<event>
12    1  0.1046899E+000  0.2420648E+03  0.7818608E-02  0.1118744E+00
         21   -1    0    0  503  502  0.00000000000E+00  0.00000000000E+00  0.36144037945E+02  0.36144037945E+02  0.00000000000E+00 0. -1.
         21   -1    0    0  501  503 -0.00000000000E+00 -0.00000000000E+00 -0.16722364607E+04  0.16722364607E+04  0.00000000000E+00 0. -1.
          6    2    1    2  501    0  0.91163946827E+02  0.14491909377E+03 -0.64780899554E+03  0.69088382302E+03  0.16837919488E+03 0.  0.
         24    2    3    3    0    0  0.77283488592E+02  0.28062324546E+02 -0.37565107630E+03  0.39433670258E+03  0.87335400672E+02 0.  0.
         -6    2    1    2    0  502 -0.91163946827E+02 -0.14491909377E+03 -0.98828342725E+03  0.10174966757E+04  0.17112259774E+03 0.  0.
        -24    2    5    5    0    0 -0.36281770840E+02 -0.15946538489E+03 -0.67075800638E+03  0.69490075082E+03  0.78899774952E+02 0.  0.
          5    1    3    3  501    0  0.13880458235E+02  0.11685676923E+03 -0.27215791925E+03  0.29654712045E+03  0.47000000000E+01 0. -1.
        -11    1    4    4    0    0  0.88307321620E+02  0.34736827224E+02 -0.24006485308E+03  0.25813942725E+03  0.00000000000E+00 0.  1.
         12    1    4    4    0    0 -0.11023833028E+02 -0.66745026782E+01 -0.13558622322E+03  0.13619727533E+03  0.00000000000E+00 0. -1.
         -5    1    5    5    0  502 -0.54882175987E+02  0.14546291121E+02 -0.31752542087E+03  0.32259592484E+03  0.47000000000E+01 0.  1.
         13    1    6    6    0    0  0.20836780544E+01 -0.31614320923E+02 -0.28387717970E+03  0.28563973840E+03  0.00000000000E+00 0. -1.
        -14    1    6    6    0    0 -0.38365448895E+02 -0.12785106397E+03 -0.38688082668E+03  0.40926101242E+03  0.00000000000E+00 0.  1.
</event>
<event>
12    1  0.1046899E+000  0.1775612E+03  0.7818608E-02  0.1170262E+00
         21   -1    0    0  501  502  0.00000000000E+00  0.00000000000E+00  0.33246945183E+03  0.33246945183E+03  0.00000000000E+00 0.  1.
         21   -1    0    0  502  503 -0.00000000000E+00 -0.00000000000E+00 -0.10948046634E+03  0.10948046634E+03  0.00000000000E+00 0.  1.
         -6    2    1    2    0  503  0.81869092203E+01  0.46639619015E+02  0.19270616555E+03  0.26182485371E+03  0.17080488352E+03 0.  0.
        -24    2    3    3    0    0 -0.29536696371E+02  0.86691224261E+02  0.13778181144E+03  0.18394047674E+03  0.80389592750E+02 0.  0.
          6    2    1    2  501    0 -0.81869092203E+01 -0.46639619015E+02  0.30282819938E+02  0.18012506445E+03  0.17113068140E+03 0.  0.
         24    2    5    5    0    0 -0.33429769554E+02 -0.77611903433E+02 -0.17764477365E+02  0.11745834938E+03  0.79622422321E+02 0.  0.
          5    1    5    5  501    0  0.25242860334E+02  0.30972284417E+02  0.48047297303E+02  0.62666715073E+02  0.47000000000E+01 0. -1.
        -11    1    6    6    0    0  0.22974335327E+02 -0.31627269066E+02  0.86546127103E+01  0.40037564280E+02  0.00000000000E+00 0.  1.
         12    1    6    6    0    0 -0.56404104881E+02 -0.45984634367E+02 -0.26419090075E+02  0.77420785101E+02  0.00000000000E+00 0. -1.
         -5    1    3    3    0  503  0.37723605592E+02 -0.40051605246E+02  0.54924354112E+02  0.77884376971E+02  0.47000000000E+01 0.  1.
         11    1    4    4    0    0 -0.23520631538E+02  0.78419206122E+02  0.50781167729E+02  0.96340640400E+02  0.00000000000E+00 0. -1.
        -12    1    4    4    0    0 -0.60160648334E+01  0.82720181391E+01  0.87000643715E+02  0.87599836341E+02  0.00000000000E+00 0.  1.
</event>
<event>
12    1  0.1046899E+000  0.1811601E+03  0.7818608E-02  0.1166915E+00
         21   -1    0    0  503  502  0.00000000000E+00  0.00000000000E+00  0.15979725057E+03  0.15979725057E+03  0.00000000000E+00 0. -1.
         21   -1    0    0  501  503 -0.00000000000E+00 -0.00000000000E+00 -0.20467495816E+03  0.20467495816E+03  0.00000000000E+00 0. -1.
          6    2    1    2  501    0 -0.46198449299E+02 -0.33130362749E+02 -0.14550185484E+02  0.18079112437E+03  0.17100235407E+03 0.  0.
         24    2    3    3    0    0  0.15380982382E+02 -0.63718966358E+02  0.18097079343E+02  0.10453089241E+03  0.79388424190E+02 0.  0.
         -6    2    1    2    0  502  0.46198449299E+02  0.33130362749E+02 -0.30327522100E+02  0.18368108436E+03  0.17200890821E+03 0.  0.
        -24    2    5    5    0    0 -0.34250422982E+02  0.11473248836E+02  0.23391974754E+02  0.84439329154E+02  0.72650457065E+02 0.  0.
          5    1    3    3  501    0 -0.61579431681E+02  0.30588603609E+02 -0.32647264827E+02  0.76260231953E+02  0.47000000000E+01 0. -1.
        -13    1    4    4    0    0 -0.22474141226E+02 -0.59219423163E+02  0.19823676398E+02  0.66370213571E+02  0.00000000000E+00 0.  1.
         14    1    4    4    0    0  0.37855123608E+02 -0.44995431954E+01 -0.17265970551E+01  0.38160678843E+02  0.00000000000E+00 0. -1.
         -5    1    5    5    0  502  0.80448872281E+02  0.21657113914E+02 -0.53719496854E+02  0.99241755207E+02  0.47000000000E+01 0.  1.
         11    1    6    6    0    0 -0.14231333854E+02  0.56382690648E+00  0.48486385123E+02  0.50534921651E+02  0.00000000000E+00 0. -1.
        -12    1    6    6    0    0 -0.20019089128E+02  0.10909421929E+02 -0.25094410369E+02  0.33904407503E+02  0.00000000000E+00 0.  1.
</event>
<event>
12    1  0.1046899E+000  0.2066985E+03  0.7818608E-02  0.1146159E+00
         21   -1    0    0  503  502  0.00000000000E+00  0.00000000000E+00  0.39458967636E+03  0.39458967636E+03  0.00000000000E+00 0.  1.
         21   -1    0    0  501  503 -0.00000000000E+00 -0.00000000000E+00 -0.12235475803E+03  0.12235475803E+03  0.00000000000E+00 0.  1.
          6    2    1    2  501    0 -0.97145505223E+02 -0.12835506380E+01  0.24051764034E+03  0.31713246131E+03  0.18244277464E+03 0.  0.
         24    2    3    3    0    0 -0.49308375574E+02  0.24716960409E+02  0.33364158132E+02  0.10289177251E+03  0.80195422370E+02 0.  0.
         -6    2    1    2    0  502  0.97145505223E+02  0.12835506380E+01  0.31717277990E+02  0.19981197307E+03  0.17169723985E+03 0.  0.
        -24    2    5    5    0    0  0.69132319022E+02 -0.35816362119E+02 -0.36024165283E+02  0.11751898878E+03  0.80317388588E+02 0.  0.
          5    1    3    3  501    0 -0.47837129650E+02 -0.26000511047E+02  0.20715348221E+03  0.21424068880E+03  0.47000000000E+01 0. -1.
        -11    1    4    4    0    0  0.19383972899E+02 -0.60587984864E+01 -0.58808701996E+00  0.20317315049E+02  0.00000000000E+00 0.  1.
         12    1    4    4    0    0 -0.68692348473E+02  0.30775758896E+02  0.33952245152E+02  0.82574457463E+02  0.00000000000E+00 0. -1.
         -5    1    5    5    0  502  0.28013186201E+02  0.37099912757E+02  0.67741443273E+02  0.82292984296E+02  0.47000000000E+01 0.  1.
         11    1    6    6    0    0  0.61132429767E+02 -0.57353158849E+02 -0.12702294603E+02  0.84781525625E+02  0.00000000000E+00 0. -1.
        -12    1    6    6    0    0  0.79998892549E+01  0.21536796730E+02 -0.23321870680E+02  0.32737463150E+02  0.00000000000E+00 0.  1.
</event>
<event>
12    1  0.1046899E+000  0.1866828E+03  0.7818608E-02  0.1161773E+00
         21   -1    0    0  503  502  0.00000000000E+00  0.00000000000E+00  0.31069091978E+03  0.31069091978E+03  0.00000000000E+00 0.  1.
         21   -1    0    0  501  503 -0.00000000000E+00 -0.00000000000E+00 -0.11974047822E+03  0.11974047822E+03  0.00000000000E+00 0.  1.
          6    2    1    2  501    0  0.75398747944E+01 -0.71519538588E+02  0.38488872532E+02  0.18940238800E+03  0.17093851865E+03 0.  0.
         24    2    3    3    0    0  0.19093114015E+02  0.23839861311E+02  0.31522215613E+01  0.86944292235E+02  0.81341794063E+02 0.  0.
         -6    2    1    2    0  502 -0.75398747944E+01  0.71519538588E+02  0.15246156903E+03  0.24102901000E+03  0.17227466303E+03 0.  0.
        -24    2    5    5    0    0 -0.60105660333E+01 -0.10913284951E+02  0.16262252739E+02  0.81749843319E+02  0.79141325021E+02 0.  0.
          5    1    3    3  501    0 -0.11553239221E+02 -0.95359399898E+02  0.35336650970E+02  0.10245809576E+03  0.47000000000E+01 0. -1.
        -11    1    4    4    0    0  0.30484140102E+02  0.32804702021E+02  0.31741313700E+02  0.54890274802E+02  0.00000000000E+00 0.  1.
         12    1    4    4    0    0 -0.11391026087E+02 -0.89648407108E+01 -0.28589092138E+02  0.32054017433E+02  0.00000000000E+00 0. -1.
         -5    1    5    5    0  502 -0.15293087611E+01  0.82432823539E+02  0.13619931629E+03  0.15927916668E+03  0.47000000000E+01 0.  1.
         13    1    6    6    0    0  0.80281694621E+01  0.10816323345E+02 -0.27665405640E+02  0.30770424515E+02  0.00000000000E+00 0. -1.
        -14    1    6    6    0    0 -0.14038735495E+02 -0.21729608296E+02  0.43927658379E+02  0.50979418804E+02  0.00000000000E+00 0.  1.
</event>
<event>
12    1  0.1046899E+000  0.3173330E+03  0.7818608E-02  0.1076962E+00
         21   -1    0    0  503  502  0.00000000000E+00  0.00000000000E+00  0.65519090659E+02  0.65519090659E+02  0.00000000000E+00 0.  1.
         21   -1    0    0  501  503 -0.00000000000E+00 -0.00000000000E+00 -0.16653341867E+04  0.16653341867E+04  0.00000000000E+00 0.  1.
          6    2    1    2  501    0 -0.24386058428E+02 -0.26504734732E+03 -0.55578215860E+03  0.63965897201E+03  0.17153721603E+03 0.  0.
         24    2    3    3    0    0 -0.20112107290E+02 -0.28321798472E+03 -0.54203966339E+03  0.61600765288E+03  0.71003577352E+02 0.  0.
         -6    2    1    2    0  502  0.24386058428E+02  0.26504734732E+03 -0.10440329375E+04  0.10911943054E+04  0.17278732999E+03 0.  0.
        -24    2    5    5    0    0 -0.26462074000E+02  0.15231769089E+03 -0.40890364172E+03  0.44412025991E+03  0.78356216892E+02 0.  0.
          5    1    3    3  501    0 -0.42739511385E+01  0.18170637396E+02 -0.13742495213E+02  0.23651319126E+02  0.47000000000E+01 0. -1.
        -11    1    4    4    0    0 -0.38870017290E+02 -0.90055997284E+02 -0.19958982533E+03  0.22238943156E+03  0.00000000000E+00 0.  1.
         12    1    4    4    0    0  0.18757910000E+02 -0.19316198743E+03 -0.34244983805E+03  0.39361822132E+03  0.00000000000E+00 0. -1.
         -5    1    5    5    0  502  0.50848132429E+02  0.11272965643E+03 -0.63512929573E+03  0.64707404546E+03  0.47000000000E+01 0.  1.
         13    1    6    6    0    0 -0.21805275200E+02  0.73954929991E+02 -0.30077727809E+03  0.31050245202E+03  0.00000000000E+00 0. -1.
        -14    1    6    6    0    0 -0.46567988006E+01  0.78362760902E+02 -0.10812636363E+03  0.13361780788E+03  0.00000000000E+00 0.  1.
</event>
<event>
12    1  0.1046899E+000  0.2051472E+03  0.7818608E-02  0.1145480E+00
         21   -1    0    0  501  502  0.00000000000E+00  0.00000000000E+00  0.49302053157E+03  0.49302053157E+03  0.00000000000E+00 0.  1.
         21   -1    0    0  502  503 -0.00000000000E+00 -0.00000000000E+00 -0.14733326499E+03  0.14733326499E+03  0.00000000000E+00 0.  1.
         -6    2    1    2    0  503 -0.56922841996E+02 -0.96851425457E+02  0.38052235039E+03  0.43227003226E+03  0.17158004863E+03 0.  0.
        -24    2    3    3    0    0 -0.83120149637E+02 -0.60349876505E+02  0.13979953546E+03  0.18734509349E+03  0.70733351893E+02 0.  0.
          6    2    1    2  501    0  0.56922841996E+02  0.96851425457E+02 -0.34835083817E+02  0.20808376430E+03  0.17165360861E+03 0.  0.
         24    2    5    5    0    0  0.66857038490E+02 -0.31977251063E+01 -0.23567515030E+02  0.10680410744E+03  0.79822306150E+02 0.  0.
          5    1    5    5  501    0 -0.99341964935E+01  0.10004915056E+03 -0.11267568787E+02  0.10127965687E+03  0.47000000000E+01 0. -1.
        -11    1    6    6    0    0  0.56117996622E+02  0.33441561995E+02 -0.20647424029E+02  0.68511924018E+02  0.00000000000E+00 0.  1.
         12    1    6    6    0    0  0.10739041867E+02 -0.36639287101E+02 -0.29200910006E+01  0.38292183418E+02  0.00000000000E+00 0. -1.
         -5    1    3    3    0  503  0.26197307641E+02 -0.36501548952E+02  0.24072281493E+03  0.24492493877E+03  0.47000000000E+01 0.  1.
         13    1    4    4    0    0 -0.18722658157E+02  0.30380641376E+01 -0.21356104572E+01  0.19087393594E+02  0.00000000000E+00 0. -1.
        -14    1    4    4    0    0 -0.64397491480E+02 -0.63387940642E+02  0.14193514592E+03  0.16825769990E+03  0.00000000000E+00 0.  1.
</event>
<event>
12    1  0.1046899E+000  0.2757912E+03  0.7818608E-02  0.1098028E+00
         21   -1    0    0  503  502  0.00000000000E+00  0.00000000000E+00  0.13910740496E+04  0.13910740496E+04  0.00000000000E+00 0. -1.
         21   -1    0    0  501  503 -0.00000000000E+00 -0.00000000000E+00 -0.10957391675E+03  0.10957391675E+03  0.00000000000E+00 0. -1.
          6    2    1    2  501    0 -0.61577175780E+02  0.20682765328E+03  0.10961309006E+03  0.29677565373E+03  0.17173040615E+03 0.  0.
         24    2    3    3    0    0 -0.54933270711E+02  0.99428696852E+02 -0.18991603167E+02  0.12902603544E+03  0.58166200167E+02 0.  0.
         -6    2    1    2    0  502  0.61577175780E+02 -0.20682765328E+03  0.11718870428E+04  0.12038723126E+04  0.17152223561E+03 0.  0.
        -24    2    5    5    0    0 -0.30483328063E+02 -0.10526799327E+03  0.47601157795E+03  0.49460913617E+03  0.77721242547E+02 0.  0.
          5    1    3    3  501    0 -0.66439050688E+01  0.10739895643E+03  0.12860469323E+03  0.16774961829E+03  0.47000000000E+01 0. -1.
        -11    1    4    4    0    0 -0.44779468814E+02  0.34658773464E+02  0.97202767887E+01  0.57453591587E+02  0.00000000000E+00 0.  1.
         12    1    4    4    0    0 -0.10153801897E+02  0.64769923388E+02 -0.28711879955E+02  0.71572443853E+02  0.00000000000E+00 0. -1.
         -5    1    5    5    0  502  0.92060503843E+02 -0.10155966001E+03  0.69587546482E+03  0.70926317644E+03  0.47000000000E+01 0.  1.
         13    1    6    6    0    0  0.23574955824E+02 -0.44873249368E+02  0.23252337926E+03  0.23798426199E+03  0.00000000000E+00 0. -1.
        -14    1    6    6    0    0 -0.54058283888E+02 -0.60394743905E+02  0.24348819869E+03  0.25662487418E+03  0.00000000000E+00 0.  1.
</event>
<event>
12    1  0.1046899E+000  0.3122907E+03  0.7818608E-02  0.1079479E+00
         21   -1    0    0  501  502  0.00000000000E+00  0.00000000000E+00  0.36595864406E+03  0.36595864406E+03  0.00000000000E+00 0.  1.
         21   -1    0    0  502  503 -0.00000000000E+00 -0.00000000000E+00 -0.34963845404E+03  0.34963845404E+03  0.00000000000E+00 0. -1.
         -6    2    1    2    0  503  0.16206991354E+03 -0.20114694544E+03  0.18434793989E+03  0.36264254951E+03  0.17549559893E+03 0.  0.
        -24    2    3    3    0    0  0.11701950768E+03 -0.81592472293E+02  0.36954286205E+02  0.16752773649E+03  0.79680778798E+02 0.  0.
          6    2    1    2  501    0 -0.16206991354E+03  0.20114694544E+03 -0.16802774987E+03  0.35295454859E+03  0.17209543316E+03 0.  0.
         24    2    5    5    0    0 -0.15023653095E+03  0.21355299838E+03 -0.18654947946E+03  0.32728192582E+03  0.64318366991E+02 0.  0.
          5    1    5    5  501    0 -0.11833382588E+02 -0.12406052941E+02  0.18521729593E+02  0.25672622775E+02  0.47000000000E+01 0. -1.
        -13    1    6    6    0    0 -0.11206892553E+03  0.14152890577E+03 -0.16091573541E+03  0.24183413560E+03  0.00000000000E+00 0.  1.
         14    1    6    6    0    0 -0.38167605423E+02  0.72024092608E+02 -0.25633744049E+02  0.85447790221E+02  0.00000000000E+00 0. -1.
         -5    1    3    3    0  503  0.45050405856E+02 -0.11955447314E+03  0.14739365368E+03  0.19511481303E+03  0.47000000000E+01 0.  1.
         11    1    4    4    0    0  0.89966424480E+02 -0.92267669689E+02  0.12398262544E+02  0.12946427043E+03  0.00000000000E+00 0. -1.
        -12    1    4    4    0    0  0.27053083202E+02  0.10675197396E+02  0.24556023661E+02  0.38063466057E+02  0.00000000000E+00 0.  1.
</event>
<event>
12    1  0.1046899E+000  0.3565722E+03  0.7818608E-02  0.1060086E+00
         21   -1    0    0  503  502  0.00000000000E+00  0.00000000000E+00  0.22074591445E+03  0.22074591445E+03  0.00000000000E+00 0.  1.
         21   -1    0    0  501  503 -0.00000000000E+00 -0.00000000000E+00 -0.78829434517E+03  0.78829434517E+03  0.00000000000E+00 0.  1.
          6    2    1    2  501    0  0.30572720183E+03  0.56836772452E+02 -0.20982895071E+02  0.35718906078E+03  0.17448267139E+03 0.  0.
         24    2    3    3    0    0  0.25820449740E+03  0.61552423939E+02  0.39468753259E+02  0.28000657189E+03  0.79922677939E+02 0.  0.
         -6    2    1    2    0  502 -0.30572720183E+03 -0.56836772452E+02 -0.54656553565E+03  0.65185119883E+03  0.17168739038E+03 0.  0.
        -24    2    5    5    0    0 -0.11430205935E+03 -0.54876479695E+02 -0.15351885648E+03  0.21463819591E+03  0.80156890228E+02 0.  0.
          5    1    3    3  501    0  0.47522704433E+02 -0.47156514874E+01 -0.60451648330E+02  0.77182488891E+02  0.47000000000E+01 0. -1.
        -13    1    4    4    0    0  0.25682657765E+03  0.45419501411E+02  0.34588272609E+02  0.26309536426E+03  0.00000000000E+00 0.  1.
         14    1    4    4    0    0  0.13779197533E+01  0.16132922528E+02  0.48804806499E+01  0.16911207631E+02  0.00000000000E+00 0. -1.
         -5    1    5    5    0  502 -0.19142514249E+03 -0.19602927572E+01 -0.39304667916E+03  0.43721300292E+03  0.47000000000E+01 0.  1.
         13    1    6    6    0    0 -0.82490274918E+02  0.39811175800E+01 -0.93587140901E+02  0.12481605544E+03  0.00000000000E+00 0. -1.
        -14    1    6    6    0    0 -0.31811784430E+02 -0.58857597275E+02 -0.59931715583E+02  0.89822140469E+02  0.00000000000E+00 0.  1.
</event>
<event>
12    1  0.1046899E+000  0.2267977E+03  0.7818608E-02  0.1129053E+00
         21   -1    0    0  503  502  0.00000000000E+00  0.00000000000E+00  0.14013972412E+03  0.14013972412E+03  0.00000000000E+00 0. -1.
         21   -1    0    0  501  503 -0.00000000000E+00 -0.00000000000E+00 -0.68343808302E+03  0.68343808302E+03  0.00000000000E+00 0. -1.
          6    2    1    2  501    0 -0.14671038531E+03  0.99237704041E+01 -0.55263242830E+03  0.59736067868E+03  0.17266951455E+03 0.  0.
         24    2    3    3    0    0 -0.93377025255E+02 -0.53170547974E+02 -0.42350122257E+03  0.44399086875E+03  0.78919135822E+02 0.  0.
         -6    2    1    2    0  502  0.14671038531E+03 -0.99237704041E+01  0.93340693939E+01  0.22621712846E+03  0.17165269000E+03 0.  0.
        -24    2    5    5    0    0  0.40615574869E+02  0.64454836265E+00 -0.50841389953E+02  0.10369784806E+03  0.80736338750E+02 0.  0.
          5    1    3    3  501    0 -0.53333360054E+02  0.63094318378E+02 -0.12913120572E+03  0.15336980993E+03  0.47000000000E+01 0. -1.
        -13    1    4    4    0    0 -0.36535519207E+02  0.11941722347E+02 -0.21292123105E+03  0.21636288852E+03  0.00000000000E+00 0.  1.
         14    1    4    4    0    0 -0.56841506048E+02 -0.65112270321E+02 -0.21057999152E+03  0.22762798024E+03  0.00000000000E+00 0. -1.
         -5    1    5    5    0  502  0.10609481044E+03 -0.10568318767E+02  0.60175459347E+02  0.12251928041E+03  0.47000000000E+01 0.  1.
         11    1    6    6    0    0  0.63513948843E+02  0.92668486721E+01 -0.27323459033E+02  0.69760071642E+02  0.00000000000E+00 0. -1.
        -12    1    6    6    0    0 -0.22898373974E+02 -0.86223003095E+01 -0.23517930920E+02  0.33937776415E+02  0.00000000000E+00 0.  1.
</event>
<event>
12    1  0.1046899E+000  0.1731685E+03  0.7818608E-02  0.1174641E+00
         21   -1    0    0  503  502  0.00000000000E+00  0.00000000000E+00  0.22341371921E+03  0.22341371921E+03  0.00000000000E+00 0. -1.
         21   -1    0    0  501  503 -0.00000000000E+00 -0.00000000000E+00 -0.48913546003E+03  0.48913546003E+03  0.00000000000E+00 0. -1.
          6    2    1    2  501    0 -0.65560823834E+00  0.16480130952E+02  0.17067072169E+03  0.24313745999E+03  0.17238127703E+03 0.  0.
         24    2    3    3    0    0  0.60229177693E+02  0.13483911142E+02  0.63203332454E+02  0.11949578320E+03  0.80468697416E+02 0.  0.
         -6    2    1    2    0  502  0.65560823834E+00 -0.16480130952E+02 -0.43639246251E+03  0.46941171925E+03  0.17215387388E+03 0.  0.
        -24    2    5    5    0    0  0.22303626771E+02 -0.70995850321E+02 -0.20147309778E+03  0.22723451493E+03  0.74204131398E+02 0.  0.
          5    1    3    3  501    0 -0.60884785931E+02  0.29962198105E+01  0.10746738924E+03  0.12364167679E+03  0.47000000000E+01 0. -1.
        -13    1    4    4    0    0 -0.48450839307E+00  0.22263536938E+02 -0.96371249209E+01  0.24264665712E+02  0.00000000000E+00 0.  1.
         14    1    4    4    0    0  0.60713686086E+02 -0.87796257962E+01  0.72840457375E+02  0.95231117487E+02  0.00000000000E+00 0. -1.
         -5    1    5    5    0  502 -0.21648018533E+02  0.54515719369E+02 -0.23491936473E+03  0.24217720432E+03  0.47000000000E+01 0.  1.
         11    1    6    6    0    0  0.40910944146E+02 -0.53606683262E+02 -0.18499074366E+03  0.19689834200E+03  0.00000000000E+00 0. -1.
        -12    1    6    6    0    0 -0.18607317375E+02 -0.17389167059E+02 -0.16482354120E+02  0.30336172934E+02  0.00000000000E+00 0.  1.
</event>
<event>
12    1  0.1046899E+000  0.1904741E+03  0.7818608E-02  0.1159668E+00
         21   -1    0    0  501  502  0.00000000000E+00  0.00000000000E+00  0.21174077885E+03  0.21174077885E+03  0.00000000000E+00 0. -1.
         21   -1    0    0  502  503 -0.00000000000E+00 -0.00000000000E+00 -0.17389695534E+03  0.17389695534E+03  0.00000000000E+00 0. -1.
         -6    2    1    2    0  503  0.31706845307E+02 -0.57551542708E+02  0.62191433542E+02  0.19361377008E+03  0.17117538799E+03 0.  0.
        -24    2    3    3    0    0 -0.11387497876E+02  0.13002821543E+02  0.73658916929E+02  0.11001572044E+03  0.79869106822E+02 0.  0.
          6    2    1    2  501    0 -0.31706845307E+02  0.57551542708E+02 -0.24347610032E+02  0.19202396411E+03  0.17878168970E+03 0.  0.
         24    2    5    5    0    0 -0.31085960197E+02  0.81143408188E+02  0.39208987032E+02  0.12406447143E+03  0.79398103206E+02 0.  0.
          5    1    5    5  501    0 -0.62088510960E+00 -0.23591865481E+02 -0.63556597064E+02  0.67959492682E+02  0.47000000000E+01 0. -1.
        -13    1    6    6    0    0 -0.16430247643E+02  0.19199937265E+02 -0.23645599967E+02  0.34607875208E+02  0.00000000000E+00 0.  1.
         14    1    6    6    0    0 -0.14655712554E+02  0.61943470923E+02  0.62854586999E+02  0.89456596220E+02  0.00000000000E+00 0. -1.
         -5    1    3    3    0  503  0.43094343183E+02 -0.70554364250E+02 -0.11467483387E+02  0.83598049645E+02  0.47000000000E+01 0.  1.
         11    1    4    4    0    0 -0.35950784890E+02 -0.10511388566E+02  0.11530635374E+02  0.39190608261E+02  0.00000000000E+00 0. -1.
        -12    1    4    4    0    0  0.24563287013E+02  0.23514210109E+02  0.62128281555E+02  0.70825112177E+02  0.00000000000E+00 0.  1.
</event>
<event>
12    1  0.1046899E+000  0.3776191E+03  0.7818608E-02  0.1051871E+00
         21   -1    0    0  503  502  0.00000000000E+00  0.00000000000E+00  0.94089555030E+02  0.94089555030E+02  0.00000000000E+00 0. -1.
         21   -1    0    0  501  503 -0.00000000000E+00 -0.00000000000E+00 -0.15225329162E+04  0.15225329162E+04  0.00000000000E+00 0. -1.
          6    2    1    2  501    0 -0.23093481285E+03  0.24400084861E+03 -0.65155997068E+03  0.75307807039E+03  0.17242065654E+03 0.  0.
         24    2    3    3    0    0 -0.23013832500E+03  0.22408325957E+03 -0.47954653806E+03  0.57984973625E+03  0.55532680598E+02 0.  0.
         -6    2    1    2    0  502  0.23093481285E+03 -0.24400084861E+03 -0.77688339053E+03  0.86354440088E+03  0.17115439785E+03 0.  0.
        -24    2    5    5    0    0  0.23515592259E+03 -0.16675174649E+03 -0.63284710087E+03  0.69997856006E+03  0.79812771996E+02 0.  0.
          5    1    3    3  501    0 -0.79648785801E+00  0.19917589036E+02 -0.17201343263E+03  0.17322833414E+03  0.47000000000E+01 0. -1.
        -11    1    4    4    0    0 -0.17189855835E+03  0.17109057704E+03 -0.40094797512E+03  0.46859404463E+03  0.00000000000E+00 0.  1.
         12    1    4    4    0    0 -0.58239766647E+02  0.52992682537E+02 -0.78598562940E+02  0.11125569162E+03  0.00000000000E+00 0. -1.
         -5    1    5    5    0  502 -0.42211097355E+01 -0.77249102119E+02 -0.14403628966E+03  0.16356584083E+03  0.47000000000E+01 0.  1.
         11    1    6    6    0    0  0.49647480633E+02 -0.60479764568E+01 -0.15362676894E+03  0.16156309754E+03  0.00000000000E+00 0. -1.
        -12    1    6    6    0    0  0.18550844196E+03 -0.16070377003E+03 -0.47922033193E+03  0.53841546251E+03  0.00000000000E+00 0.  1.
</event>
<event>
12    1  0.1046899E+000  0.2062439E+03  0.7818608E-02  0.1144619E+00
         21   -1    0    0  501  502  0.00000000000E+00  0.00000000000E+00  0.14613517587E+03  0.14613517587E+03  0.00000000000E+00 0. -1.
         21   -1    0    0  502  503 -0.00000000000E+00 -0.00000000000E+00 -0.37615809081E+03  0.37615809081E+03  0.00000000000E+00 0. -1.
         -6    2    1    2    0  503 -0.56229666312E+02 -0.99203717656E+02 -0.23947737598E+03  0.31604740779E+03  0.17185283645E+03 0.  0.
        -24    2    3    3    0    0 -0.86347050751E+02 -0.22061217217E+02 -0.17484136239E+03  0.21089073196E+03  0.77219740638E+02 0.  0.
          6    2    1    2  501    0  0.56229666312E+02  0.99203717656E+02  0.94544610373E+01  0.20624585889E+03  0.17159491399E+03 0.  0.
         24    2    5    5    0    0  0.73976578021E+02  0.10532949823E+03  0.58472035663E+02  0.15354585239E+03  0.59920885661E+02 0.  0.
          5    1    5    5  501    0 -0.17746911709E+02 -0.61257805782E+01 -0.49017574626E+02  0.52700006500E+02  0.47000000000E+01 0. -1.
        -13    1    6    6    0    0  0.79810913106E+02  0.90622399838E+02  0.64146638634E+02  0.13673694618E+03  0.00000000000E+00 0.  1.
         14    1    6    6    0    0 -0.58343350847E+01  0.14707098396E+02 -0.56746029707E+01  0.16808906211E+02  0.00000000000E+00 0. -1.
         -5    1    3    3    0  503  0.30117384439E+02 -0.77142500439E+02 -0.64636013583E+02  0.10515667583E+03  0.47000000000E+01 0.  1.
         13    1    4    4    0    0 -0.22076383570E+01 -0.24540654705E+02 -0.81763176059E+02  0.85395165904E+02  0.00000000000E+00 0. -1.
        -14    1    4    4    0    0 -0.84139412394E+02  0.24794374878E+01 -0.93078186335E+02  0.12549556606E+03  0.00000000000E+00 0.  1.
</event>
<event>
12    1  0.1046899E+000  0.2175547E+03  0.7818608E-02  0.1136250E+00
         21   -1    0    0  503  502  0.00000000000E+00  0.00000000000E+00  0.19030964111E+03  0.19030964111E+03  0.00000000000E+00 0.  1.
         21   -1    0    0  501  503 -0.00000000000E+00 -0.00000000000E+00 -0.26592269296E+03  0.26592269296E+03  0.00000000000E+00 0.  1.
          6    2    1    2  501    0  0.97532117896E+02  0.88732087982E+02  0.25149157498E+02  0.21900352505E+03  0.17304382798E+03 0.  0.
         24    2    3    3    0    0 -0.24877505400E+01 -0.37528897710E+01  0.25192159152E+02  0.82696749573E+02  0.78637360223E+02 0.  0.
         -6    2    1    2    0  502 -0.97532117896E+02 -0.88732087982E+02 -0.10076220935E+03  0.23722880902E+03  0.16952459272E+03 0.  0.
        -24    2    5    5    0    0 -0.69103227223E+01 -0.74620746471E+02 -0.10312396006E+03  0.14536419349E+03  0.69858351313E+02 0.  0.
          5    1    3    3  501    0  0.10001986844E+03  0.92484977753E+02 -0.43001653754E-01  0.13630677548E+03  0.47000000000E+01 0. -1.
        -11    1    4    4    0    0 -0.13620304553E+02 -0.19424141365E+02  0.47593356819E+02  0.53178356285E+02  0.00000000000E+00 0.  1.
         12    1    4    4    0    0  0.11132554013E+02  0.15671251594E+02 -0.22401197667E+02  0.29518393288E+02  0.00000000000E+00 0. -1.
         -5    1    5    5    0  502 -0.90621795174E+02 -0.14111341511E+02  0.23617507050E+01  0.91864615528E+02  0.47000000000E+01 0.  1.
         11    1    6    6    0    0  0.24099443343E+02 -0.19629917827E+02 -0.63849304755E+02  0.71013030924E+02  0.00000000000E+00 0. -1.
        -12    1    6    6    0    0 -0.31009766066E+02 -0.54990828644E+02 -0.39274655304E+02  0.74351162571E+02  0.00000000000E+00 0.  1.
</event>
<event>
12    1  0.1046899E+000  0.3185818E+03  0.7818608E-02  0.1076399E+00
         21   -1    0    0  501  502  0.00000000000E+00  0.00000000000E+00  0.89320261596E+03  0.89320261596E+03  0.00000000000E+00 0. -1.
         21   -1    0    0  502  503 -0.00000000000E+00 -0.00000000000E+00 -0.22632933590E+03  0.22632933590E+03  0.00000000000E+00 0. -1.
         -6    2    1    2    0  503 -0.18402485675E+03 -0.19354784624E+03  0.72873281489E+03  0.79500007738E+03  0.17218504829E+03 0.  0.
        -24    2    3    3    0    0 -0.26025650788E+02 -0.38657868438E+02  0.16752925207E+03  0.19173713038E+03  0.80779400686E+02 0.  0.
          6    2    1    2  501    0  0.18402485675E+03  0.19354784624E+03 -0.61859534822E+02  0.32453187448E+03  0.17369058356E+03 0.  0.
         24    2    5    5    0    0  0.57379877291E+02  0.82536316390E+02 -0.86346263867E+02  0.15428440612E+03  0.79014598951E+02 0.  0.
          5    1    5    5  501    0  0.12664497946E+03  0.11101152985E+03  0.24486729045E+02  0.17024746836E+03  0.47000000000E+01 0. -1.
        -13    1    6    6    0    0  0.76465585773E+02  0.54328904900E+02 -0.63115353762E+02  0.11305823100E+03  0.00000000000E+00 0.  1.
         14    1    6    6    0    0 -0.19085708482E+02  0.28207411490E+02 -0.23230910106E+02  0.41226175126E+02  0.00000000000E+00 0. -1.
         -5    1    3    3    0  503 -0.15799920597E+03 -0.15488997780E+03  0.56120356282E+03  0.60326294700E+03  0.47000000000E+01 0.  1.
         11    1    4    4    0    0  0.18691609640E+02 -0.29393515625E+02  0.27291805040E+02  0.44251527138E+02  0.00000000000E+00 0. -1.
        -12    1    4    4    0    0 -0.44717260429E+02 -0.92643528133E+01  0.14023744703E+03  0.14748560324E+03  0.00000000000E+00 0.  1.
</event>
<event>
12    1  0.1046899E+000  0.1834717E+03  0.7818608E-02  0.1164733E+00
         21   -1    0    0  501  502  0.00000000000E+00  0.00000000000E+00  0.10122524139E+03  0.10122524139E+03  0.00000000000E+00 0. -1.
         21   -1    0    0  502  503 -0.00000000000E+00 -0.00000000000E+00 -0.33097212660E+03  0.33097212660E+03  0.00000000000E+00 0. -1.
         -6    2    1    2    0  503  0.11142782284E+01 -0.59812041370E+02 -0.12130489739E+03  0.21907410221E+03  0.17233647965E+03 0.  0.
        -24    2    3    3    0    0  0.41640912785E+02 -0.23167042922E+02 -0.13422111839E+03  0.16273421594E+03  0.78717462626E+02 0.  0.
          6    2    1    2  501    0 -0.11142782284E+01  0.59812041370E+02 -0.10844198781E+03  0.21312326578E+03  0.17344491859E+03 0.  0.
         24    2    5    5    0    0  0.22185776153E+02  0.88035327814E+02 -0.25001795057E+02  0.12188839197E+03  0.77390327134E+02 0.  0.
          5    1    5    5  501    0 -0.23300054382E+02 -0.28223286443E+02 -0.83440192755E+02  0.91234873809E+02  0.47000000000E+01 0. -1.
        -13    1    6    6    0    0  0.41624330447E+01 -0.14147506770E+02  0.14248409513E+01  0.14815801307E+02  0.00000000000E+00 0.  1.
         14    1    6    6    0    0  0.18023343109E+02  0.10218283458E+03 -0.26426636008E+02  0.10707259066E+03  0.00000000000E+00 0. -1.
         -5    1    3    3    0  503 -0.40526634556E+02 -0.36644998448E+02  0.12916220993E+02  0.56339886266E+02  0.47000000000E+01 0.  1.
         11    1    4    4    0    0  0.53912237387E+02 -0.42538631137E+02 -0.93648469238E+02  0.11612967007E+03  0.00000000000E+00 0. -1.
        -12    1    4    4    0    0 -0.12271324602E+02  0.19371588215E+02 -0.40572649149E+02  0.46604545877E+02  0.00000000000E+00 0.  1.
</event>
<event>
12    1  0.1046899E+000  0.2718621E+03  0.7818608E-02  0.1101592E+00
         21   -1    0    0  503  502  0.00000000000E+00  0.00000000000E+00  0.46509766600E+03  0.46509766600E+03  0.00000000000E+00 0. -1.
         21   -1    0    0  501  503 -0.00000000000E+00 -0.00000000000E+00 -0.17211712128E+03  0.17211712128E+03  0.00000000000E+00 0. -1.
          6    2    1    2  501    0  0.15394184757E+03  0.12481636470E+03  0.24920245653E+03  0.36185041704E+03  0.17192045441E+03 0.  0.
         24    2    3    3    0    0  0.12469405198E+03  0.24016082623E+02  0.10705022937E+03  0.18508651774E+03  0.81681629606E+02 0.  0.
         -6    2    1    2    0  502 -0.15394184757E+03 -0.12481636470E+03  0.43778088195E+02  0.27536437024E+03  0.18609620647E+03 0.  0.
        -24    2    5    5    0    0 -0.47538420683E+02 -0.13409853541E+03  0.66333074749E+02  0.16610017041E+03  0.54285091552E+02 0.  0.
          5    1    3    3  501    0  0.29247795590E+02  0.10080028208E+03  0.14215222715E+03  0.17676389931E+03  0.47000000000E+01 0. -1.
        -11    1    4    4    0    0 -0.89157135246E+01  0.14248413543E+02  0.89488617091E+01  0.19041779382E+02  0.00000000000E+00 0.  1.
         12    1    4    4    0    0  0.13360976550E+03  0.97676690796E+01  0.98101367665E+02  0.16604473835E+03  0.00000000000E+00 0. -1.
         -5    1    5    5    0  502 -0.10640342689E+03  0.92821707088E+01 -0.22554986554E+02  0.10926419983E+03  0.47000000000E+01 0.  1.
         11    1    6    6    0    0  0.65567677951E+01  0.83467646161E+00  0.86598886807E+00  0.66661702224E+01  0.00000000000E+00 0. -1.
        -12    1    6    6    0    0 -0.54095188478E+02 -0.13493321187E+03  0.65467085881E+02  0.15943400019E+03  0.00000000000E+00 0.  1.
</event>
<event>
12    1  0.1046899E+000  0.2429696E+03  0.7818608E-02  0.1117883E+00
         21   -1    0    0  503  502  0.00000000000E+00  0.00000000000E+00  0.53936445787E+03  0.53936445787E+03  0.00000000000E+00 0. -1.
         21   -1    0    0  501  503 -0.00000000000E+00 -0.00000000000E+00 -0.23812871876E+03  0.23812871876E+03  0.00000000000E+00 0.  1.
          6    2    1    2  501    0 -0.84069913675E+02  0.13996488319E+03  0.43659189589E+03  0.49964658009E+03  0.17993416163E+03 0.  0.
         24    2    3    3    0    0 -0.29062222586E+02  0.54455809006E+02  0.76026559449E+02  0.12499060497E+03  0.77669592974E+02 0.  0.
         -6    2    1    2    0  502  0.84069913675E+02 -0.13996488319E+03 -0.13535615679E+03  0.27784659655E+03  0.17949797525E+03 0.  0.
        -24    2    5    5    0    0  0.32114734010E+02 -0.14124434639E+03 -0.40753771195E+02  0.16980642309E+03  0.78689452461E+02 0.  0.
          5    1    3    3  501    0 -0.55007691088E+02  0.85509074183E+02  0.36056533644E+03  0.37465597512E+03  0.47000000000E+01 0. -1.
        -11    1    4    4    0    0  0.17066463662E+02  0.49916173501E+02  0.37590469390E+02  0.64776013676E+02  0.00000000000E+00 0.  1.
         12    1    4    4    0    0 -0.46128686248E+02  0.45396355055E+01  0.38436090059E+02  0.60214591293E+02  0.00000000000E+00 0. -1.
         -5    1    5    5    0  502  0.51955179665E+02  0.12794632024E+01 -0.94602385593E+02  0.10804017345E+03  0.47000000000E+01 0.  1.
         13    1    6    6    0    0  0.33919177062E+02 -0.13109118673E+03 -0.59895399894E+02  0.14806373202E+03  0.00000000000E+00 0. -1.
        -14    1    6    6    0    0 -0.18044430521E+01 -0.10153159660E+02  0.19141628699E+02  0.21742691072E+02  0.00000000000E+00 0.  1.
</event>
<event>
12    1  0.1046899E+000  0.2155754E+03  0.7818608E-02  0.1137247E+00
         21   -1    0    0  503  502  0.00000000000E+00  0.00000000000E+00  0.81382686588E+02  0.81382686588E+02  0.00000000000E+00 0. -1.
         21   -1    0    0  501  503 -0.00000000000E+00 -0.00000000000E+00 -0.11325364305E+04  0.11325364305E+04  0.00000000000E+00 0. -1.
          6    2    1    2  501    0 -0.11046364732E+03  0.69598545585E+02 -0.98159767223E+02  0.23687151355E+03  0.17154182901E+03 0.  0.
         24    2    3    3    0    0 -0.85652596972E+02  0.84415893910E+02 -0.12935874621E+03  0.19408590474E+03  0.80456464537E+02 0.  0.
         -6    2    1    2    0  502  0.11046364732E+03 -0.69598545585E+02 -0.95299397673E+03  0.97704760358E+03  0.17140106492E+03 0.  0.
        -24    2    5    5    0    0  0.10598641097E+03  0.32542460291E+00 -0.45630433936E+03  0.47541816553E+03  0.81089806908E+02 0.  0.
          5    1    3    3  501    0 -0.24811050348E+02 -0.14817348325E+02  0.31198978988E+02  0.42785608803E+02  0.47000000000E+01 0. -1.
        -11    1    4    4    0    0 -0.61069698480E+02  0.28431302207E+02 -0.22593073580E+02  0.71051347569E+02  0.00000000000E+00 0.  1.
         12    1    4    4    0    0 -0.24582898492E+02  0.55984591703E+02 -0.10676567263E+03  0.12303455717E+03  0.00000000000E+00 0. -1.
         -5    1    5    5    0  502  0.44772363508E+01 -0.69923970188E+02 -0.49668963736E+03  0.50162943805E+03  0.47000000000E+01 0.  1.
         13    1    6    6    0    0 -0.12497645555E+02 -0.30648594682E+01 -0.24931274249E+02  0.28056246072E+02  0.00000000000E+00 0. -1.
        -14    1    6    6    0    0  0.11848405652E+03  0.33902840712E+01 -0.43137306512E+03  0.44736191946E+03  0.00000000000E+00 0.  1.
</event>
<event>
12    1  0.1046899E+000  0.1779678E+03  0.7818608E-02  0.1170427E+00
         21   -1    0    0  503  502  0.00000000000E+00  0.00000000000E+00  0.51732515728E+03  0.51732515728E+03  0.00000000000E+00 0.  1.
         21   -1    0    0  501  503 -0.00000000000E+00 -0.00000000000E+00 -0.69790435645E+02  0.69790435645E+02  0.00000000000E+00 0.  1.
          6    2    1    2  501    0 -0.42946247383E+02  0.64649633798E+01  0.11428475027E+03  0.20932190657E+03  0.16990727032E+03 0.  0.
         24    2    3    3    0    0 -0.47234468697E+02  0.31063363849E+01 -0.78788277162E+00  0.94024594833E+02  0.81235825320E+02 0.  0.
         -6    2    1    2    0  502  0.42946247383E+02 -0.64649633798E+01  0.33324997137E+03  0.37779368636E+03  0.17258722468E+03 0.  0.
        -24    2    5    5    0    0  0.57171202186E+02 -0.44579121750E+02  0.12456686035E+03  0.16513017461E+03  0.80592973724E+02 0.  0.
          5    1    3    3  501    0  0.42882213143E+01  0.33586269949E+01  0.11507263304E+03  0.11529731173E+03  0.47000000000E+01 0. -1.
        -13    1    4    4    0    0 -0.34292825035E+02  0.35970510315E+02  0.19390307777E+02  0.53346597800E+02  0.00000000000E+00 0.  1.
         14    1    4    4    0    0 -0.12941643663E+02 -0.32864173930E+02 -0.20178190549E+02  0.40677997033E+02  0.00000000000E+00 0. -1.
         -5    1    5    5    0  502 -0.14224954802E+02  0.38114158370E+02  0.20868311101E+03  0.21266351175E+03  0.47000000000E+01 0.  1.
         13    1    6    6    0    0  0.51440031925E+02 -0.39177840655E+01  0.11011029372E+03  0.12159647486E+03  0.00000000000E+00 0. -1.
        -14    1    6    6    0    0  0.57311702608E+01 -0.40661337685E+02  0.14456566633E+02  0.43533699747E+02  0.00000000000E+00 0.  1.
</event>
<event>
12    1  0.1046899E+000  0.2983577E+03  0.7818608E-02  0.1087108E+00
         21   -1    0    0  501  502  0.00000000000E+00  0.00000000000E+00  0.67095848632E+03  0.67095848632E+03  0.00000000000E+00 0. -1.
         21   -1    0    0  502  503 -0.00000000000E+00 -0.00000000000E+00 -0.44183102041E+03  0.44183102041E+03  0.00000000000E+00 0. -1.
         -6    2    1    2    0  503 -0.19745142257E+03  0.12621082349E+03 -0.35401672904E+03  0.45775174224E+03  0.17115074305E+03 0.  0.
        -24    2    3    3    0    0 -0.54442886739E+02 -0.14157620111E+01 -0.90790232309E+02  0.13209814526E+03  0.79000135446E+02 0.  0.
          6    2    1    2  501    0  0.19745142257E+03 -0.12621082349E+03  0.58314419495E+03  0.65503776449E+03  0.18466478974E+03 0.  0.
         24    2    5    5    0    0  0.29789002757E+02 -0.49632872434E+01  0.25775507509E+03  0.26940604720E+03  0.72318190141E+02 0.  0.
          5    1    5    5  501    0  0.16766241981E+03 -0.12124753625E+03  0.32538911985E+03  0.38563171729E+03  0.47000000000E+01 0. -1.
        -11    1    6    6    0    0 -0.41063013519E+01  0.28784199651E+02  0.73448733420E+02  0.78994356136E+02  0.00000000000E+00 0.  1.
         12    1    6    6    0    0  0.33895304109E+02 -0.33747486894E+02  0.18430634167E+03  0.19041169106E+03  0.00000000000E+00 0. -1.
         -5    1    3    3    0  503 -0.14300853583E+03  0.12762658550E+03 -0.26322649673E+03  0.32565359698E+03  0.47000000000E+01 0.  1.
         13    1    4    4    0    0  0.20146810138E+02  0.38908168134E+01 -0.26260370014E+02  0.33326257628E+02  0.00000000000E+00 0. -1.
        -14    1    4    4    0    0 -0.74589696877E+02 -0.53065788245E+01 -0.64529862295E+02  0.98771887634E+02  0.00000000000E+00 0.  1.
</event>
<event>
12    1  0.1046899E+000  0.1850692E+03  0.7818608E-02  0.1165890E+00
         21   -1    0    0  501  502  0.00000000000E+00  0.00000000000E+00  0.83904821172E+03  0.83904821172E+03  0.00000000000E+00 0. -1.
         21   -1    0    0  502  503 -0.00000000000E+00 -0.00000000000E+00 -0.58447670677E+02  0.58447670677E+02  0.00000000000E+00 0. -1.
         -6    2    1    2    0  503 -0.24012825687E+02  0.12961440280E+02  0.64567238742E+03  0.66846265037E+03  0.17089431918E+03 0.  0.
        -24    2    3    3    0    0 -0.29916670475E+02 -0.56890773438E+02  0.38081311333E+03  0.39444310323E+03  0.80219493408E+02 0.  0.
          6    2    1    2  501    0  0.24012825687E+02 -0.12961440280E+02  0.13492815362E+03  0.22903323203E+03  0.18304644220E+03 0.  0.
         24    2    5    5    0    0 -0.22143395930E+02 -0.24121921480E+02  0.15530426418E+03  0.17714653801E+03  0.78672005026E+02 0.  0.
          5    1    5    5  501    0  0.46156221617E+02  0.11160481200E+02 -0.20376110565E+02  0.51886694020E+02  0.47000000000E+01 0. -1.
        -13    1    6    6    0    0 -0.40454885990E+02 -0.41252012742E+02  0.87507098786E+02  0.10486094933E+03  0.00000000000E+00 0.  1.
         14    1    6    6    0    0  0.18311490059E+02  0.17130091262E+02  0.67797165399E+02  0.72285588681E+02  0.00000000000E+00 0. -1.
         -5    1    3    3    0  503  0.59038447882E+01  0.69852213718E+02  0.26485927409E+03  0.27401954714E+03  0.47000000000E+01 0.  1.
         13    1    4    4    0    0 -0.10373088870E+02 -0.68739162040E+00  0.15147890604E+01  0.10505620679E+02  0.00000000000E+00 0. -1.
        -14    1    4    4    0    0 -0.19543581605E+02 -0.56203381817E+02  0.37929832427E+03  0.38393748255E+03  0.00000000000E+00 0.  1.
</event>
<event>
12    1  0.1046899E+000  0.1995388E+03  0.7818608E-02  0.1150364E+00
         21   -1    0    0  503  502  0.00000000000E+00  0.00000000000E+00  0.10561472718E+04  0.10561472718E+04  0.00000000000E+00 0.  1.
         21   -1    0    0  501  503 -0.00000000000E+00 -0.00000000000E+00 -0.44652299623E+02  0.44652299623E+02  0.00000000000E+00 0.  1.
          6    2    1    2  501    0  0.97590113917E+02  0.31968333860E+02  0.72737066678E+03  0.75424387589E+03  0.17108457768E+03 0.  0.
         24    2    3    3    0    0  0.18044343543E+02 -0.40853528368E+02  0.33065873968E+03  0.34310764991E+03  0.79956539389E+02 0.  0.
         -6    2    1    2    0  502 -0.97590113917E+02 -0.31968333860E+02  0.28412430539E+03  0.34655569553E+03  0.16978935327E+03 0.  0.
        -24    2    5    5    0    0 -0.88963652306E+02 -0.16960597793E+02  0.89026902841E+02  0.15063547078E+03  0.81012729369E+02 0.  0.
          5    1    3    3  501    0  0.79545770374E+02  0.72821862228E+02  0.39671192710E+03  0.41113622597E+03  0.47000000000E+01 0. -1.
        -11    1    4    4    0    0  0.25290398555E+02 -0.31928084459E+02  0.32897694167E+03  0.33148881577E+03  0.00000000000E+00 0.  1.
         12    1    4    4    0    0 -0.72460550122E+01 -0.89254439084E+01  0.16817980110E+01  0.11618834139E+02  0.00000000000E+00 0. -1.
         -5    1    5    5    0  502 -0.86264616112E+01 -0.15007736067E+02  0.19509740255E+03  0.19592022475E+03  0.47000000000E+01 0.  1.
         13    1    6    6    0    0  0.66885055386E+01 -0.22182179756E+02  0.61627832986E+01  0.23974259176E+02  0.00000000000E+00 0. -1.
        -14    1    6    6    0    0 -0.95652157844E+02  0.52215819629E+01  0.82864119542E+02  0.12666121161E+03  0.00000000000E+00 0.  1.
</event>
<event>
12    1  0.1046899E+000  0.2301939E+03  0.7818608E-02  0.1126767E+00
         21   -1    0    0  501  502  0.00000000000E+00  0.00000000000E+00  0.68319731652E+03  0.68319731652E+03  0.00000000000E+00 0.  1.
         21   -1    0    0  502  503 -0.00000000000E+00 -0.00000000000E+00 -0.15112545178E+03  0.15112545178E+03  0.00000000000E+00 0.  1.
         -6    2    1    2    0  503  0.97578719738E+02 -0.11691210454E+03  0.55763864109E+03  0.60271344095E+03  0.17062412236E+03 0.  0.
        -24    2    3    3    0    0  0.29836400892E+02 -0.12843089870E+03  0.43880073629E+03  0.46535900164E+03  0.81413805206E+02 0.  0.
          6    2    1    2  501    0 -0.97578719738E+02  0.11691210454E+03 -0.25566776343E+02  0.23160932735E+03  0.17262437177E+03 0.  0.
         24    2    5    5    0    0 -0.40753456858E+01  0.80200104209E+02 -0.55296625027E+02  0.12674462485E+03  0.80980355840E+02 0.  0.
          5    1    5    5  501    0 -0.93503374052E+02  0.36712000331E+02  0.29729848685E+02  0.10486470250E+03  0.47000000000E+01 0. -1.
        -13    1    6    6    0    0 -0.12286279905E+01 -0.85075561727E+01  0.12422615080E+02  0.15106601345E+02  0.00000000000E+00 0.  1.
         14    1    6    6    0    0 -0.28467176953E+01  0.88707660381E+02 -0.67719240107E+02  0.11163802351E+03  0.00000000000E+00 0. -1.
         -5    1    3    3    0  503  0.67742318845E+02  0.11518794160E+02  0.11883790480E+03  0.13735443931E+03  0.47000000000E+01 0.  1.
         11    1    4    4    0    0  0.57511938367E+02 -0.76259237516E+02  0.28688959573E+03  0.30237184806E+03  0.00000000000E+00 0. -1.
        -12    1    4    4    0    0 -0.27675537475E+02 -0.52171661184E+02  0.15191114056E+03  0.16298715358E+03  0.00000000000E+00 0.  1.
</event>
<event>
12    1  0.1046899E+000  0.2015235E+03  0.7818608E-02  0.1148965E+00
         21   -1    0    0  503  502  0.00000000000E+00  0.00000000000E+00  0.50840909753E+03  0.50840909753E+03  0.00000000000E+00 0.  1.
         21   -1    0    0  501  503 -0.00000000000E+00 -0.00000000000E+00 -0.16469934247E+03  0.16469934247E+03  0.00000000000E+00 0. -1.
          6    2    1    2  501    0  0.38102008927E+02 -0.98290875539E+02 -0.71506387215E+02  0.21157167678E+03  0.16892765227E+03 0.  0.
         24    2    3    3    0    0  0.77545204802E+01 -0.11236796491E+03 -0.69000844307E+01  0.13866626642E+03  0.80585545543E+02 0.  0.
         -6    2    1    2    0  502 -0.38102008927E+02  0.98290875539E+02  0.41521614227E+03  0.46153676322E+03  0.17175237902E+03 0.  0.
        -24    2    5    5    0    0  0.17660797056E+02 -0.12166300141E+02  0.14179076237E+03  0.16138045966E+03  0.74021009548E+02 0.  0.
          5    1    3    3  501    0  0.30347488447E+02  0.14077089373E+02 -0.64606302784E+02  0.72905410359E+02  0.47000000000E+01 0. -1.
        -11    1    4    4    0    0  0.24550579233E+02 -0.21270407288E+02  0.24682945137E+02  0.40797168376E+02  0.00000000000E+00 0.  1.
         12    1    4    4    0    0 -0.16796058753E+02 -0.91097557624E+02 -0.31583029567E+02  0.97869098041E+02  0.00000000000E+00 0. -1.
         -5    1    5    5    0  502 -0.55762805983E+02  0.11045717568E+03  0.27342537990E+03  0.30015630356E+03  0.47000000000E+01 0.  1.
         11    1    6    6    0    0  0.20103831303E+02  0.89571815922E+01  0.45147430272E+01  0.22467265960E+02  0.00000000000E+00 0. -1.
        -12    1    6    6    0    0 -0.24430342469E+01 -0.21123481733E+02  0.13727601934E+03  0.13891319370E+03  0.00000000000E+00 0.  1.
</event>
<event>
12    1  0.1046899E+000  0.2040562E+03  0.7818608E-02  0.1148252E+00
         21   -1    0    0  501  502  0.00000000000E+00  0.00000000000E+00  0.54480210048E+03  0.54480210048E+03  0.00000000000E+00 0.  1.
         21   -1    0    0  502  503 -0.00000000000E+00 -0.00000000000E+00 -0.73240674038E+02  0.73240674038E+02  0.00000000000E+00 0.  1.
         -6    2    1    2    0  503  0.31841701337E+02  0.86615696235E+02  0.25454073251E+03  0.32623601399E+03  0.18199664706E+03 0.  0.
        -24    2    3    3    0    0  0.77030164368E+02  0.75939786196E+02  0.10989679217E+03  0.17424939707E+03  0.81148321616E+02 0.  0.
          6    2    1    2  501    0 -0.31841701337E+02 -0.86615696235E+02  0.21702069393E+03  0.29180676052E+03  0.17186340830E+03 0.  0.
         24    2    5    5    0    0 -0.28630790273E+02  0.93685314808E+00  0.40193639559E+02  0.94409556866E+02  0.80480034301E+02 0.  0.
          5    1    5    5  501    0 -0.32109110646E+01 -0.87552549383E+02  0.17682705437E+03  0.19739720366E+03  0.47000000000E+01 0. -1.
        -13    1    6    6    0    0 -0.13775221756E+02  0.33327362603E+02  0.45845873752E+02  0.58329357725E+02  0.00000000000E+00 0.  1.
         14    1    6    6    0    0 -0.14855568517E+02 -0.32390509455E+02 -0.56522341929E+01  0.36080199141E+02  0.00000000000E+00 0. -1.
         -5    1    3    3    0  503 -0.45188463030E+02  0.10675910038E+02  0.14464394034E+03  0.15198661692E+03  0.47000000000E+01 0.  1.
         11    1    4    4    0    0  0.74897900194E+02  0.25036507679E+02  0.89527531949E+02  0.11938048897E+03  0.00000000000E+00 0. -1.
        -12    1    4    4    0    0  0.21322641742E+01  0.50903278517E+02  0.20369260220E+02  0.54868908101E+02  0.00000000000E+00 0.  1.
</event>
<event>
12    1  0.1046899E+000  0.1845072E+03  0.7818608E-02  0.1163899E+00
         21   -1    0    0  501  502  0.00000000000E+00  0.00000000000E+00  0.55715710649E+03  0.55715710649E+03  0.00000000000E+00 0.  1.
         21   -1    0    0  502  503 -0.00000000000E+00 -0.00000000000E+00 -0.11026822023E+03  0.11026822023E+03  0.00000000000E+00 0.  1.
         -6    2    1    2    0  503  0.11976248721E+02 -0.64781230869E+02  0.44695894737E+03  0.48291809709E+03  0.17058003827E+03 0.  0.
        -24    2    3    3    0    0 -0.52652968445E+02 -0.13180128799E+02  0.28489737449E+03  0.30091355635E+03  0.80227199387E+02 0.  0.
          6    2    1    2  501    0 -0.11976248721E+02  0.64781230869E+02 -0.70061105436E-01  0.18450722964E+03  0.17234521889E+03 0.  0.
         24    2    5    5    0    0 -0.49894251315E+02  0.11586976845E+01  0.38199696350E+02  0.10100713392E+03  0.79072406099E+02 0.  0.
          5    1    5    5  501    0  0.37918002594E+02  0.63622533184E+02 -0.38269757456E+02  0.83500095720E+02  0.47000000000E+01 0. -1.
        -11    1    6    6    0    0 -0.80765408002E+00 -0.25210480047E+02  0.37607582255E+02  0.45283008429E+02  0.00000000000E+00 0.  1.
         12    1    6    6    0    0 -0.49086597235E+02  0.26369177732E+02  0.59211409573E+00  0.55724125489E+02  0.00000000000E+00 0. -1.
         -5    1    3    3    0  503  0.64629217167E+02 -0.51601102070E+02  0.16206157288E+03  0.18200454074E+03  0.47000000000E+01 0.  1.
         13    1    4    4    0    0 -0.50647206314E+01 -0.24717230719E+02  0.20948007978E+03  0.21099406796E+03  0.00000000000E+00 0. -1.
        -14    1    4    4    0    0 -0.47588247814E+02  0.11537101920E+02  0.75417294712E+02  0.89919488390E+02  0.00000000000E+00 0.  1.
</event>
<event>
12    1  0.1046899E+000  0.6454850E+03  0.7818608E-02  0.9815407E-01
         21   -1    0    0  501  502  0.00000000000E+00  0.00000000000E+00  0.47323278487E+03  0.47323278487E+03  0.00000000000E+00 0. -1.
         21   -1    0    0  502  503 -0.00000000000E+00 -0.00000000000E+00 -0.12769855127E+04  0.12769855127E+04  0.00000000000E+00 0. -1.
         -6    2    1    2    0  503 -0.40453035591E+03  0.47261008502E+03  0.85940828613E+02  0.65118098810E+03  0.17217941783E+03 0.  0.
        -24    2    3    3    0    0 -0.41453614155E+03  0.43378821563E+03  0.85223213818E+02  0.61080948503E+03  0.76241735030E+02 0.  0.
          6    2    1    2  501    0  0.40453035591E+03 -0.47261008502E+03 -0.88969355644E+03  0.10990373095E+04  0.17124042139E+03 0.  0.
         24    2    5    5    0    0  0.91206129587E+02 -0.16354222527E+03 -0.23897866951E+03  0.31345028895E+03  0.77946530670E+02 0.  0.
          5    1    5    5  501    0  0.31332422633E+03 -0.30906785976E+03 -0.65071488693E+03  0.78558702052E+03  0.47000000000E+01 0. -1.
        -11    1    6    6    0    0  0.72656028909E+02 -0.10060385066E+03 -0.20480728339E+03  0.23947036692E+03  0.00000000000E+00 0.  1.
         12    1    6    6    0    0  0.18550100678E+02 -0.62938374612E+02 -0.34171386112E+02  0.73979922024E+02  0.00000000000E+00 0. -1.
         -5    1    3    3    0  503  0.10005785634E+02  0.38821869397E+02  0.71761479491E+00  0.40371503076E+02  0.47000000000E+01 0.  1.
         13    1    4    4    0    0 -0.18071414192E+03  0.21876080891E+03  0.78428859159E+01  0.28385806922E+03  0.00000000000E+00 0. -1.
        -14    1    4    4    0    0 -0.23382199963E+03  0.21502740672E+03  0.77380327902E+02  0.32695141581E+03  0.00000000000E+00 0.  1.
</event>
<event>
12    1  0.1046899E+000  0.2176829E+03  0.7818608E-02  0.1135758E+00
         21   -1    0    0  503  502  0.00000000000E+00  0.00000000000E+00  0.11150601325E+03  0.11150601325E+03  0.00000000000E+00 0. -1.
         21   -1    0    0  501  503 -0.00000000000E+00 -0.00000000000E+00 -0.42454720832E+03  0.42454720832E+03  0.00000000000E+00 0. -1.
          6    2    1    2  501    0 -0.13201849823E+03  0.93088963088E+01 -0.16963758318E+03  0.27597602718E+03  0.17283031714E+03 0.  0.
         24    2    3    3    0    0 -0.10320346041E+03 -0.58460518702E+02 -0.12078438605E+03  0.18747899398E+03  0.80566238471E+02 0.  0.
         -6    2    1    2    0  502  0.13201849823E+03 -0.93088963088E+01 -0.14340361190E+03  0.26007719439E+03  0.17193025246E+03 0.  0.
        -24    2    5    5    0    0  0.78254979088E+02 -0.39071477883E+02 -0.15735345829E+03  0.19688688289E+03  0.79711427540E+02 0.  0.
          5    1    3    3  501    0 -0.28815037821E+02  0.67769415011E+02 -0.48853197130E+02  0.88497033201E+02  0.47000000000E+01 0. -1.
        -11    1    4    4    0    0 -0.80332092279E+02 -0.24762829048E+02 -0.12028720476E+03  0.14674963162E+03  0.00000000000E+00 0.  1.
         12    1    4    4    0    0 -0.22871368134E+02 -0.33697689653E+02 -0.49718128391E+00  0.40729362351E+02  0.00000000000E+00 0. -1.
         -5    1    5    5    0  502  0.53763519146E+02  0.29762581574E+02  0.13949846399E+02  0.63190311500E+02  0.47000000000E+01 0.  1.
         11    1    6    6    0    0  0.73637493953E+02 -0.56397009602E+01 -0.64370681530E+02  0.97968726558E+02  0.00000000000E+00 0. -1.
        -12    1    6    6    0    0  0.46174851342E+01 -0.33431776923E+02 -0.92982776764E+02  0.98918156331E+02  0.00000000000E+00 0.  1.
</event>
<event>
12    1  0.1046899E+000  0.1819355E+03  0.7818608E-02  0.1167655E+00
         21   -1    0    0  501  502  0.00000000000E+00  0.00000000000E+00  0.17641460611E+02  0.17641460611E+02  0.00000000000E+00 0. -1.
         21   -1    0    0  502  503 -0.00000000000E+00 -0.00000000000E+00 -0.21370634957E+04  0.21370634957E+04  0.00000000000E+00 0. -1.
         -6    2    1    2    0  503 -0.39725686598E+02 -0.42524711500E+02 -0.65242193028E+03  0.67731447369E+03  0.17237760845E+03 0.  0.
        -24    2    3    3    0    0 -0.41191940443E+02 -0.75263465027E+01 -0.62784053211E+03  0.63426368289E+03  0.79707363644E+02 0.  0.
          6    2    1    2  501    0  0.39725686598E+02  0.42524711500E+02 -0.14670001048E+04  0.14773904826E+04  0.16494498891E+03 0.  0.
         24    2    5    5    0    0  0.50533565965E+02 -0.10018881783E+01 -0.45391217356E+03  0.46329945042E+03  0.77816928688E+02 0.  0.
          5    1    5    5  501    0 -0.10807879368E+02  0.43526599678E+02 -0.10130879312E+04  0.10140910322E+04  0.47000000000E+01 0. -1.
        -11    1    6    6    0    0  0.52818191279E+02  0.18880276761E+02 -0.42143400911E+03  0.42515038541E+03  0.00000000000E+00 0.  1.
         12    1    6    6    0    0 -0.22846253131E+01 -0.19882164940E+02 -0.32478164449E+02  0.38149065014E+02  0.00000000000E+00 0. -1.
         -5    1    3    3    0  503  0.14662538451E+01 -0.34998364997E+02 -0.24581398168E+02  0.43050790802E+02  0.47000000000E+01 0.  1.
         11    1    4    4    0    0 -0.19128454951E+02 -0.21710248660E+02 -0.57022471559E+03  0.57095836884E+03  0.00000000000E+00 0. -1.
        -12    1    4    4    0    0 -0.22063485492E+02  0.14183902158E+02 -0.57615816522E+02  0.63305314043E+02  0.00000000000E+00 0.  1.
</event>
<event>
12    1  0.1046899E+000  0.2012856E+03  0.7818608E-02  0.1151508E+00
         21   -1    0    0  501  502  0.00000000000E+00  0.00000000000E+00  0.16320803088E+03  0.16320803088E+03  0.00000000000E+00 0. -1.
         21   -1    0    0  502  503 -0.00000000000E+00 -0.00000000000E+00 -0.36765377469E+03  0.36765377469E+03  0.00000000000E+00 0. -1.
         -6    2    1    2    0  503 -0.12292690727E+02  0.76271435852E+02  0.56587945818E+02  0.20908875452E+03  0.18586949584E+03 0.  0.
        -24    2    3    3    0    0 -0.35679058458E+02 -0.89111983946E+01  0.79683105333E+02  0.11766403267E+03  0.78377437057E+02 0.  0.
          6    2    1    2  501    0  0.12292690727E+02 -0.76271435852E+02 -0.26103368963E+03  0.32177305105E+03  0.17155426865E+03 0.  0.
         24    2    5    5    0    0 -0.24228008023E+02  0.19855798618E+02 -0.12418703238E+03  0.15053256448E+03  0.79097312496E+02 0.  0.
          5    1    5    5  501    0  0.36520698750E+02 -0.96127234469E+02 -0.13684665725E+03  0.17124048658E+03  0.47000000000E+01 0. -1.
        -11    1    6    6    0    0  0.17797937814E+02 -0.18940073552E+02 -0.25150925942E+02  0.36167140505E+02  0.00000000000E+00 0.  1.
         12    1    6    6    0    0 -0.42025945837E+02  0.38795872170E+02 -0.99036106441E+02  0.11436542397E+03  0.00000000000E+00 0. -1.
         -5    1    3    3    0  503  0.23386367731E+02  0.85182634246E+02 -0.23095159514E+02  0.91424721853E+02  0.47000000000E+01 0.  1.
         13    1    4    4    0    0 -0.56658033457E+02  0.10927436006E+02  0.53250671776E+02  0.78518632550E+02  0.00000000000E+00 0. -1.
        -14    1    4    4    0    0  0.20978974999E+02 -0.19838634400E+02  0.26432433557E+02  0.39145400121E+02  0.00000000000E+00 0.  1.
</event>
<event>
12    1  0.1046899E+000  0.2729185E+03  0.7818608E-02  0.1099722E+00
         21   -1    0    0  503  502  0.00000000000E+00  0.00000000000E+00  0.85360000219E+03  0.85360000219E+03  0.00000000000E+00 0. -1.
         21   -1    0    0  501  503 -0.00000000000E+00 -0.00000000000E+00 -0.90763119309E+02  0.90763119309E+02  0.00000000000E+00 0. -1.
          6    2    1    2  501    0  0.61830783470E+00  0.21142471394E+03  0.47668340182E+03  0.54892879289E+03  0.17144959064E+03 0.  0.
         24    2    3    3    0    0 -0.57078217371E+02  0.18985307816E+03  0.31788535052E+03  0.37853766758E+03  0.54199220611E+02 0.  0.
         -6    2    1    2    0  502 -0.61830783470E+00 -0.21142471394E+03  0.28615348106E+03  0.39543432860E+03  0.17257955136E+03 0.  0.
        -24    2    5    5    0    0  0.58344710063E+02 -0.17885649430E+03  0.23015339230E+03  0.30771074939E+03  0.79508304928E+02 0.  0.
          5    1    3    3  501    0  0.57696525206E+02  0.21571635781E+02  0.15879805130E+03  0.17039112532E+03  0.47000000000E+01 0. -1.
        -11    1    4    4    0    0  0.77617649331E+01  0.24666762668E+02  0.61643604702E+02  0.66847798588E+02  0.00000000000E+00 0.  1.
         12    1    4    4    0    0 -0.64839982304E+02  0.16518631549E+03  0.25624174582E+03  0.31168986899E+03  0.00000000000E+00 0. -1.
         -5    1    5    5    0  502 -0.58963017897E+02 -0.32568219633E+02  0.56000088763E+02  0.87723579219E+02  0.47000000000E+01 0.  1.
         13    1    6    6    0    0  0.70103334463E+02 -0.88039410330E+02  0.12147699210E+03  0.16559611978E+03  0.00000000000E+00 0. -1.
        -14    1    6    6    0    0 -0.11758624400E+02 -0.90817083974E+02  0.10867640020E+03  0.14211462961E+03  0.00000000000E+00 0.  1.
</event>
<event>
12    1  0.1046899E+000  0.1860538E+03  0.7818608E-02  0.1162182E+00
         21   -1    0    0  501  502  0.00000000000E+00  0.00000000000E+00  0.35479390302E+03  0.35479390302E+03  0.00000000000E+00 0. -1.
         21   -1    0    0  502  503 -0.00000000000E+00 -0.00000000000E+00 -0.22660645051E+03  0.22660645051E+03  0.00000000000E+00 0. -1.
         -6    2    1    2    0  503  0.33546054110E+02  0.59163367041E+02 -0.15552532181E+03  0.24212322530E+03  0.17265540467E+03 0.  0.
        -24    2    3    3    0    0 -0.62454106612E+01 -0.32300020275E+02 -0.64605820874E+02  0.10707746440E+03  0.78799586468E+02 0.  0.
          6    2    1    2  501    0 -0.33546054110E+02 -0.59163367041E+02  0.28371277432E+03  0.33927712823E+03  0.17317733592E+03 0.  0.
         24    2    5    5    0    0  0.39912828623E+02 -0.63853945724E+02  0.20024334369E+03  0.22788841771E+03  0.78519895315E+02 0.  0.
          5    1    5    5  501    0 -0.73458882733E+02  0.46905786830E+01  0.83469430629E+02  0.11138871052E+03  0.47000000000E+01 0. -1.
        -11    1    6    6    0    0  0.39659093494E+02  0.43577372420E+01  0.86528776920E+02  0.95284116231E+02  0.00000000000E+00 0.  1.
         12    1    6    6    0    0  0.25373512835E+00 -0.68211682966E+02  0.11371456677E+03  0.13260430148E+03  0.00000000000E+00 0. -1.
         -5    1    3    3    0  503  0.39791464771E+02  0.91463387315E+02 -0.90919500935E+02  0.13504576090E+03  0.47000000000E+01 0.  1.
         13    1    4    4    0    0  0.35142065948E+00  0.16474021326E+02  0.88139180659E+01  0.18686948033E+02  0.00000000000E+00 0. -1.
        -14    1    4    4    0    0 -0.65968313207E+01 -0.48774041601E+02 -0.73419738940E+02  0.88390516367E+02  0.00000000000E+00 0.  1.
</event>
<event>
12    1  0.1046899E+000  0.2406051E+03  0.7818608E-02  0.1119479E+00
         21   -1    0    0  501  502  0.00000000000E+00  0.00000000000E+00  0.86249636907E+03  0.86249636907E+03  0.00000000000E+00 0. -1.
         21   -1    0    0  502  503 -0.00000000000E+00 -0.00000000000E+00 -0.12138692833E+03  0.12138692833E+03  0.00000000000E+00 0.  1.
         -6    2    1    2    0  503  0.71701930795E+02 -0.15170292141E+03  0.41406962149E+02  0.24414206744E+03  0.17244091549E+03 0.  0.
        -24    2    3    3    0    0 -0.13869798660E+01 -0.10962724883E+03  0.72240772466E+02  0.15422452219E+03  0.80909929178E+02 0.  0.
          6    2    1    2  501    0 -0.71701930795E+02  0.15170292141E+03  0.69970247859E+03  0.73974122997E+03  0.17169328910E+03 0.  0.
         24    2    5    5    0    0  0.75181890055E+01  0.14935174018E+02  0.23579967395E+03  0.24962986889E+03  0.80212234821E+02 0.  0.
          5    1    5    5  501    0 -0.79220119801E+02  0.13676774739E+03  0.46390280464E+03  0.49011136108E+03  0.47000000000E+01 0. -1.
        -13    1    6    6    0    0 -0.26191433724E+02  0.11371415328E+02  0.31411202356E+02  0.42449545587E+02  0.00000000000E+00 0.  1.
         14    1    6    6    0    0  0.33709622730E+02  0.35637586905E+01  0.20438847160E+03  0.20718032330E+03  0.00000000000E+00 0. -1.
         -5    1    3    3    0  503  0.73088910661E+02 -0.42075672580E+02 -0.30833810317E+02  0.89917545248E+02  0.47000000000E+01 0.  1.
         11    1    4    4    0    0  0.18457006095E+02 -0.16416620507E+02  0.50881739511E+02  0.56560745386E+02  0.00000000000E+00 0. -1.
        -12    1    4    4    0    0 -0.19843985961E+02 -0.93210628326E+02  0.21359032955E+02  0.97663776808E+02  0.00000000000E+00 0.  1.
</event>
<event>
12    1  0.1046899E+000  0.2602511E+03  0.7818608E-02  0.1107038E+00
         21   -1    0    0  501  502  0.00000000000E+00  0.00000000000E+00  0.91774006142E+02  0.91774006142E+02  0.00000000000E+00 0.  1.
         21   -1    0    0  502  503 -0.00000000000E+00 -0.00000000000E+00 -0.76843790635E+03  0.76843790635E+03  0.00000000000E+00 0.  1.
         -6    2    1    2    0  503 -0.19159618203E+03  0.33639990373E+02 -0.25174477824E+03  0.36208574841E+03  0.17288698594E+03 0.  0.
        -24    2    3    3    0    0 -0.84831947480E+02 -0.45153081235E+02 -0.14641199739E+03  0.19260408381E+03  0.80153602929E+02 0.  0.
          6    2    1    2  501    0  0.19159618203E+03 -0.33639990373E+02 -0.42491912197E+03  0.49812616409E+03  0.17243163634E+03 0.  0.
         24    2    5    5    0    0  0.16153362090E+03 -0.85534192197E+02 -0.32145829954E+03  0.37844743773E+03  0.80484880972E+02 0.  0.
          5    1    5    5  501    0  0.30062561130E+02  0.51894201824E+02 -0.10346082243E+03  0.11967872636E+03  0.47000000000E+01 0. -1.
        -11    1    6    6    0    0  0.15472019876E+03 -0.79274829625E+02 -0.23936905577E+03  0.29583844135E+03  0.00000000000E+00 0.  1.
         12    1    6    6    0    0  0.68134221383E+01 -0.62593625715E+01 -0.82089243767E+02  0.82608996382E+02  0.00000000000E+00 0. -1.
         -5    1    3    3    0  503 -0.10676423455E+03  0.78793071608E+02 -0.10533278086E+03  0.16948166460E+03  0.47000000000E+01 0.  1.
         11    1    4    4    0    0 -0.73983395378E+02 -0.16463905012E+02 -0.48456989302E+02  0.89959339549E+02  0.00000000000E+00 0. -1.
        -12    1    4    4    0    0 -0.10848552102E+02 -0.28689176223E+02 -0.97955008086E+02  0.10264474426E+03  0.00000000000E+00 0.  1.
</event>
<event>
12    1  0.1046899E+000  0.1899846E+03  0.7818608E-02  0.1159451E+00
         21   -1    0    0  503  502  0.00000000000E+00  0.00000000000E+00  0.31611696327E+03  0.31611696327E+03  0.00000000000E+00 0.  1.
         21   -1    0    0  501  503 -0.00000000000E+00 -0.00000000000E+00 -0.13288681586E+03  0.13288681586E+03  0.00000000000E+00 0.  1.
          6    2    1    2  501    0 -0.17332981650E+02  0.74047973086E+02  0.18053649442E+03  0.25900008853E+03  0.16942280091E+03 0.  0.
         24    2    3    3    0    0 -0.84908724563E+01  0.16036005322E+02  0.18320046608E+03  0.20006997701E+03  0.78334772254E+02 0.  0.
         -6    2    1    2    0  502  0.17332981650E+02 -0.74047973086E+02  0.26936529906E+01  0.19000369060E+03  0.17409943166E+03 0.  0.
        -24    2    5    5    0    0  0.13955540751E+02 -0.22002459420E+02 -0.56456860035E+02  0.11100359066E+03  0.91954090480E+02 0.  0.
          5    1    3    3  501    0 -0.88421091932E+01  0.58011967764E+02 -0.26639716655E+01  0.58930111521E+02  0.47000000000E+01 0. -1.
        -11    1    4    4    0    0 -0.43214163225E+02  0.36599467149E+01  0.92381773940E+02  0.10205513838E+03  0.00000000000E+00 0.  1.
         12    1    4    4    0    0  0.34723290768E+02  0.12376058607E+02  0.90818692143E+02  0.98014838626E+02  0.00000000000E+00 0. -1.
         -5    1    5    5    0  502  0.33774408983E+01 -0.52045513666E+02  0.59150513026E+02  0.79000099943E+02  0.47000000000E+01 0.  1.
         11    1    6    6    0    0  0.46461053551E+02 -0.66198415607E+01 -0.35931402347E+01  0.47067637036E+02  0.00000000000E+00 0. -1.
        -12    1    6    6    0    0 -0.32505512800E+02 -0.15382617859E+02 -0.52863719801E+02  0.63935953623E+02  0.00000000000E+00 0.  1.
</event>
<event>
12    1  0.1046899E+000  0.2201948E+03  0.7818608E-02  0.1133792E+00
         21   -1    0    0  503  502  0.00000000000E+00  0.00000000000E+00  0.19853481052E+03  0.19853481052E+03  0.00000000000E+00 0.  1.
         21   -1    0    0  501  503 -0.00000000000E+00 -0.00000000000E+00 -0.24900855660E+03  0.24900855660E+03  0.00000000000E+00 0.  1.
          6    2    1    2  501    0 -0.10562052705E+03  0.88188227847E+02  0.68061667011E+01  0.22029999488E+03  0.17190958255E+03 0.  0.
         24    2    3    3    0    0 -0.44251982309E+02  0.19583854495E+02 -0.55944625597E+02  0.10879927622E+03  0.79785437760E+02 0.  0.
         -6    2    1    2    0  502  0.10562052705E+03 -0.88188227847E+02 -0.57279912786E+02  0.22724337224E+03  0.17153921579E+03 0.  0.
        -24    2    5    5    0    0  0.69796131513E+02  0.17188908113E+02 -0.38130437835E+02  0.11421010064E+03  0.80143984562E+02 0.  0.
          5    1    3    3  501    0 -0.61368544743E+02  0.68604373352E+02  0.62750792298E+02  0.11150071866E+03  0.47000000000E+01 0. -1.
        -11    1    4    4    0    0 -0.10573318452E+02 -0.26159883593E+02  0.11779199843E+01  0.28240433215E+02  0.00000000000E+00 0.  1.
         12    1    4    4    0    0 -0.33678663857E+02  0.45743738087E+02 -0.57122545581E+02  0.80558843010E+02  0.00000000000E+00 0. -1.
         -5    1    5    5    0  502  0.35824395539E+02 -0.10537713596E+03 -0.19149474951E+02  0.11303327160E+03  0.47000000000E+01 0.  1.
         13    1    6    6    0    0  0.13425454705E+02 -0.26946522816E+02 -0.29411469490E+02  0.42087913509E+02  0.00000000000E+00 0. -1.
        -14    1    6    6    0    0  0.56370676808E+02  0.44135430929E+02 -0.87189683451E+01  0.72122187128E+02  0.00000000000E+00 0.  1.
</event>
<event>
12    1  0.1046899E+000  0.1945494E+03  0.7818608E-02  0.1154679E+00
         21   -1    0    0  503  502  0.00000000000E+00  0.00000000000E+00  0.27835598079E+03  0.27835598079E+03  0.00000000000E+00 0. -1.
         21   -1    0    0  501  503 -0.00000000000E+00 -0.00000000000E+00 -0.18071412796E+03  0.18071412796E+03  0.00000000000E+00 0. -1.
          6    2    1    2  501    0 -0.14625411992E+02  0.89143676399E+02 -0.66317949893E+02  0.20554202259E+03  0.17230483120E+03 0.  0.
         24    2    3    3    0    0  0.37674913598E+02  0.57367548626E+02 -0.90137718049E+02  0.13970496837E+03  0.81744940044E+02 0.  0.
         -6    2    1    2    0  502  0.14625411992E+02 -0.89143676399E+02  0.16395980273E+03  0.25352808616E+03  0.17097712082E+03 0.  0.
        -24    2    5    5    0    0  0.21735480684E+02 -0.13432126089E+03  0.14196310964E+03  0.20256229642E+03  0.48614063644E+02 0.  0.
          5    1    3    3  501    0 -0.52300325589E+02  0.31776127773E+02  0.23819768156E+02  0.65837054217E+02  0.47000000000E+01 0. -1.
        -11    1    4    4    0    0  0.48742551661E+02  0.72713955274E+02 -0.70122540562E+02  0.11216205387E+03  0.00000000000E+00 0.  1.
         12    1    4    4    0    0 -0.11067638064E+02 -0.15346406648E+02 -0.20015177486E+02  0.27542914499E+02  0.00000000000E+00 0. -1.
         -5    1    5    5    0  502 -0.71100686924E+01  0.45177584493E+02  0.21996693091E+02  0.50965789745E+02  0.47000000000E+01 0.  1.
         11    1    6    6    0    0 -0.12560050183E+02 -0.66232424885E+02  0.55780219604E+02  0.87498124928E+02  0.00000000000E+00 0. -1.
        -12    1    6    6    0    0  0.34295530867E+02 -0.68088836006E+02  0.86182890034E+02  0.11506417149E+03  0.00000000000E+00 0.  1.
</event>
<event>
12    1  0.1046899E+000  0.1814509E+03  0.7818608E-02  0.1167323E+00
         21   -1    0    0  503  502  0.00000000000E+00  0.00000000000E+00  0.35362316528E+03  0.35362316528E+03  0.00000000000E+00 0. -1.
         21   -1    0    0  501  503 -0.00000000000E+00 -0.00000000000E+00 -0.93544382369E+02  0.93544382369E+02  0.00000000000E+00 0. -1.
          6    2    1    2  501    0  0.33390424746E+02 -0.37905196366E+02  0.95777424154E+02  0.20517732440E+03  0.17427763797E+03 0.  0.
         24    2    3    3    0    0 -0.20452206862E+01 -0.19788543585E+02  0.12830756841E+03  0.15356145126E+03  0.81990961794E+02 0.  0.
         -6    2    1    2    0  502 -0.33390424746E+02  0.37905196366E+02  0.16430135876E+03  0.24199022325E+03  0.17033087589E+03 0.  0.
        -24    2    5    5    0    0  0.30531476554E+02  0.53964301907E+01  0.14496469727E+03  0.16756693508E+03  0.78119279046E+02 0.  0.
          5    1    3    3  501    0  0.35435645433E+02 -0.18116652782E+02 -0.32530144258E+02  0.51615873147E+02  0.47000000000E+01 0. -1.
        -11    1    4    4    0    0 -0.39559377292E+02 -0.22672178946E+02  0.82706184274E+02  0.94441966027E+02  0.00000000000E+00 0.  1.
         12    1    4    4    0    0  0.37514156605E+02  0.28836353615E+01  0.45601384138E+02  0.59119485232E+02  0.00000000000E+00 0. -1.
         -5    1    5    5    0  502 -0.63921901300E+02  0.32508766176E+02  0.19336661493E+02  0.74423288169E+02  0.47000000000E+01 0.  1.
         11    1    6    6    0    0 -0.18299344751E+01 -0.21977997221E+02  0.11122783827E+03  0.11339317894E+03  0.00000000000E+00 0. -1.
        -12    1    6    6    0    0  0.32361411029E+02  0.27374427412E+02  0.33736858992E+02  0.54173756142E+02  0.00000000000E+00 0.  1.
</event>
<event>
12    1  0.1046899E+000  0.1888253E+03  0.7818608E-02  0.1159978E+00
         21   -1    0    0  501  502  0.00000000000E+00  0.00000000000E+00  0.33144727907E+03  0.33144727907E+03  0.00000000000E+00 0. -1.
         21   -1    0    0  502  503 -0.00000000000E+00 -0.00000000000E+00 -0.21800422433E+03  0.21800422433E+03  0.00000000000E+00 0. -1.
         -6    2    1    2    0  503 -0.72469940096E+02 -0.62557864127E+01 -0.13994692649E+03  0.23344284957E+03  0.17210286082E+03 0.  0.
        -24    2    3    3    0    0 -0.45911559205E+02  0.52682257508E+02 -0.13357366487E+03  0.16831413793E+03  0.74862764805E+02 0.  0.
          6    2    1    2  501    0  0.72469940096E+02  0.62557864127E+01  0.25338998123E+03  0.31600865382E+03  0.17425257422E+03 0.  0.
         24    2    5    5    0    0  0.76907329164E+02  0.42951268486E+02  0.91471843121E+02  0.14985865450E+03  0.79567389684E+02 0.  0.
          5    1    5    5  501    0 -0.44373890675E+01 -0.36695482073E+02  0.16191813811E+03  0.16614999932E+03  0.47000000000E+01 0. -1.
        -11    1    6    6    0    0  0.49889261062E+02  0.40294009812E+01  0.89370615866E+02  0.10243183793E+03  0.00000000000E+00 0.  1.
         12    1    6    6    0    0  0.27018068102E+02  0.38921867504E+02  0.21012272550E+01  0.47426816570E+02  0.00000000000E+00 0. -1.
         -5    1    3    3    0  503 -0.26558380891E+02 -0.58938043920E+02 -0.63732616142E+01  0.65128711643E+02  0.47000000000E+01 0.  1.
         13    1    4    4    0    0 -0.36300254311E+01  0.32481246783E+02 -0.11210253750E+03  0.11676980513E+03  0.00000000000E+00 0. -1.
        -14    1    4    4    0    0 -0.42281533774E+02  0.20201010725E+02 -0.21471127374E+02  0.51544332795E+02  0.00000000000E+00 0.  1.
</event>
<event>
12    1  0.1046899E+000  0.3136547E+03  0.7818608E-02  0.1078617E+00
         21   -1    0    0  503  502  0.00000000000E+00  0.00000000000E+00  0.84013546262E+02  0.84013546262E+02  0.00000000000E+00 0.  1.
         21   -1    0    0  501  503 -0.00000000000E+00 -0.00000000000E+00 -0.13909658832E+04  0.13909658832E+04  0.00000000000E+00 0.  1.
          6    2    1    2  501    0 -0.12827017875E+03 -0.22892299365E+03 -0.36006216121E+03  0.47751859930E+03  0.17181465876E+03 0.  0.
         24    2    3    3    0    0 -0.65084895607E+02 -0.20217502594E+03 -0.33355957794E+03  0.40381438841E+03  0.81812489917E+02 0.  0.
         -6    2    1    2    0  502  0.12827017875E+03  0.22892299365E+03 -0.94689017575E+03  0.99746083019E+03  0.17166282953E+03 0.  0.
        -24    2    5    5    0    0  0.16112777548E+03  0.18266992672E+03 -0.75601411254E+03  0.79827566666E+03  0.79726027491E+02 0.  0.
          5    1    3    3  501    0 -0.63185283143E+02 -0.26747967712E+02 -0.26502583276E+02  0.73704210890E+02  0.47000000000E+01 0. -1.
        -13    1    4    4    0    0 -0.22723048668E+01  0.79592350559E+00  0.41674304624E+01  0.48129346862E+01  0.00000000000E+00 0.  1.
         14    1    4    4    0    0 -0.62812590740E+02 -0.20297094944E+03 -0.33772700840E+03  0.39900145373E+03  0.00000000000E+00 0. -1.
         -5    1    5    5    0  502 -0.32857596727E+02  0.46253066931E+02 -0.19087606321E+03  0.19918516353E+03  0.47000000000E+01 0.  1.
         13    1    6    6    0    0  0.11573226366E+03  0.14376921394E+03 -0.65867244329E+03  0.68404161516E+03  0.00000000000E+00 0. -1.
        -14    1    6    6    0    0  0.45395511822E+02  0.38900712774E+02 -0.97341669256E+02  0.11423405150E+03  0.00000000000E+00 0.  1.
</event>
<event>
12    1  0.1046899E+000  0.2737890E+03  0.7818608E-02  0.1099487E+00
         21   -1    0    0  501  502  0.00000000000E+00  0.00000000000E+00  0.48424767838E+03  0.48424767838E+03  0.00000000000E+00 0.  1.
         21   -1    0    0  502  503 -0.00000000000E+00 -0.00000000000E+00 -0.15775137483E+03  0.15775137483E+03  0.00000000000E+00 0.  1.
         -6    2    1    2    0  503 -0.12043278888E+03  0.17455820219E+03  0.21745288474E+03  0.34963720275E+03  0.17316406636E+03 0.  0.
        -24    2    3    3    0    0 -0.71123107688E+02  0.27497622248E+02  0.64541012341E+02  0.13177855695E+03  0.85938525238E+02 0.  0.
          6    2    1    2  501    0  0.12043278888E+03 -0.17455820219E+03  0.10904341881E+03  0.29236185047E+03  0.16914597789E+03 0.  0.
         24    2    5    5    0    0  0.85438256730E+02 -0.16782716603E+03  0.13791042263E+03  0.24626067871E+03  0.78481742077E+02 0.  0.
          5    1    5    5  501    0  0.34994532148E+02 -0.67310361548E+01 -0.28867003817E+02  0.46101171757E+02  0.47000000000E+01 0. -1.
        -11    1    6    6    0    0 -0.13436983508E+02 -0.12636547075E+02  0.22319822404E+02  0.28955298650E+02  0.00000000000E+00 0.  1.
         12    1    6    6    0    0  0.98875240238E+02 -0.15519061896E+03  0.11559060023E+03  0.21730538006E+03  0.00000000000E+00 0. -1.
         -5    1    3    3    0  503 -0.49309681191E+02  0.14706057994E+03  0.15291187240E+03  0.21785864580E+03  0.47000000000E+01 0.  1.
         11    1    4    4    0    0 -0.41810057106E+01  0.44058070387E+02  0.14483928395E+02  0.46565851831E+02  0.00000000000E+00 0. -1.
        -12    1    4    4    0    0 -0.66942101977E+02 -0.16560448140E+02  0.50057083946E+02  0.85212705115E+02  0.00000000000E+00 0.  1.
</event>
<event>
12    1  0.1046899E+000  0.2056383E+03  0.7818608E-02  0.1146994E+00
         21   -1    0    0  503  502  0.00000000000E+00  0.00000000000E+00  0.10687877261E+04  0.10687877261E+04  0.00000000000E+00 0. -1.
         21   -1    0    0  501  503 -0.00000000000E+00 -0.00000000000E+00 -0.45476819958E+02  0.45476819958E+02  0.00000000000E+00 0. -1.
          6    2    1    2  501    0 -0.38914669037E+02  0.11006737444E+03  0.29268794277E+03  0.35770565334E+03  0.16928651513E+03 0.  0.
         24    2    3    3    0    0  0.17987456608E+02  0.12166740317E+03  0.19181954544E+03  0.24121987674E+03  0.79156713758E+02 0.  0.
         -6    2    1    2    0  502  0.38914669037E+02 -0.11006737444E+03  0.73062296339E+03  0.75655889274E+03  0.15793120390E+03 0.  0.
        -24    2    5    5    0    0  0.62447567938E+02 -0.12602200367E+03  0.53832906417E+03  0.56211769032E+03  0.79980449369E+02 0.  0.
          5    1    3    3  501    0 -0.56902125645E+02 -0.11600028727E+02  0.10086839732E+03  0.11648577659E+03  0.47000000000E+01 0. -1.
        -11    1    4    4    0    0 -0.14961011070E+02  0.73119253889E+02  0.15477752856E+03  0.17183230339E+03  0.00000000000E+00 0.  1.
         12    1    4    4    0    0  0.32948467678E+02  0.48548149280E+02  0.37042016881E+02  0.69387573351E+02  0.00000000000E+00 0. -1.
         -5    1    5    5    0  502 -0.23532898901E+02  0.15954629223E+02  0.19229389921E+03  0.19444120242E+03  0.47000000000E+01 0.  1.
         13    1    6    6    0    0 -0.72606937085E+01 -0.74817565979E+02  0.26174555551E+03  0.27232539669E+03  0.00000000000E+00 0. -1.
        -14    1    6    6    0    0  0.69708261647E+02 -0.51204437687E+02  0.27658350866E+03  0.28979229362E+03  0.00000000000E+00 0.  1.
</event>
<event>
12    1  0.1046899E+000  0.3401095E+03  0.7818608E-02  0.1066829E+00
         21   -1    0    0  503  502  0.00000000000E+00  0.00000000000E+00  0.87099401021E+03  0.87099401021E+03  0.00000000000E+00 0.  1.
         21   -1    0    0  501  503 -0.00000000000E+00 -0.00000000000E+00 -0.13311300571E+03  0.13311300571E+03  0.00000000000E+00 0.  1.
          6    2    1    2  501    0 -0.25356513924E+03  0.14708734084E+03  0.33493444182E+03  0.47681165363E+03  0.17099212570E+03 0.  0.
         24    2    3    3    0    0 -0.40963585757E+02  0.50144544248E+02  0.53089405170E+02  0.11067501105E+03  0.72373907278E+02 0.  0.
         -6    2    1    2    0  502  0.25356513924E+03 -0.14708734084E+03  0.40294656268E+03  0.52729536229E+03  0.17246594170E+03 0.  0.
        -24    2    5    5    0    0  0.12680238824E+03 -0.15030154482E+03  0.26819694871E+03  0.34220437220E+03  0.80652520217E+02 0.  0.
          5    1    3    3  501    0 -0.21260155348E+03  0.96942796591E+02  0.28184503665E+03  0.36613664258E+03  0.47000000000E+01 0. -1.
        -11    1    4    4    0    0 -0.57454268869E+02  0.16746723277E+02  0.33762456772E+02  0.68712074915E+02  0.00000000000E+00 0.  1.
         12    1    4    4    0    0  0.16490683112E+02  0.33397820971E+02  0.19326948398E+02  0.41962936140E+02  0.00000000000E+00 0. -1.
         -5    1    5    5    0  502  0.12676275100E+03  0.32142039806E+01  0.13474961396E+03  0.18509099009E+03  0.47000000000E+01 0.  1.
         13    1    6    6    0    0  0.93784602589E+02 -0.54495656361E+02  0.16590253687E+03  0.19821447976E+03  0.00000000000E+00 0. -1.
        -14    1    6    6    0    0  0.33017785652E+02 -0.95805888459E+02  0.10229441184E+03  0.14398989245E+03  0.00000000000E+00 0.  1.
</event>
<event>
12    1  0.1046899E+000  0.1877109E+03  0.7818608E-02  0.1161374E+00
         21   -1    0    0  503  502  0.00000000000E+00  0.00000000000E+00  0.36851276312E+03  0.36851276312E+03  0.00000000000E+00 0.  1.
         21   -1    0    0  501  503 -0.00000000000E+00 -0.00000000000E+00 -0.14197335593E+03  0.14197335593E+03  0.00000000000E+00 0.  1.
          6    2    1    2  501    0 -0.22667587997E+01  0.78759673232E+02  0.26123245827E+03  0.31959609136E+03  0.16640625000E+03 0.  0.
         24    2    3    3    0    0 -0.30178033938E+02  0.20978497314E+02  0.54689789732E+02  0.10326378333E+03  0.79508645856E+02 0.  0.
         -6    2    1    2    0  502  0.22667587997E+01 -0.78759673232E+02 -0.34693051087E+02  0.19089002769E+03  0.17037362048E+03 0.  0.
        -24    2    5    5    0    0 -0.44358157512E+02  0.35017540726E+01 -0.26706200394E+02  0.95881054284E+02  0.80622869037E+02 0.  0.
          5    1    3    3  501    0  0.27911275138E+02  0.57781175919E+02  0.20654266854E+03  0.21633230803E+03  0.47000000000E+01 0. -1.
        -11    1    4    4    0    0 -0.27631925106E+02  0.38354313902E+02  0.15492798606E+01  0.47296690667E+02  0.00000000000E+00 0.  1.
         12    1    4    4    0    0 -0.25461088315E+01 -0.17375816588E+02  0.53140509872E+02  0.55967092668E+02  0.00000000000E+00 0. -1.
         -5    1    5    5    0  502  0.46624916312E+02 -0.82261427305E+02 -0.79868506931E+01  0.95008973404E+02  0.47000000000E+01 0.  1.
         13    1    6    6    0    0 -0.42154413437E+02 -0.13306426702E+02 -0.50213563645E+02  0.66898860511E+02  0.00000000000E+00 0. -1.
        -14    1    6    6    0    0 -0.22037440751E+01  0.16808180775E+02  0.23507363251E+02  0.28982193773E+02  0.00000000000E+00 0.  1.
</event>
<event>
12    1  0.1046899E+000  0.1938539E+03  0.7818608E-02  0.1155345E+00
         21   -1    0    0  503  502  0.00000000000E+00  0.00000000000E+00  0.63181855278E+03  0.63181855278E+03  0.00000000000E+00 0.  1.
         21   -1    0    0  501  503 -0.00000000000E+00 -0.00000000000E+00 -0.64150684045E+02  0.64150684045E+02  0.00000000000E+00 0.  1.
          6    2    1    2  501    0  0.87497599425E+02 -0.15525121790E+02  0.38299705914E+03  0.42926227281E+03  0.17228607672E+03 0.  0.
         24    2    3    3    0    0 -0.18951850619E+02 -0.86465182431E+00  0.12311149797E+03  0.14799903365E+03  0.79920915689E+02 0.  0.
         -6    2    1    2    0  502 -0.87497599425E+02  0.15525121790E+02  0.18467080959E+03  0.26670696402E+03  0.17068227040E+03 0.  0.
        -24    2    5    5    0    0 -0.97066610093E+02 -0.20979653404E+02  0.68909787000E+02  0.14485923557E+03  0.79834621140E+02 0.  0.
          5    1    3    3  501    0  0.10644945004E+03 -0.14660469966E+02  0.25988556117E+03  0.28126323916E+03  0.47000000000E+01 0. -1.
        -11    1    4    4    0    0 -0.33087110541E+02 -0.28558223448E+02  0.39946616544E+02  0.59212002025E+02  0.00000000000E+00 0.  1.
         12    1    4    4    0    0  0.14135259922E+02  0.27693571624E+02  0.83164881425E+02  0.88787031625E+02  0.00000000000E+00 0. -1.
         -5    1    5    5    0  502  0.95690106681E+01  0.36504775194E+02  0.11576102259E+03  0.12184772845E+03  0.47000000000E+01 0.  1.
         13    1    6    6    0    0 -0.53292078820E+02 -0.26014624348E+02 -0.42500566308E+01  0.59454767061E+02  0.00000000000E+00 0. -1.
        -14    1    6    6    0    0 -0.43774531273E+02  0.50349709444E+01  0.73159843631E+02  0.85404468505E+02  0.00000000000E+00 0.  1.
</event>
<event>
12    1  0.1046899E+000  0.7462348E+03  0.7818608E-02  0.9641302E-01
         21   -1    0    0  501  502  0.00000000000E+00  0.00000000000E+00  0.75568641016E+03  0.75568641016E+03  0.00000000000E+00 0. -1.
         21   -1    0    0  502  503 -0.00000000000E+00 -0.00000000000E+00 -0.74121882826E+03  0.74121882826E+03  0.00000000000E+00 0. -1.
         -6    2    1    2    0  503 -0.32460216543E+03  0.64951706839E+03  0.64791178668E+02  0.74897552230E+03  0.17183552673E+03 0.  0.
        -24    2    3    3    0    0 -0.18293296948E+03  0.41246523176E+03 -0.23234201860E+02  0.45908883418E+03  0.81429053813E+02 0.  0.
          6    2    1    2  501    0  0.32460216543E+03 -0.64951706839E+03 -0.50323596765E+02  0.74792971611E+03  0.17212613959E+03 0.  0.
         24    2    5    5    0    0  0.16096125553E+03 -0.20419160236E+03 -0.20781871872E+02  0.27254784688E+03  0.79042434087E+02 0.  0.
          5    1    5    5  501    0  0.16364090990E+03 -0.44532546602E+03 -0.29541724893E+02  0.47538186923E+03  0.47000000000E+01 0. -1.
        -11    1    6    6    0    0  0.96307203064E+01 -0.61198410046E+02  0.76174192698E+01  0.62418116297E+02  0.00000000000E+00 0.  1.
         12    1    6    6    0    0  0.15133053522E+03 -0.14299319232E+03 -0.28399291141E+02  0.21012973059E+03  0.00000000000E+00 0. -1.
         -5    1    3    3    0  503 -0.14166919595E+03  0.23705183663E+03  0.88025380529E+02  0.28988668812E+03  0.47000000000E+01 0.  1.
         13    1    4    4    0    0 -0.12046463356E+03  0.19188880538E+03 -0.36336359783E+02  0.22946322715E+03  0.00000000000E+00 0. -1.
        -14    1    4    4    0    0 -0.62468335912E+02  0.22057642637E+03  0.13102157923E+02  0.22962560703E+03  0.00000000000E+00 0.  1.
</event>
<event>
12    1  0.1046899E+000  0.4044333E+03  0.7818608E-02  0.1042297E+00
         21   -1    0    0  501  502  0.00000000000E+00  0.00000000000E+00  0.11895478812E+04  0.11895478812E+04  0.00000000000E+00 0. -1.
         21   -1    0    0  502  503 -0.00000000000E+00 -0.00000000000E+00 -0.20883474947E+03  0.20883474947E+03  0.00000000000E+00 0.  1.
         -6    2    1    2    0  503 -0.30082669497E+03 -0.20877188549E+03  0.89927391022E+03  0.98583129966E+03  0.17055024252E+03 0.  0.
        -24    2    3    3    0    0 -0.12219676946E+03 -0.10920534332E+03  0.56902613516E+03  0.59736273010E+03  0.78699627328E+02 0.  0.
          6    2    1    2  501    0  0.30082669497E+03  0.20877188549E+03  0.81439221508E+02  0.41255133100E+03  0.17170862917E+03 0.  0.
         24    2    5    5    0    0  0.77059540498E+02  0.46731626469E+02 -0.12651286990E+02  0.12065426224E+03  0.79217284975E+02 0.  0.
          5    1    5    5  501    0  0.22376715447E+03  0.16204025902E+03  0.94090508498E+02  0.29189706877E+03  0.47000000000E+01 0. -1.
        -13    1    6    6    0    0 -0.78002338237E+01 -0.97805495366E+01 -0.13888188216E+02  0.18691831608E+02  0.00000000000E+00 0.  1.
         14    1    6    6    0    0  0.84859774321E+02  0.56512176006E+02  0.12369012258E+01  0.10196243063E+03  0.00000000000E+00 0. -1.
         -5    1    3    3    0  503 -0.17862992552E+03 -0.99566542178E+02  0.33024777505E+03  0.38846856956E+03  0.47000000000E+01 0.  1.
         13    1    4    4    0    0 -0.13049905729E+03 -0.10922138318E+03  0.50732579033E+03  0.53510631844E+03  0.00000000000E+00 0. -1.
        -14    1    4    4    0    0  0.83022878371E+01  0.16039869258E-01  0.61700344831E+02  0.62256411661E+02  0.00000000000E+00 0.  1.
</event>
<event>
12    1  0.1046899E+000  0.2511824E+03  0.7818608E-02  0.1113278E+00
         21   -1    0    0  503  502  0.00000000000E+00  0.00000000000E+00  0.39969272447E+03  0.39969272447E+03  0.00000000000E+00 0. -1.
         21   -1    0    0  501  503 -0.00000000000E+00 -0.00000000000E+00 -0.15560203131E+03  0.15560203131E+03  0.00000000000E+00 0. -1.
          6    2    1    2  501    0 -0.11050346587E+03  0.14361502855E+03  0.10617871722E+03  0.27270229050E+03  0.17394345881E+03 0.  0.
         24    2    3    3    0    0 -0.13926099967E+03  0.78206129991E+02  0.82472573839E+02  0.19727423873E+03  0.81274688762E+02 0.  0.
         -6    2    1    2    0  502  0.11050346587E+03 -0.14361502855E+03  0.13791197594E+03  0.28259246528E+03  0.16733946317E+03 0.  0.
        -24    2    5    5    0    0  0.48343723527E+02 -0.32425641526E+02  0.11532385206E+03  0.15313503330E+03  0.82232656157E+02 0.  0.
          5    1    3    3  501    0  0.28757533800E+02  0.65408898556E+02  0.23706143379E+02  0.75428051775E+02  0.47000000000E+01 0. -1.
        -11    1    4    4    0    0 -0.86116879753E+02  0.84817923471E+02  0.77288132734E+02  0.14347004071E+03  0.00000000000E+00 0.  1.
         12    1    4    4    0    0 -0.53144119914E+02 -0.66117934805E+01  0.51844411048E+01  0.53804198015E+02  0.00000000000E+00 0. -1.
         -5    1    5    5    0  502  0.62159742339E+02 -0.11118938702E+03  0.22588123878E+02  0.12945743198E+03  0.47000000000E+01 0.  1.
         13    1    6    6    0    0  0.40569287810E+02  0.17047961811E+02  0.81750392706E+02  0.92841945386E+02  0.00000000000E+00 0. -1.
        -14    1    6    6    0    0  0.77744357166E+01 -0.49473603337E+02  0.33573459352E+02  0.60293087918E+02  0.00000000000E+00 0.  1.
</event>
<event>
12    1  0.1046899E+000  0.2034824E+03  0.7818608E-02  0.1147050E+00
         21   -1    0    0  501  502  0.00000000000E+00  0.00000000000E+00  0.40232549874E+03  0.40232549874E+03  0.00000000000E+00 0. -1.
         21   -1    0    0  502  503 -0.00000000000E+00 -0.00000000000E+00 -0.42998246530E+03  0.42998246530E+03  0.00000000000E+00 0. -1.
         -6    2    1    2    0  503 -0.70375195399E+02  0.75437004373E+02 -0.37707981134E+03  0.42847904121E+03  0.17539012197E+03 0.  0.
        -24    2    3    3    0    0 -0.96406185521E+02  0.50981855532E+02 -0.36714638566E+03  0.39111020798E+03  0.79230196801E+02 0.  0.
          6    2    1    2  501    0  0.70375195399E+02 -0.75437004373E+02  0.34942284478E+03  0.40382892283E+03  0.17417825555E+03 0.  0.
         24    2    5    5    0    0  0.18687813549E+02  0.62855996815E+01  0.68661220284E+02  0.10684517034E+03  0.79453030874E+02 0.  0.
          5    1    5    5  501    0  0.51687381851E+02 -0.81722604055E+02  0.28076162450E+03  0.29698375249E+03  0.47000000000E+01 0. -1.
        -11    1    6    6    0    0  0.11514383253E+02 -0.26991691803E+02  0.66556394151E+02  0.72738477098E+02  0.00000000000E+00 0.  1.
         12    1    6    6    0    0  0.71734302955E+01  0.33277291484E+02  0.21048261326E+01  0.34106693240E+02  0.00000000000E+00 0. -1.
         -5    1    3    3    0  503  0.26030990122E+02  0.24455148841E+02 -0.99334256845E+01  0.37368833236E+02  0.47000000000E+01 0.  1.
         11    1    4    4    0    0 -0.13556467702E+02 -0.17240697998E+02 -0.29121596044E+02  0.36456643293E+02  0.00000000000E+00 0. -1.
        -12    1    4    4    0    0 -0.82849717819E+02  0.68222553530E+02 -0.33802478961E+03  0.35465356469E+03  0.00000000000E+00 0.  1.
</event>
<event>
12    1  0.1046899E+000  0.2038209E+03  0.7818608E-02  0.1150996E+00
         21   -1    0    0  501  502  0.00000000000E+00  0.00000000000E+00  0.23023363218E+03  0.23023363218E+03  0.00000000000E+00 0. -1.
         21   -1    0    0  502  503 -0.00000000000E+00 -0.00000000000E+00 -0.22699631199E+03  0.22699631199E+03  0.00000000000E+00 0. -1.
         -6    2    1    2    0  503 -0.32251430510E+02  0.56639225917E+02  0.12298440390E+03  0.22083555934E+03  0.17144977102E+03 0.  0.
        -24    2    3    3    0    0  0.90776388869E+01  0.96270216554E+02  0.90061167494E+02  0.15461821349E+03  0.80283372680E+02 0.  0.
          6    2    1    2  501    0  0.32251430510E+02 -0.56639225917E+02 -0.11974708371E+03  0.23639438483E+03  0.19311857612E+03 0.  0.
         24    2    5    5    0    0  0.44948602972E+02 -0.19944891660E+02  0.14097501986E+02  0.96952083235E+02  0.82357703155E+02 0.  0.
          5    1    5    5  501    0 -0.12697172462E+02 -0.36694334257E+02 -0.13384458569E+03  0.13944230160E+03  0.47000000000E+01 0. -1.
        -11    1    6    6    0    0 -0.16973950400E+02 -0.94533266369E+01  0.26574798383E+02  0.32919603366E+02  0.00000000000E+00 0.  1.
         12    1    6    6    0    0  0.61922553372E+02 -0.10491565023E+02 -0.12477296398E+02  0.64032479869E+02  0.00000000000E+00 0. -1.
         -5    1    3    3    0  503 -0.41329069396E+02 -0.39630990637E+02  0.32923236408E+02  0.66217345851E+02  0.47000000000E+01 0.  1.
         11    1    4    4    0    0 -0.13351643466E+02  0.88622582216E+02  0.37862548916E+02  0.97292348477E+02  0.00000000000E+00 0. -1.
        -12    1    4    4    0    0  0.22429282353E+02  0.76476343382E+01  0.52198618578E+02  0.57325865011E+02  0.00000000000E+00 0.  1.
</event>
<event>
12    1  0.1046899E+000  0.1776013E+03  0.7818608E-02  0.1170322E+00
         21   -1    0    0  501  502  0.00000000000E+00  0.00000000000E+00  0.61127083961E+03  0.61127083961E+03  0.00000000000E+00 0.  1.
         21   -1    0    0  502  503 -0.00000000000E+00 -0.00000000000E+00 -0.55918422798E+02  0.55918422798E+02  0.00000000000E+00 0.  1.
         -6    2    1    2    0  503 -0.33278420554E+02  0.24786240144E+02  0.37205939877E+03  0.41196672706E+03  0.17194934433E+03 0.  0.
        -24    2    3    3    0    0 -0.48937477318E+02  0.77136663379E+02  0.27123074426E+03  0.29718745871E+03  0.80058275404E+02 0.  0.
          6    2    1    2  501    0  0.33278420554E+02 -0.24786240144E+02  0.18329301805E+03  0.25522253535E+03  0.17268584514E+03 0.  0.
         24    2    5    5    0    0 -0.30486893467E+02  0.16705531366E+01  0.15891843893E+03  0.18185914332E+03  0.82978529500E+02 0.  0.
          5    1    5    5  501    0  0.63765314021E+02 -0.26456793281E+02  0.24374579118E+02  0.73363392030E+02  0.47000000000E+01 0. -1.
        -11    1    6    6    0    0  0.47226611548E+00  0.33164266724E+02  0.11456193393E+03  0.11926662705E+03  0.00000000000E+00 0.  1.
         12    1    6    6    0    0 -0.30959159583E+02 -0.31493713587E+02  0.44356504999E+02  0.62592516273E+02  0.00000000000E+00 0. -1.
         -5    1    3    3    0  503  0.15659056764E+02 -0.52350423234E+02  0.10082865451E+03  0.11477926835E+03  0.47000000000E+01 0.  1.
         11    1    4    4    0    0 -0.27400981181E+02  0.59515383740E+01  0.16586346965E+03  0.16821689910E+03  0.00000000000E+00 0. -1.
        -12    1    4    4    0    0 -0.21536496137E+02  0.71185125005E+02  0.10536727461E+03  0.12897055961E+03  0.00000000000E+00 0.  1.
</event>
<event>
12    1  0.1046899E+000  0.2264503E+03  0.7818608E-02  0.1129355E+00
         21   -1    0    0  501  502  0.00000000000E+00  0.00000000000E+00  0.65987758592E+03  0.65987758592E+03  0.00000000000E+00 0.  1.
         21   -1    0    0  502  503 -0.00000000000E+00 -0.00000000000E+00 -0.77488640437E+02  0.77488640437E+02  0.00000000000E+00 0. -1.
         -6    2    1    2    0  503  0.13037873440E+03 -0.66255734603E+02  0.30632612613E+03  0.38030823515E+03  0.17149408567E+03 0.  0.
        -24    2    3    3    0    0  0.14090250486E+03 -0.92517792701E+02  0.23218054553E+03  0.30080916243E+03  0.90361986691E+02 0.  0.
          6    2    1    2  501    0 -0.13037873440E+03  0.66255734603E+02  0.27606281936E+03  0.35705799121E+03  0.17289098330E+03 0.  0.
         24    2    5    5    0    0 -0.21295162952E+02  0.81076737316E+02  0.12770997736E+03  0.17226204047E+03  0.79608108700E+02 0.  0.
          5    1    5    5  501    0 -0.10908357145E+03 -0.14821002713E+02  0.14835284200E+03  0.18479595074E+03  0.47000000000E+01 0. -1.
        -13    1    6    6    0    0 -0.43352623950E+02  0.54644546540E+02  0.11698781213E+03  0.13620434889E+03  0.00000000000E+00 0.  1.
         14    1    6    6    0    0  0.22057460998E+02  0.26432190776E+02  0.10722165232E+02  0.36057691581E+02  0.00000000000E+00 0. -1.
         -5    1    3    3    0  503 -0.10523770459E+02  0.26262058098E+02  0.74145580597E+02  0.79499072713E+02  0.47000000000E+01 0.  1.
         13    1    4    4    0    0  0.26152874902E+02  0.18091679934E+02  0.41800900953E+02  0.52522348281E+02  0.00000000000E+00 0. -1.
        -14    1    4    4    0    0  0.11474962996E+03 -0.11060947264E+03  0.19037964458E+03  0.24828681415E+03  0.00000000000E+00 0.  1.
</event>
<event>
12    1  0.1046899E+000  0.5548993E+03  0.7818608E-02  0.1000368E+00
         21   -1    0    0  503  502  0.00000000000E+00  0.00000000000E+00  0.77273057898E+03  0.77273057898E+03  0.00000000000E+00 0.  1.
         21   -1    0    0  501  503 -0.00000000000E+00 -0.00000000000E+00 -0.43050850498E+03  0.43050850498E+03  0.00000000000E+00 0. -1.
          6    2    1    2  501    0  0.33360703922E+03  0.40860904717E+03  0.33527352565E+03  0.64832213609E+03  0.17221569354E+03 0.  0.
         24    2    3    3    0    0  0.22096717419E+03  0.35629383021E+03  0.22796530098E+03  0.48412175180E+03  0.81448797416E+02 0.  0.
         -6    2    1    2    0  502 -0.33360703922E+03 -0.40860904717E+03  0.69485483502E+01  0.55491694787E+03  0.17213229408E+03 0.  0.
        -24    2    5    5    0    0 -0.22377208792E+03 -0.19964200148E+03 -0.43645718674E+02  0.31343648786E+03  0.80041283578E+02 0.  0.
          5    1    3    3  501    0  0.11263986503E+03  0.52315216958E+02  0.10730822467E+03  0.16420038429E+03  0.47000000000E+01 0. -1.
        -13    1    4    4    0    0  0.61556061177E+02  0.15099455953E+03  0.12099817691E+03  0.20304941391E+03  0.00000000000E+00 0.  1.
         14    1    4    4    0    0  0.15941111301E+03  0.20529927068E+03  0.10696712407E+03  0.28107233788E+03  0.00000000000E+00 0. -1.
         -5    1    5    5    0  502 -0.10983495130E+03 -0.20896704569E+03  0.50594267024E+02  0.24148046001E+03  0.47000000000E+01 0.  1.
         13    1    6    6    0    0 -0.18541913877E+02  0.39579376787E+01 -0.12421446520E+02  0.22666278357E+02  0.00000000000E+00 0. -1.
        -14    1    6    6    0    0 -0.20523017404E+03 -0.20359993916E+03 -0.31224272154E+02  0.29077020951E+03  0.00000000000E+00 0.  1.
</event>
<event>
12    1  0.1046899E+000  0.1943460E+03  0.7818608E-02  0.1154729E+00
         21   -1    0    0  503  502  0.00000000000E+00  0.00000000000E+00  0.58016041618E+02  0.58016041618E+02  0.00000000000E+00 0. -1.
         21   -1    0    0  501  503 -0.00000000000E+00 -0.00000000000E+00 -0.73686823822E+03  0.73686823822E+03  0.00000000000E+00 0. -1.
          6    2    1    2  501    0 -0.86694965955E+02  0.24039275587E+02 -0.20176309763E+03  0.27972957727E+03  0.17159948993E+03 0.  0.
         24    2    3    3    0    0 -0.10882205085E+03  0.59918097772E+02 -0.17467569809E+03  0.22940349078E+03  0.81743164162E+02 0.  0.
         -6    2    1    2    0  502  0.86694965955E+02 -0.24039275587E+02 -0.47708909898E+03  0.51515470257E+03  0.17226855582E+03 0.  0.
        -24    2    5    5    0    0  0.23447257427E+02  0.28877981625E+02 -0.12341610900E+03  0.15196441831E+03  0.80485630808E+02 0.  0.
          5    1    3    3  501    0  0.22127084900E+02 -0.35878822186E+02 -0.27087399543E+02  0.50326086492E+02  0.47000000000E+01 0. -1.
        -11    1    4    4    0    0  0.26877120398E+01 -0.18988894350E+01  0.68364630445E+01  0.75872790942E+01  0.00000000000E+00 0.  1.
         12    1    4    4    0    0 -0.11150976289E+03  0.61816987207E+02 -0.18151216113E+03  0.22181621169E+03  0.00000000000E+00 0. -1.
         -5    1    5    5    0  502  0.63247708528E+02 -0.52917257212E+02 -0.35367298997E+03  0.36319028426E+03  0.47000000000E+01 0.  1.
         13    1    6    6    0    0  0.15367690685E+02 -0.27547203589E+02 -0.47822398945E+02  0.57288709039E+02  0.00000000000E+00 0. -1.
        -14    1    6    6    0    0  0.80795667426E+01  0.56425185214E+02 -0.75593710056E+02  0.94675709267E+02  0.00000000000E+00 0.  1.
</event>
<event>
12    1  0.1046899E+000  0.1737072E+03  0.7818608E-02  0.1174061E+00
         21   -1    0    0  501  502  0.00000000000E+00  0.00000000000E+00  0.11884059326E+04  0.11884059326E+04  0.00000000000E+00 0.  1.
         21   -1    0    0  502  503 -0.00000000000E+00 -0.00000000000E+00 -0.28641502894E+02  0.28641502894E+02  0.00000000000E+00 0.  1.
         -6    2    1    2    0  503 -0.53517591799E+01 -0.19691359957E+02  0.37427549303E+03  0.41258050303E+03  0.17240689029E+03 0.  0.
        -24    2    3    3    0    0 -0.47006866955E+02  0.35686730060E+02  0.26985866274E+03  0.28717378349E+03  0.78497744103E+02 0.  0.
          6    2    1    2  501    0  0.53517591799E+01  0.19691359957E+02  0.78548893668E+03  0.80446693246E+03  0.17250444862E+03 0.  0.
         24    2    5    5    0    0  0.12511340772E+02 -0.51479257755E+02  0.54457949064E+03  0.55311863304E+03  0.81035504284E+02 0.  0.
          5    1    5    5  501    0 -0.71595815921E+01  0.71170617712E+02  0.24090944603E+03  0.25134829942E+03  0.47000000000E+01 0. -1.
        -13    1    6    6    0    0  0.16194233034E+02  0.57352072554E+00  0.19071294545E+02  0.25025914273E+02  0.00000000000E+00 0.  1.
         14    1    6    6    0    0 -0.36828922622E+01 -0.52052778481E+02  0.52550819610E+03  0.52809271876E+03  0.00000000000E+00 0. -1.
         -5    1    3    3    0  503  0.41655107776E+02 -0.55378090017E+02  0.10441683029E+03  0.12540671954E+03  0.47000000000E+01 0.  1.
         11    1    4    4    0    0 -0.29499115653E+02 -0.21162956570E+02  0.73086353862E+02  0.81606884978E+02  0.00000000000E+00 0. -1.
        -12    1    4    4    0    0 -0.17507751303E+02  0.56849686630E+02  0.19677230887E+03  0.20556689852E+03  0.00000000000E+00 0.  1.
</event>
<event>
12    1  0.1046899E+000  0.3040902E+03  0.7818608E-02  0.1083264E+00
         21   -1    0    0  501  502  0.00000000000E+00  0.00000000000E+00  0.10899187960E+03  0.10899187960E+03  0.00000000000E+00 0. -1.
         21   -1    0    0  502  503 -0.00000000000E+00 -0.00000000000E+00 -0.97654894045E+03  0.97654894045E+03  0.00000000000E+00 0. -1.
         -6    2    1    2    0  503 -0.61182622031E+02  0.24249883015E+03 -0.63151141628E+03  0.70091193947E+03  0.17297942695E+03 0.  0.
        -24    2    3    3    0    0 -0.16835972271E+02  0.60484509404E+02 -0.33478123424E+03  0.34996076162E+03  0.80325799336E+02 0.  0.
          6    2    1    2  501    0  0.61182622031E+02 -0.24249883015E+03 -0.23604564458E+03  0.38462888058E+03  0.17225804362E+03 0.  0.
         24    2    5    5    0    0 -0.23143644789E+02 -0.71471711309E+02 -0.11129879877E+03  0.15671429089E+03  0.80796736015E+02 0.  0.
          5    1    5    5  501    0  0.84326266819E+02 -0.17102711884E+03 -0.12474684580E+03  0.22791458969E+03  0.47000000000E+01 0. -1.
        -13    1    6    6    0    0 -0.22315553288E+02 -0.39452919286E+02 -0.48903508744E+01  0.45589826610E+02  0.00000000000E+00 0.  1.
         14    1    6    6    0    0 -0.82809150097E+00 -0.32018792023E+02 -0.10640844790E+03  0.11112446428E+03  0.00000000000E+00 0. -1.
         -5    1    3    3    0  503 -0.44346649760E+02  0.18201432075E+03 -0.29673018204E+03  0.35095117785E+03  0.47000000000E+01 0.  1.
         11    1    4    4    0    0  0.24123219581E+02 -0.33035364770E+01 -0.56158090837E+02  0.61209265987E+02  0.00000000000E+00 0. -1.
        -12    1    4    4    0    0 -0.40959191852E+02  0.63788045881E+02 -0.27862314340E+03  0.28875149564E+03  0.00000000000E+00 0.  1.
</event>
<event>
12    1  0.1046899E+000  0.2071562E+03  0.7818608E-02  0.1144198E+00
         21   -1    0    0  503  502  0.00000000000E+00  0.00000000000E+00  0.92171636159E+02  0.92171636159E+02  0.00000000000E+00 0. -1.
         21   -1    0    0  501  503 -0.00000000000E+00 -0.00000000000E+00 -0.83330112014E+03  0.83330112014E+03  0.00000000000E+00 0. -1.
          6    2    1    2  501    0 -0.11296341145E+03  0.24635367526E+02 -0.60629835890E+02  0.21414058912E+03  0.16974269130E+03 0.  0.
         24    2    3    3    0    0 -0.84133579250E+02 -0.44324850438E+02 -0.10250314493E+02  0.12388064750E+03  0.78728612037E+02 0.  0.
         -6    2    1    2    0  502  0.11296341145E+03 -0.24635367526E+02 -0.68049964809E+03  0.71133216718E+03  0.17188963712E+03 0.  0.
        -24    2    5    5    0    0  0.77534002794E+02  0.48200930233E+02 -0.47666492983E+03  0.49194426496E+03  0.80404311054E+02 0.  0.
          5    1    3    3  501    0 -0.28829832195E+02  0.68960217964E+02 -0.50379521397E+02  0.90259941626E+02  0.47000000000E+01 0. -1.
        -13    1    4    4    0    0 -0.15100849338E+02  0.22651875811E+02 -0.36915584255E+01  0.27473091054E+02  0.00000000000E+00 0.  1.
         14    1    4    4    0    0 -0.69032729912E+02 -0.66976726249E+02 -0.65587560674E+01  0.96407556442E+02  0.00000000000E+00 0. -1.
         -5    1    5    5    0  502  0.35429408651E+02 -0.72836297759E+02 -0.20383471826E+03  0.21938790221E+03  0.47000000000E+01 0.  1.
         11    1    6    6    0    0  0.67299248778E+02  0.41154166906E+02 -0.19992125170E+03  0.21492175605E+03  0.00000000000E+00 0. -1.
        -12    1    6    6    0    0  0.10234754016E+02  0.70467633269E+01 -0.27674367813E+03  0.27702250892E+03  0.00000000000E+00 0.  1.
</event>
<event>
12    1  0.1046899E+000  0.2936271E+03  0.7818608E-02  0.1088816E+00
         21   -1    0    0  501  502  0.00000000000E+00  0.00000000000E+00  0.28993265237E+03  0.28993265237E+03  0.00000000000E+00 0. -1.
         21   -1    0    0  502  503 -0.00000000000E+00 -0.00000000000E+00 -0.36401236696E+03  0.36401236696E+03  0.00000000000E+00 0.  1.
         -6    2    1    2    0  503 -0.23417753359E+03  0.14395107393E+02 -0.17989348855E+03  0.34435231906E+03  0.17655173763E+03 0.  0.
        -24    2    3    3    0    0 -0.20943690559E+03  0.44298475651E+02 -0.88921794864E+02  0.24533591052E+03  0.80352044296E+02 0.  0.
          6    2    1    2  501    0  0.23417753359E+03 -0.14395107393E+02  0.10581377396E+03  0.30959270027E+03  0.17206030613E+03 0.  0.
         24    2    5    5    0    0  0.17599401783E+03  0.20395500405E+02  0.13815467855E+02  0.19521837526E+03  0.80805173939E+02 0.  0.
          5    1    5    5  501    0  0.58183515757E+02 -0.34790607798E+02  0.91998306100E+02  0.11437432501E+03  0.47000000000E+01 0. -1.
        -13    1    6    6    0    0  0.34451450973E+02 -0.79257686248E+01  0.34499618893E+02  0.49395789154E+02  0.00000000000E+00 0.  1.
         14    1    6    6    0    0  0.14154256686E+03  0.28321269029E+02 -0.20684151038E+02  0.14582258610E+03  0.00000000000E+00 0. -1.
         -5    1    3    3    0  503 -0.24740628003E+02 -0.29903368258E+02 -0.90971693684E+02  0.99016408534E+02  0.47000000000E+01 0.  1.
         11    1    4    4    0    0 -0.38669513007E+02  0.29927297198E+02 -0.49315182857E+02  0.69447545774E+02  0.00000000000E+00 0. -1.
        -12    1    4    4    0    0 -0.17076739258E+03  0.14371178453E+02 -0.39606612007E+02  0.17588836475E+03  0.00000000000E+00 0.  1.
</event>
<event>
12    1  0.1046899E+000  0.2116653E+03  0.7818608E-02  0.1140257E+00
         21   -1    0    0  503  502  0.00000000000E+00  0.00000000000E+00  0.19116819306E+03  0.19116819306E+03  0.00000000000E+00 0. -1.
         21   -1    0    0  501  503 -0.00000000000E+00 -0.00000000000E+00 -0.24298027062E+03  0.24298027062E+03  0.00000000000E+00 0. -1.
          6    2    1    2  501    0 -0.12303825380E+03 -0.97376034227E+01  0.15013648714E+02  0.21219713549E+03  0.17195633703E+03 0.  0.
         24    2    3    3    0    0 -0.13932756124E+03  0.12287710305E+02  0.49023095454E+02  0.16827460768E+03  0.79686401327E+02 0.  0.
         -6    2    1    2    0  502  0.12303825380E+03  0.97376034227E+01 -0.66825726280E+02  0.22195132819E+03  0.17194034306E+03 0.  0.
        -24    2    5    5    0    0  0.88149186301E+02 -0.34581504122E+01 -0.11070707848E+03  0.16416691834E+03  0.83141337517E+02 0.  0.
          5    1    3    3  501    0  0.16289307444E+02 -0.22025313728E+02 -0.34009446740E+02  0.43922527811E+02  0.47000000000E+01 0. -1.
        -11    1    4    4    0    0 -0.55705398100E+02 -0.22832788461E+02 -0.86080044740E+01  0.60815502525E+02  0.00000000000E+00 0.  1.
         12    1    4    4    0    0 -0.83622163141E+02  0.35120498766E+02  0.57631099928E+02  0.10745910516E+03  0.00000000000E+00 0. -1.
         -5    1    5    5    0  502  0.34889067497E+02  0.13195753835E+02  0.43881352197E+02  0.57784409841E+02  0.47000000000E+01 0.  1.
         11    1    6    6    0    0 -0.11980378245E-01 -0.24472631066E+02 -0.50933786362E+01  0.24997046241E+02  0.00000000000E+00 0. -1.
        -12    1    6    6    0    0  0.88161166679E+02  0.21014480654E+02 -0.10561369984E+03  0.13916987210E+03  0.00000000000E+00 0.  1.
</event>
<event>
12    1  0.1046899E+000  0.2253170E+03  0.7818608E-02  0.1130168E+00
         21   -1    0    0  503  502  0.00000000000E+00  0.00000000000E+00  0.13389676559E+03  0.13389676559E+03  0.00000000000E+00 0. -1.
         21   -1    0    0  501  503 -0.00000000000E+00 -0.00000000000E+00 -0.37866472019E+03  0.37866472019E+03  0.00000000000E+00 0. -1.
          6    2    1    2  501    0 -0.14295617747E+03 -0.24081551444E+02 -0.13685629354E+03  0.26273621495E+03  0.17112651391E+03 0.  0.
         24    2    3    3    0    0 -0.16534267843E+03 -0.16481689085E+02 -0.72523100248E+02  0.19403568298E+03  0.69140428215E+02 0.  0.
         -6    2    1    2    0  502  0.14295617747E+03  0.24081551444E+02 -0.10791166106E+03  0.24982527084E+03  0.17248579523E+03 0.  0.
        -24    2    5    5    0    0  0.62026689349E+00  0.17251320414E+02 -0.25155195426E+02  0.84971135004E+02  0.79305215086E+02 0.  0.
          5    1    3    3  501    0  0.22386500958E+02 -0.75998623591E+01 -0.64333193294E+02  0.68700531966E+02  0.47000000000E+01 0. -1.
        -11    1    4    4    0    0 -0.10707594576E+03 -0.41174561541E+02 -0.32792917136E+02  0.11931461810E+03  0.00000000000E+00 0.  1.
         12    1    4    4    0    0 -0.58266732671E+02  0.24692872456E+02 -0.39730183112E+02  0.74721064877E+02  0.00000000000E+00 0. -1.
         -5    1    5    5    0  502  0.14233591058E+03  0.68302310306E+01 -0.82756465632E+02  0.16485413583E+03  0.47000000000E+01 0.  1.
         11    1    6    6    0    0 -0.13953799802E+02 -0.11076070985E+02 -0.44339012480E+02  0.47784264199E+02  0.00000000000E+00 0. -1.
        -12    1    6    6    0    0  0.14574066696E+02  0.28327391399E+02  0.19183817053E+02  0.37186870805E+02  0.00000000000E+00 0.  1.
</event>
<event>
12    1  0.1046899E+000  0.2425757E+03  0.7818608E-02  0.1118553E+00
         21   -1    0    0  503  502  0.00000000000E+00  0.00000000000E+00  0.84151926288E+03  0.84151926288E+03  0.00000000000E+00 0. -1.
         21   -1    0    0  501  503 -0.00000000000E+00 -0.00000000000E+00 -0.91510573202E+02  0.91510573202E+02  0.00000000000E+00 0. -1.
          6    2    1    2  501    0 -0.81637837243E+02 -0.14852107732E+03  0.14588222097E+03  0.28306284383E+03  0.17355029323E+03 0.  0.
         24    2    3    3    0    0 -0.43476705162E+01 -0.14652329053E+03  0.10660192244E+03  0.19621359007E+03  0.75152020305E+02 0.  0.
         -6    2    1    2    0  502  0.81637837243E+02  0.14852107732E+03  0.60412646871E+03  0.64996699226E+03  0.16960263544E+03 0.  0.
        -24    2    5    5    0    0 -0.56481748278E+01  0.25487793984E+02  0.15696200920E+03  0.17801977004E+03  0.79827543311E+02 0.  0.
          5    1    3    3  501    0 -0.77290166727E+02 -0.19977867939E+01  0.39280298536E+02  0.86849253755E+02  0.47000000000E+01 0. -1.
        -11    1    4    4    0    0  0.22185108274E+02 -0.76878693244E+02  0.21022076718E+02  0.82731132070E+02  0.00000000000E+00 0.  1.
         12    1    4    4    0    0 -0.26532778791E+02 -0.69644597285E+02  0.85579845718E+02  0.11348245800E+03  0.00000000000E+00 0. -1.
         -5    1    5    5    0  502  0.87286012071E+02  0.12303328334E+03  0.44716445951E+03  0.47194722222E+03  0.47000000000E+01 0.  1.
         13    1    6    6    0    0  0.29259254063E+02  0.10812655144E+02  0.12384978799E+03  0.12771760821E+03  0.00000000000E+00 0. -1.
        -14    1    6    6    0    0 -0.34907428891E+02  0.14675138840E+02  0.33112221207E+02  0.50302161832E+02  0.00000000000E+00 0.  1.
</event>
<event>
12    1  0.1046899E+000  0.1989385E+03  0.7818608E-02  0.1152034E+00
         21   -1    0    0  503  502  0.00000000000E+00  0.00000000000E+00  0.58215177196E+03  0.58215177196E+03  0.00000000000E+00 0.  1.
         21   -1    0    0  501  503 -0.00000000000E+00 -0.00000000000E+00 -0.11228057080E+03  0.11228057080E+03  0.00000000000E+00 0.  1.
          6    2    1    2  501    0 -0.82202684933E+02  0.42337590789E+02  0.46060404530E+03  0.50172962508E+03  0.17614419417E+03 0.  0.
         24    2    3    3    0    0 -0.78487625918E+02 -0.20895941480E+02  0.39225521914E+03  0.40842403413E+03  0.79681157852E+02 0.  0.
         -6    2    1    2    0  502  0.82202684933E+02 -0.42337590789E+02  0.92671558617E+01  0.19270271767E+03  0.16881559233E+03 0.  0.
        -24    2    5    5    0    0  0.11625825706E+03 -0.14746747910E+02 -0.73837785527E+01  0.14558180701E+03  0.86058662772E+02 0.  0.
          5    1    3    3  501    0 -0.37150590153E+01  0.63233532270E+02  0.68348826156E+02  0.93305590956E+02  0.47000000000E+01 0. -1.
        -11    1    4    4    0    0 -0.93723506950E+01 -0.29171739299E+02  0.46198501628E+02  0.55435844757E+02  0.00000000000E+00 0.  1.
         12    1    4    4    0    0 -0.69115275223E+02  0.82757978186E+01  0.34605671751E+03  0.35298818937E+03  0.00000000000E+00 0. -1.
         -5    1    5    5    0  502 -0.34055572132E+02 -0.27590842879E+02  0.16650934414E+02  0.47120910654E+02  0.47000000000E+01 0.  1.
         13    1    6    6    0    0  0.84855876587E+02 -0.34318532442E+02  0.26623111565E+02  0.95326132459E+02  0.00000000000E+00 0. -1.
        -14    1    6    6    0    0  0.31402380478E+02  0.19571784532E+02 -0.34006890117E+02  0.50255674555E+02  0.00000000000E+00 0.  1.
</event>
<event>
12    1  0.1046899E+000  0.2759406E+03  0.7818608E-02  0.1097980E+00
         21   -1    0    0  503  502  0.00000000000E+00  0.00000000000E+00  0.17650742014E+03  0.17650742014E+03  0.00000000000E+00 0.  1.
         21   -1    0    0  501  503 -0.00000000000E+00 -0.00000000000E+00 -0.47002744131E+03  0.47002744131E+03  0.00000000000E+00 0.  1.
          6    2    1    2  501    0 -0.14648611978E+03 -0.15818709130E+03 -0.53262742030E+02  0.28065675301E+03  0.17160988951E+03 0.  0.
         24    2    3    3    0    0 -0.25058715389E+02 -0.17113190863E+02 -0.42165856534E+02  0.94131444299E+02  0.78498209089E+02 0.  0.
         -6    2    1    2    0  502  0.14648611978E+03  0.15818709130E+03 -0.24025727913E+03  0.36587810844E+03  0.17222627825E+03 0.  0.
        -24    2    5    5    0    0  0.13184283110E+03  0.14936390513E+03 -0.26144602700E+03  0.33824972533E+03  0.79791875393E+02 0.  0.
          5    1    3    3  501    0 -0.12142740439E+03 -0.14107390043E+03 -0.11096885496E+02  0.18652530871E+03  0.47000000000E+01 0. -1.
        -13    1    4    4    0    0 -0.25089802203E+02  0.16812158722E+01  0.18113098487E+02  0.30990466247E+02  0.00000000000E+00 0.  1.
         14    1    4    4    0    0  0.31086813803E-01 -0.18794406735E+02 -0.60278955021E+02  0.63140978052E+02  0.00000000000E+00 0. -1.
         -5    1    5    5    0  502  0.14643288678E+02  0.88231861654E+01  0.21188747868E+02  0.27628383117E+02  0.47000000000E+01 0.  1.
         11    1    6    6    0    0  0.66110607461E+02  0.10178676814E+03 -0.20883311795E+03  0.24154177639E+03  0.00000000000E+00 0. -1.
        -12    1    6    6    0    0  0.65732223643E+02  0.47577136986E+02 -0.52612909052E+02  0.96707948938E+02  0.00000000000E+00 0.  1.
</event>
<event>
12    1  0.1046899E+000  0.2110316E+03  0.7818608E-02  0.1140911E+00
         21   -1    0    0  501  502  0.00000000000E+00  0.00000000000E+00  0.98696504572E+02  0.98696504572E+02  0.00000000000E+00 0. -1.
         21   -1    0    0  502  503 -0.00000000000E+00 -0.00000000000E+00 -0.49963541728E+03  0.49963541728E+03  0.00000000000E+00 0. -1.
         -6    2    1    2    0  503  0.10069137071E+03 -0.67914188280E+02 -0.10605021392E+03  0.23617999063E+03  0.17257824601E+03 0.  0.
        -24    2    3    3    0    0 -0.18221165345E+01 -0.12624718652E+02 -0.37087940928E+01  0.81061336908E+02  0.79965502300E+02 0.  0.
          6    2    1    2  501    0 -0.10069137071E+03  0.67914188280E+02 -0.29488869878E+03  0.36215193122E+03  0.17159133869E+03 0.  0.
         24    2    5    5    0    0  0.49011551738E+01 -0.59592309392E+01 -0.97910559418E+02  0.12671713987E+03  0.80070107635E+02 0.  0.
          5    1    5    5  501    0 -0.10559252588E+03  0.73873419219E+02 -0.19697813936E+03  0.23543479135E+03  0.47000000000E+01 0. -1.
        -13    1    6    6    0    0  0.27482651143E+02  0.12830586749E+02 -0.91841648126E+02  0.96720258482E+02  0.00000000000E+00 0.  1.
         14    1    6    6    0    0 -0.22581495970E+02 -0.18789817688E+02 -0.60689112917E+01  0.29996881392E+02  0.00000000000E+00 0. -1.
         -5    1    3    3    0  503  0.10251348725E+03 -0.55289469628E+02 -0.10234141983E+03  0.15511865372E+03  0.47000000000E+01 0.  1.
         11    1    4    4    0    0 -0.13268262483E+02 -0.18957945791E+02 -0.37926555137E+02  0.44428302719E+02  0.00000000000E+00 0. -1.
        -12    1    4    4    0    0  0.11446145948E+02  0.63332271394E+01  0.34217761044E+02  0.36633034190E+02  0.00000000000E+00 0.  1.
</event>
<event>
12    1  0.1046899E+000  0.2628643E+03  0.7818608E-02  0.1105523E+00
         21   -1    0    0  501  502  0.00000000000E+00  0.00000000000E+00  0.15176870532E+04  0.15176870532E+04  0.00000000000E+00 0.  1.
         21   -1    0    0  502  503 -0.00000000000E+00 -0.00000000000E+00 -0.56001401461E+02  0.56001401461E+02  0.00000000000E+00 0.  1.
         -6    2    1    2    0  503 -0.18484177640E+03  0.69918891575E+02  0.10721154066E+04  0.11037282434E+04  0.17242232016E+03 0.  0.
        -24    2    3    3    0    0 -0.18060396761E+03  0.16091879753E+02  0.94219350404E+03  0.96295503220E+03  0.81713238062E+02 0.  0.
          6    2    1    2  501    0  0.18484177640E+03 -0.69918891575E+02  0.38957024511E+03  0.46996021124E+03  0.17332769707E+03 0.  0.
         24    2    5    5    0    0  0.89625428562E+02 -0.66038507038E+02  0.11434563593E+03  0.17866674104E+03  0.80331052791E+02 0.  0.
          5    1    5    5  501    0  0.95216347842E+02 -0.38803845367E+01  0.27522460919E+03  0.29129347020E+03  0.47000000000E+01 0. -1.
        -11    1    6    6    0    0  0.54772173736E+01 -0.40957683267E+02  0.10424627696E+02  0.42616951925E+02  0.00000000000E+00 0.  1.
         12    1    6    6    0    0  0.84148211188E+02 -0.25080823771E+02  0.10392100823E+03  0.13604978912E+03  0.00000000000E+00 0. -1.
         -5    1    3    3    0  503 -0.42378087960E+01  0.53827011821E+02  0.12992190261E+03  0.14077321124E+03  0.47000000000E+01 0.  1.
         11    1    4    4    0    0 -0.10146348981E+03 -0.39418542573E+01  0.70110301113E+03  0.70841782177E+03  0.00000000000E+00 0. -1.
        -12    1    4    4    0    0 -0.79140477793E+02  0.20033734011E+02  0.24109049290E+03  0.25453721043E+03  0.00000000000E+00 0.  1.
</event>
<event>
12    1  0.1046899E+000  0.1785530E+03  0.7818608E-02  0.1169304E+00
         21   -1    0    0  501  502  0.00000000000E+00  0.00000000000E+00  0.79717865151E+02  0.79717865151E+02  0.00000000000E+00 0. -1.
         21   -1    0    0  502  503 -0.00000000000E+00 -0.00000000000E+00 -0.47054072535E+03  0.47054072535E+03  0.00000000000E+00 0. -1.
         -6    2    1    2    0  503 -0.40403413897E+02  0.28258058413E+02 -0.88363366789E+02  0.19922165439E+03  0.17161069100E+03 0.  0.
        -24    2    3    3    0    0 -0.24135580551E+02  0.54330527781E+02  0.22075616637E+02  0.84490337297E+02  0.55829667285E+02 0.  0.
          6    2    1    2  501    0  0.40403413897E+02 -0.28258058413E+02 -0.30245949341E+03  0.35103693612E+03  0.17121399371E+03 0.  0.
         24    2    5    5    0    0  0.86656952511E+02 -0.15756985737E+02 -0.26818493077E+03  0.29193953942E+03  0.74483740278E+02 0.  0.
          5    1    5    5  501    0 -0.46253538614E+02 -0.12501072676E+02 -0.34274562644E+02  0.59097396701E+02  0.47000000000E+01 0. -1.
        -13    1    6    6    0    0  0.84577321958E+02  0.21314191185E+00 -0.26089433290E+03  0.27426122904E+03  0.00000000000E+00 0.  1.
         14    1    6    6    0    0  0.20796305529E+01 -0.15970127648E+02 -0.72905978728E+01  0.17678310374E+02  0.00000000000E+00 0. -1.
         -5    1    3    3    0  503 -0.16267833346E+02 -0.26072469368E+02 -0.11043898343E+03  0.11473131709E+03  0.47000000000E+01 0.  1.
         11    1    4    4    0    0 -0.27958088394E+02  0.88371638075E+00  0.76029043756E+01  0.28986890420E+02  0.00000000000E+00 0. -1.
        -12    1    4    4    0    0  0.38225078430E+01  0.53446811400E+02  0.14472712261E+02  0.55503446877E+02  0.00000000000E+00 0.  1.
</event>
<event>
12    1  0.1046899E+000  0.3065547E+03  0.7818608E-02  0.1082155E+00
         21   -1    0    0  501  502  0.00000000000E+00  0.00000000000E+00  0.58923890531E+03  0.58923890531E+03  0.00000000000E+00 0. -1.
         21   -1    0    0  502  503 -0.00000000000E+00 -0.00000000000E+00 -0.41731578687E+03  0.41731578687E+03  0.00000000000E+00 0. -1.
         -6    2    1    2    0  503  0.22175010914E+03 -0.12256596900E+03  0.48208989288E+03  0.57130239752E+03  0.17256951335E+03 0.  0.
        -24    2    3    3    0    0  0.78012074936E+02 -0.93006779107E+02  0.15472891161E+03  0.21252437389E+03  0.80556989848E+02 0.  0.
          6    2    1    2  501    0 -0.22175010914E+03  0.12256596900E+03 -0.31016677443E+03  0.43525229466E+03  0.17042771013E+03 0.  0.
         24    2    5    5    0    0 -0.11648239535E+03  0.62064451662E+02 -0.26296252737E+03  0.30489871355E+03  0.79961178917E+02 0.  0.
          5    1    5    5  501    0 -0.10526771379E+03  0.60501517340E+02 -0.47204247058E+02  0.13035358111E+03  0.47000000000E+01 0. -1.
        -13    1    6    6    0    0 -0.27417552766E+02 -0.18223136788E+02 -0.75507406731E+02  0.82372163899E+02  0.00000000000E+00 0.  1.
         14    1    6    6    0    0 -0.89064842585E+02  0.80287588450E+02 -0.18745512064E+03  0.22252654965E+03  0.00000000000E+00 0. -1.
         -5    1    3    3    0  503  0.14373803421E+03 -0.29559189894E+02  0.32736098127E+03  0.35877802364E+03  0.47000000000E+01 0.  1.
         11    1    4    4    0    0 -0.30140643666E+01  0.86620137273E+01  0.33615639245E+02  0.34844314711E+02  0.00000000000E+00 0. -1.
        -12    1    4    4    0    0  0.81026139303E+02 -0.10166879283E+03  0.12111327236E+03  0.17768005918E+03  0.00000000000E+00 0.  1.
</event>
<event>
12    1  0.1046899E+000  0.2902034E+03  0.7818608E-02  0.1090535E+00
         21   -1    0    0  501  502  0.00000000000E+00  0.00000000000E+00  0.69916592681E+02  0.69916592681E+02  0.00000000000E+00 0.  1.
         21   -1    0    0  502  503 -0.00000000000E+00 -0.00000000000E+00 -0.14261495119E+04  0.14261495119E+04  0.00000000000E+00 0.  1.
         -6    2    1    2    0  503 -0.20644675645E+03  0.10821401327E+03 -0.37496736609E+03  0.47278700381E+03  0.16910496570E+03 0.  0.
        -24    2    3    3    0    0 -0.11788489118E+03  0.11635970756E+03 -0.17680882578E+03  0.25553495339E+03  0.81242368373E+02 0.  0.
          6    2    1    2  501    0  0.20644675645E+03 -0.10821401327E+03 -0.98126555309E+03  0.10232791007E+04  0.17288000575E+03 0.  0.
         24    2    5    5    0    0  0.71953706312E+02 -0.11129897845E+03 -0.56064089313E+03  0.58164000360E+03  0.80137907902E+02 0.  0.
          5    1    5    5  501    0  0.13449305014E+03  0.30849651746E+01 -0.42062465996E+03  0.44163909713E+03  0.47000000000E+01 0. -1.
        -13    1    6    6    0    0  0.88136798072E+02 -0.10433986239E+03 -0.51210815103E+03  0.53000911351E+03  0.00000000000E+00 0.  1.
         14    1    6    6    0    0 -0.16183091760E+02 -0.69591160577E+01 -0.48532742101E+02  0.51630890085E+02  0.00000000000E+00 0. -1.
         -5    1    3    3    0  503 -0.88561865272E+02 -0.81456942880E+01 -0.19815854030E+03  0.21725205042E+03  0.47000000000E+01 0.  1.
         13    1    4    4    0    0 -0.11714182003E+03  0.66811229238E+02 -0.12590053018E+03  0.18449089368E+03  0.00000000000E+00 0. -1.
        -14    1    4    4    0    0 -0.74307114801E+00  0.49548478323E+02 -0.50908295602E+02  0.71044059709E+02  0.00000000000E+00 0.  1.
</event>
<event>
12    1  0.1046899E+000  0.3894672E+03  0.7818608E-02  0.1047602E+00
         21   -1    0    0  501  502  0.00000000000E+00  0.00000000000E+00  0.10235047925E+04  0.10235047925E+04  0.00000000000E+00 0.  1.
         21   -1    0    0  502  503 -0.00000000000E+00 -0.00000000000E+00 -0.16064422811E+03  0.16064422811E+03  0.00000000000E+00 0.  1.
         -6    2    1    2    0  503 -0.14272150895E+03  0.31752147261E+03  0.59870536812E+03  0.71355082202E+03  0.17180612071E+03 0.  0.
        -24    2    3    3    0    0 -0.27518052572E+02  0.22116105884E+03  0.33676693363E+03  0.41157234735E+03  0.79437852150E+02 0.  0.
          6    2    1    2  501    0  0.14272150895E+03 -0.31752147261E+03  0.26415519627E+03  0.47059819859E+03  0.17462927050E+03 0.  0.
         24    2    5    5    0    0  0.10080566152E+01 -0.88257646503E+02  0.67011749315E+02  0.13663377951E+03  0.79923631131E+02 0.  0.
          5    1    5    5  501    0  0.14171345233E+03 -0.22926382611E+03  0.19714344695E+03  0.33396441908E+03  0.47000000000E+01 0. -1.
        -13    1    6    6    0    0 -0.11021258041E+02 -0.94853077409E+02  0.34821421868E+02  0.10164204762E+03  0.00000000000E+00 0.  1.
         14    1    6    6    0    0  0.12029314656E+02  0.65954309057E+01  0.32190327447E+02  0.34991731896E+02  0.00000000000E+00 0. -1.
         -5    1    3    3    0  503 -0.11520345637E+03  0.96360413771E+02  0.26193843449E+03  0.30197847467E+03  0.47000000000E+01 0.  1.
         11    1    4    4    0    0 -0.37227789926E+02  0.19372015952E+03  0.24078055604E+03  0.31126947283E+03  0.00000000000E+00 0. -1.
        -12    1    4    4    0    0  0.97097373547E+01  0.27440899316E+02  0.95986377588E+02  0.10030287452E+03  0.00000000000E+00 0.  1.
</event>
<event>
12    1  0.1046899E+000  0.1806206E+03  0.7818608E-02  0.1167874E+00
         21   -1    0    0  501  502  0.00000000000E+00  0.00000000000E+00  0.63554363817E+02  0.63554363817E+02  0.00000000000E+00 0. -1.
         21   -1    0    0  502  503 -0.00000000000E+00 -0.00000000000E+00 -0.76991275457E+03  0.76991275457E+03  0.00000000000E+00 0. -1.
         -6    2    1    2    0  503  0.44275119952E+02  0.29705097366E+02 -0.10718649510E+03  0.20766302406E+03  0.16968296254E+03 0.  0.
        -24    2    3    3    0    0  0.44883917739E+02 -0.38802441813E+02 -0.27332758617E+02  0.10234273737E+03  0.78782997128E+02 0.  0.
          6    2    1    2  501    0 -0.44275119952E+02 -0.29705097366E+02 -0.59917189565E+03  0.62580409432E+03  0.17257208603E+03 0.  0.
         24    2    5    5    0    0 -0.92404632234E+02 -0.16593393942E+02 -0.48527614563E+03  0.50137460186E+03  0.84080896171E+02 0.  0.
          5    1    5    5  501    0  0.48129512282E+02 -0.13111703424E+02 -0.11389575003E+03  0.12442949246E+03  0.47000000000E+01 0. -1.
        -13    1    6    6    0    0 -0.29668815227E+02  0.71233014249E+01 -0.33997232714E+03  0.34133878074E+03  0.00000000000E+00 0.  1.
         14    1    6    6    0    0 -0.62735817007E+02 -0.23716695367E+02 -0.14530381849E+03  0.16003582112E+03  0.00000000000E+00 0. -1.
         -5    1    3    3    0  503 -0.60879778643E+00  0.68507539179E+02 -0.79853736482E+02  0.10532028669E+03  0.47000000000E+01 0.  1.
         13    1    4    4    0    0 -0.29830825886E+01  0.12156614853E+02 -0.29865026796E+02  0.32382123030E+02  0.00000000000E+00 0. -1.
        -14    1    4    4    0    0  0.47867000327E+02 -0.50959056666E+02  0.25322681787E+01  0.69960614340E+02  0.00000000000E+00 0.  1.
</event>
<event>
12    1  0.1046899E+000  0.3651610E+03  0.7818608E-02  0.1056603E+00
         21   -1    0    0  503  502  0.00000000000E+00  0.00000000000E+00  0.19298409165E+03  0.19298409165E+03  0.00000000000E+00 0.  1.
         21   -1    0    0  501  503 -0.00000000000E+00 -0.00000000000E+00 -0.81060944660E+03  0.81060944660E+03  0.00000000000E+00 0.  1.
          6    2    1    2  501    0  0.30479543020E+03 -0.10379597386E+03 -0.50245982498E+03  0.62113479141E+03  0.17224603021E+03 0.  0.
         24    2    3    3    0    0  0.11179202318E+03 -0.14008502964E+02 -0.12325659423E+03  0.18624482226E+03  0.82469698661E+02 0.  0.
         -6    2    1    2    0  502 -0.30479543020E+03  0.10379597386E+03 -0.11516552998E+03  0.38245874684E+03  0.17128261814E+03 0.  0.
        -24    2    5    5    0    0 -0.11107467798E+03  0.78334780731E+01  0.70253325561E+01  0.13408558539E+03  0.74368282523E+02 0.  0.
          5    1    3    3  501    0  0.19300340702E+03 -0.89787470898E+02 -0.37920323075E+03  0.43488996915E+03  0.47000000000E+01 0. -1.
        -11    1    4    4    0    0  0.29502034452E+02  0.33398721997E+02 -0.42556943326E+02  0.61619299680E+02  0.00000000000E+00 0.  1.
         12    1    4    4    0    0  0.82289988733E+02 -0.47407224961E+02 -0.80699650900E+02  0.12462552258E+03  0.00000000000E+00 0. -1.
         -5    1    5    5    0  502 -0.19372075223E+03  0.95962495788E+02 -0.12219086254E+03  0.24837316145E+03  0.47000000000E+01 0.  1.
         13    1    6    6    0    0 -0.78788500178E+02 -0.28924405189E+02  0.12502555761E+02  0.84856130459E+02  0.00000000000E+00 0. -1.
        -14    1    6    6    0    0 -0.32286177798E+02  0.36757883262E+02 -0.54772232052E+01  0.49229454931E+02  0.00000000000E+00 0.  1.
</event>
<event>
12    1  0.1046899E+000  0.2421824E+03  0.7818608E-02  0.1118393E+00
         21   -1    0    0  501  502  0.00000000000E+00  0.00000000000E+00  0.51350657706E+03  0.51350657706E+03  0.00000000000E+00 0.  1.
         21   -1    0    0  502  503 -0.00000000000E+00 -0.00000000000E+00 -0.22795727092E+03  0.22795727092E+03  0.00000000000E+00 0.  1.
         -6    2    1    2    0  503 -0.16683852037E+03 -0.37006644087E+02  0.40475395244E+03  0.47153407538E+03  0.17121343009E+03 0.  0.
        -24    2    3    3    0    0 -0.11948866944E+03 -0.84704141259E+02  0.33020114717E+03  0.37104890039E+03  0.84806575321E+02 0.  0.
          6    2    1    2  501    0  0.16683852037E+03  0.37006644087E+02 -0.11920464630E+03  0.26992977260E+03  0.17160346981E+03 0.  0.
         24    2    5    5    0    0  0.61222139564E+02  0.72759225416E+02 -0.32652368985E+02  0.12869785809E+03  0.80342431015E+02 0.  0.
          5    1    5    5  501    0  0.10561638080E+03 -0.35752581329E+02 -0.86552277318E+02  0.14123191450E+03  0.47000000000E+01 0. -1.
        -11    1    6    6    0    0 -0.87129010712E+01  0.22166210098E+02  0.16867571373E+02  0.29185107148E+02  0.00000000000E+00 0.  1.
         12    1    6    6    0    0  0.69935040635E+02  0.50593015318E+02 -0.49519940358E+02  0.99512750945E+02  0.00000000000E+00 0. -1.
         -5    1    3    3    0  503 -0.47349850929E+02  0.47697497172E+02  0.74552805274E+02  0.10048517499E+03  0.47000000000E+01 0.  1.
         13    1    4    4    0    0 -0.11495573539E+03 -0.57143779677E+02  0.19832797291E+03  0.23625032803E+03  0.00000000000E+00 0. -1.
        -14    1    4    4    0    0 -0.45329340490E+01 -0.27560361583E+02  0.13187317425E+03  0.13479857236E+03  0.00000000000E+00 0.  1.
</event>
<event>
12    1  0.1046899E+000  0.4693280E+03  0.7818608E-02  0.1022151E+00
         21   -1    0    0  503  502  0.00000000000E+00  0.00000000000E+00  0.64131135766E+03  0.64131135766E+03  0.00000000000E+00 0. -1.
         21   -1    0    0  501  503 -0.00000000000E+00 -0.00000000000E+00 -0.47979370031E+03  0.47979370031E+03  0.00000000000E+00 0. -1.
          6    2    1    2  501    0 -0.24621704259E+03  0.36046605650E+03  0.37998519889E+03  0.60342094911E+03  0.17079075063E+03 0.  0.
         24    2    3    3    0    0 -0.18816544257E+03  0.33444241782E+03  0.26870332540E+03  0.47515184370E+03  0.79434456494E+02 0.  0.
         -6    2    1    2    0  502  0.24621704259E+03 -0.36046605650E+03 -0.21846754153E+03  0.51768410887E+03  0.17236635379E+03 0.  0.
        -24    2    5    5    0    0  0.10234633617E+03 -0.12070684878E+03 -0.28565629213E+02  0.17964848329E+03  0.80079126540E+02 0.  0.
          5    1    3    3  501    0 -0.58051600014E+02  0.26023638679E+02  0.11128187349E+03  0.12826910540E+03  0.47000000000E+01 0. -1.
        -13    1    4    4    0    0 -0.76311975116E+02  0.19473260490E+03  0.17731914111E+03  0.27420135441E+03  0.00000000000E+00 0.  1.
         14    1    4    4    0    0 -0.11185346746E+03  0.13970981292E+03  0.91384184287E+02  0.20095048929E+03  0.00000000000E+00 0. -1.
         -5    1    5    5    0  502  0.14387070642E+03 -0.23975920772E+03 -0.18990191232E+03  0.33803562557E+03  0.47000000000E+01 0.  1.
         11    1    6    6    0    0 -0.10695593019E+02 -0.30846478642E+02 -0.11913876924E+01  0.32669869288E+02  0.00000000000E+00 0. -1.
        -12    1    6    6    0    0  0.11304192919E+03 -0.89860370134E+02 -0.27374241521E+02  0.14697861400E+03  0.00000000000E+00 0.  1.
</event>
<event>
12    1  0.1046899E+000  0.2404051E+03  0.7818608E-02  0.1119582E+00
         21   -1    0    0  501  502  0.00000000000E+00  0.00000000000E+00  0.15753357242E+04  0.15753357242E+04  0.00000000000E+00 0. -1.
         21   -1    0    0  502  503 -0.00000000000E+00 -0.00000000000E+00 -0.37302180374E+02  0.37302180374E+02  0.00000000000E+00 0. -1.
         -6    2    1    2    0  503 -0.78382599846E+02 -0.14765014275E+03  0.87641098483E+03  0.90869256155E+03  0.17228337255E+03 0.  0.
        -24    2    3    3    0    0 -0.89367978086E+02 -0.17380983682E+03  0.76366335295E+03  0.79233480880E+03  0.80101421406E+02 0.  0.
          6    2    1    2  501    0  0.78382599846E+02  0.14765014275E+03  0.66162255896E+03  0.70394534300E+03  0.17277221649E+03 0.  0.
         24    2    5    5    0    0  0.27128313248E+01  0.11527224982E+03  0.53465815234E+03  0.55256406157E+03  0.78566222016E+02 0.  0.
          5    1    5    5  501    0  0.75669768521E+02  0.32377892928E+02  0.12696440663E+03  0.15138128143E+03  0.47000000000E+01 0. -1.
        -13    1    6    6    0    0 -0.27087662657E+02  0.70318307856E+02  0.40800278790E+03  0.41490321862E+03  0.00000000000E+00 0.  1.
         14    1    6    6    0    0  0.29800493982E+02  0.44953941967E+02  0.12665536444E+03  0.13766084295E+03  0.00000000000E+00 0. -1.
         -5    1    3    3    0  503  0.10985378240E+02  0.26159694071E+02  0.11274763189E+03  0.11635775275E+03  0.47000000000E+01 0.  1.
         11    1    4    4    0    0 -0.29979508586E+02 -0.35493068583E+01  0.88548395995E+02  0.93553123665E+02  0.00000000000E+00 0. -1.
        -12    1    4    4    0    0 -0.59388469500E+02 -0.17026052996E+03  0.67511495695E+03  0.69878168513E+03  0.00000000000E+00 0.  1.
</event>
<event>
12    1  0.1046899E+000  0.2075692E+03  0.7818608E-02  0.1144419E+00
         21   -1    0    0  503  502  0.00000000000E+00  0.00000000000E+00  0.15911826469E+03  0.15911826469E+03  0.00000000000E+00 0.  1.
         21   -1    0    0  501  503 -0.00000000000E+00 -0.00000000000E+00 -0.54118486488E+03  0.54118486488E+03  0.00000000000E+00 0.  1.
          6    2    1    2  501    0 -0.11081297054E+03  0.13721406327E+02 -0.44221416625E+03  0.48850623068E+03  0.17497764757E+03 0.  0.
         24    2    3    3    0    0  0.51667945184E+01 -0.94377071620E+01 -0.25249015503E+03  0.26488838508E+03  0.79365055774E+02 0.  0.
         -6    2    1    2    0  502  0.11081297054E+03 -0.13721406327E+02  0.60147566064E+02  0.21179689888E+03  0.16962430617E+03 0.  0.
        -24    2    5    5    0    0  0.89535914992E+02 -0.68328558749E+02  0.66061524972E+02  0.15270612889E+03  0.79180582882E+02 0.  0.
          5    1    3    3  501    0 -0.11597976505E+03  0.23159113489E+02 -0.18972401122E+03  0.22361784560E+03  0.47000000000E+01 0. -1.
        -11    1    4    4    0    0  0.11734144418E+02  0.77219642956E+01 -0.24441562148E+03  0.24481894310E+03  0.00000000000E+00 0.  1.
         12    1    4    4    0    0 -0.65673498992E+01 -0.17159671458E+02 -0.80745335580E+01  0.20069441981E+02  0.00000000000E+00 0. -1.
         -5    1    5    5    0  502  0.21277055544E+02  0.54607152422E+02 -0.59139589079E+01  0.59090769992E+02  0.47000000000E+01 0.  1.
         13    1    6    6    0    0  0.75939241837E+02 -0.86078120099E+01  0.37153793602E+02  0.84978039854E+02  0.00000000000E+00 0. -1.
        -14    1    6    6    0    0  0.13596673156E+02 -0.59720746739E+02  0.28907731369E+02  0.67728089039E+02  0.00000000000E+00 0.  1.
</event>
<event>
12    1  0.1046899E+000  0.1998196E+03  0.7818608E-02  0.1150035E+00
         21   -1    0    0  501  502  0.00000000000E+00  0.00000000000E+00  0.96707405710E+02  0.96707405710E+02  0.00000000000E+00 0.  1.
         21   -1    0    0  502  503 -0.00000000000E+00 -0.00000000000E+00 -0.62770875092E+03  0.62770875092E+03  0.00000000000E+00 0.  1.
         -6    2    1    2    0  503 -0.88531793500E+02 -0.47232724439E+02 -0.47838482908E+03  0.51843990671E+03  0.17279781093E+03 0.  0.
        -24    2    3    3    0    0 -0.61402200783E+02  0.13691092586E+02 -0.13274670898E+03  0.16639512782E+03  0.78153525445E+02 0.  0.
          6    2    1    2  501    0  0.88531793500E+02  0.47232724439E+02 -0.52616516126E+02  0.20597624991E+03  0.17201426987E+03 0.  0.
         24    2    5    5    0    0  0.42914206404E+02 -0.36892244140E+02 -0.48184749008E+02  0.11006115647E+03  0.81172786924E+02 0.  0.
          5    1    5    5  501    0  0.45617587095E+02  0.84124968579E+02 -0.44317671182E+01  0.95915093445E+02  0.47000000000E+01 0. -1.
        -13    1    6    6    0    0 -0.24244549765E+02 -0.11193792344E+02 -0.17187362876E+02  0.31756961804E+02  0.00000000000E+00 0.  1.
         14    1    6    6    0    0  0.67158756169E+02 -0.25698451796E+02 -0.30997386132E+02  0.78304194663E+02  0.00000000000E+00 0. -1.
         -5    1    3    3    0  503 -0.27129592717E+02 -0.60923817025E+02 -0.34563812010E+03  0.35204477889E+03  0.47000000000E+01 0.  1.
         11    1    4    4    0    0 -0.71206784936E+02 -0.11604586111E+02 -0.10658256524E+03  0.12870476235E+03  0.00000000000E+00 0. -1.
        -12    1    4    4    0    0  0.98045841534E+01  0.25295678697E+02 -0.26164143747E+02  0.37690365469E+02  0.00000000000E+00 0.  1.
</event>
<event>
12    1  0.1046899E+000  0.1834137E+03  0.7818608E-02  0.1164832E+00
         21   -1    0    0  503  502  0.00000000000E+00  0.00000000000E+00  0.67407895820E+02  0.67407895820E+02  0.00000000000E+00 0. -1.
         21   -1    0    0  501  503 -0.00000000000E+00 -0.00000000000E+00 -0.49619208606E+03  0.49619208606E+03  0.00000000000E+00 0. -1.
          6    2    1    2  501    0 -0.35686991760E-01  0.62731163669E+02 -0.22391481467E+03  0.28944506165E+03  0.17235254369E+03 0.  0.
         24    2    3    3    0    0 -0.49629085764E+02  0.86513225417E+02 -0.15435037886E+03  0.20063969925E+03  0.80527418517E+02 0.  0.
         -6    2    1    2    0  502  0.35686991760E-01 -0.62731163669E+02 -0.20486937557E+03  0.27415492023E+03  0.17103876482E+03 0.  0.
        -24    2    5    5    0    0  0.52441453609E+02  0.18938630694E-01 -0.90856982824E+02  0.13378093612E+03  0.83019522566E+02 0.  0.
          5    1    3    3  501    0  0.49593398772E+02 -0.23782061748E+02 -0.69564435806E+02  0.88805362405E+02  0.47000000000E+01 0. -1.
        -13    1    4    4    0    0 -0.15402947668E+02  0.81777466108E+02 -0.14074518055E+03  0.16350538403E+03  0.00000000000E+00 0.  1.
         14    1    4    4    0    0 -0.34226138095E+02  0.47357593091E+01 -0.13605198310E+02  0.37134315211E+02  0.00000000000E+00 0. -1.
         -5    1    5    5    0  502 -0.52405766617E+02 -0.62750102300E+02 -0.11401239275E+03  0.14037398411E+03  0.47000000000E+01 0.  1.
         11    1    6    6    0    0  0.30010972178E+02 -0.11497884950E+02  0.68609829611E+01  0.32862332489E+02  0.00000000000E+00 0. -1.
        -12    1    6    6    0    0  0.22430481431E+02  0.11516823581E+02 -0.97717965785E+02  0.10091860364E+03  0.00000000000E+00 0.  1.
</event>
<event>
12    1  0.1046899E+000  0.3688266E+03  0.7818608E-02  0.1055223E+00
         21   -1    0    0  501  502  0.00000000000E+00  0.00000000000E+00  0.77938391074E+03  0.77938391074E+03  0.00000000000E+00 0.  1.
         21   -1    0    0  502  503 -0.00000000000E+00 -0.00000000000E+00 -0.17461379138E+03  0.17461379138E+03  0.00000000000E+00 0.  1.
         -6    2    1    2    0  503 -0.24676162079E+03  0.21340149950E+03  0.32680434438E+03  0.49215569666E+03  0.17024879666E+03 0.  0.
        -24    2    3    3    0    0 -0.25574682448E+03  0.17342223767E+03  0.31728792495E+03  0.44982689439E+03  0.78682252466E+02 0.  0.
          6    2    1    2  501    0  0.24676162079E+03 -0.21340149950E+03  0.27796577498E+03  0.46184200547E+03  0.17205106356E+03 0.  0.
         24    2    5    5    0    0  0.19504805628E+03 -0.19226820256E+03  0.28830132999E+03  0.40483478933E+03  0.75912738132E+02 0.  0.
          5    1    5    5  501    0  0.51713564509E+02 -0.21133296941E+02 -0.10335555006E+02  0.57007216132E+02  0.47000000000E+01 0. -1.
        -11    1    6    6    0    0  0.89137484210E+02 -0.12288649050E+03  0.11620600842E+03  0.19118163362E+03  0.00000000000E+00 0.  1.
         12    1    6    6    0    0  0.10591057207E+03 -0.69381712055E+02  0.17209532156E+03  0.21365315572E+03  0.00000000000E+00 0. -1.
         -5    1    3    3    0  503  0.89852036956E+01  0.39979261832E+02  0.95164194359E+01  0.42328802263E+02  0.47000000000E+01 0.  1.
         13    1    4    4    0    0 -0.14975671874E+03  0.11826459524E+03  0.24362240517E+03  0.30945995798E+03  0.00000000000E+00 0. -1.
        -14    1    4    4    0    0 -0.10599010574E+03  0.55157642429E+02  0.73665519782E+02  0.14036693641E+03  0.00000000000E+00 0.  1.
</event>
<event>
12    1  0.1046899E+000  0.2109277E+03  0.7818608E-02  0.1140898E+00
         21   -1    0    0  501  502  0.00000000000E+00  0.00000000000E+00  0.17247066558E+03  0.17247066558E+03  0.00000000000E+00 0.  1.
         21   -1    0    0  502  503 -0.00000000000E+00 -0.00000000000E+00 -0.26096562312E+03  0.26096562312E+03  0.00000000000E+00 0.  1.
         -6    2    1    2    0  503 -0.68129050406E+02 -0.96262721813E+02 -0.69045550676E+02  0.22194097135E+03  0.17487832220E+03 0.  0.
        -24    2    3    3    0    0 -0.43285822522E+02 -0.10145618415E+03 -0.10997026607E+03  0.17355625938E+03  0.76559101474E+02 0.  0.
          6    2    1    2  501    0  0.68129050406E+02  0.96262721813E+02 -0.19449406864E+02  0.21149531735E+03  0.17448183491E+03 0.  0.
         24    2    5    5    0    0  0.89011565905E+02  0.34924068051E+02  0.32290273990E+02  0.12844355955E+03  0.79450215870E+02 0.  0.
          5    1    5    5  501    0 -0.20882515498E+02  0.61338653762E+02 -0.51739680854E+02  0.83051757800E+02  0.47000000000E+01 0. -1.
        -13    1    6    6    0    0  0.23608251703E+02 -0.23396104027E+02  0.22791849540E+02  0.40301310619E+02  0.00000000000E+00 0.  1.
         14    1    6    6    0    0  0.65403314201E+02  0.58320172078E+02  0.94984244496E+01  0.88142248932E+02  0.00000000000E+00 0. -1.
         -5    1    3    3    0  503 -0.24843227885E+02  0.51934623323E+01  0.40924715390E+02  0.48384711971E+02  0.47000000000E+01 0.  1.
         11    1    4    4    0    0 -0.54406129703E+02 -0.10166784533E+03 -0.76733261506E+02  0.13850765735E+03  0.00000000000E+00 0. -1.
        -12    1    4    4    0    0  0.11120307182E+02  0.21166118075E+00 -0.33237004561E+02  0.35048602033E+02  0.00000000000E+00 0.  1.
</event>
<event>
12    1  0.1046899E+000  0.1850697E+03  0.7818608E-02  0.1163157E+00
         21   -1    0    0  501  502  0.00000000000E+00  0.00000000000E+00  0.24477754939E+03  0.24477754939E+03  0.00000000000E+00 0. -1.
         21   -1    0    0  502  503 -0.00000000000E+00 -0.00000000000E+00 -0.14035896213E+03  0.14035896213E+03  0.00000000000E+00 0. -1.
         -6    2    1    2    0  503 -0.33776831009E+02 -0.59268350281E+02  0.36154682773E+02  0.18856820631E+03  0.17203835527E+03 0.  0.
        -24    2    3    3    0    0 -0.88402396693E+02 -0.53705211387E+02  0.29892955454E+02  0.13310470326E+03  0.78256244315E+02 0.  0.
          6    2    1    2  501    0  0.33776831009E+02  0.59268350281E+02  0.68263904480E+02  0.19656830521E+03  0.17124697458E+03 0.  0.
         24    2    5    5    0    0  0.82786678548E+02  0.49044083760E+02  0.18255504817E+02  0.12564982512E+03  0.78712507269E+02 0.  0.
          5    1    5    5  501    0 -0.49009847538E+02  0.10224266521E+02  0.50008399663E+02  0.70918480091E+02  0.47000000000E+01 0. -1.
        -11    1    6    6    0    0  0.37374966268E+02 -0.91868521542E+01  0.32583376453E+02  0.50427797663E+02  0.00000000000E+00 0.  1.
         12    1    6    6    0    0  0.45411712280E+02  0.58230935914E+02 -0.14327871636E+02  0.75222027460E+02  0.00000000000E+00 0. -1.
         -5    1    3    3    0  503  0.54625565684E+02 -0.55631388937E+01  0.62617273199E+01  0.55463503042E+02  0.47000000000E+01 0.  1.
         11    1    4    4    0    0  0.47814897788E+01 -0.12891923657E+02  0.28185430660E+02  0.31360529995E+02  0.00000000000E+00 0. -1.
        -12    1    4    4    0    0 -0.93183886472E+02 -0.40813287730E+02  0.17075247931E+01  0.10174417327E+03  0.00000000000E+00 0.  1.
</event>
<event>
12    1  0.1046899E+000  0.1944836E+03  0.7818608E-02  0.1155064E+00
         21   -1    0    0  503  502  0.00000000000E+00  0.00000000000E+00  0.47722971151E+02  0.47722971151E+02  0.00000000000E+00 0. -1.
         21   -1    0    0  501  503 -0.00000000000E+00 -0.00000000000E+00 -0.92593522751E+03  0.92593522751E+03  0.00000000000E+00 0. -1.
          6    2    1    2  501    0  0.87033839678E+02  0.26779718300E+02 -0.24956761761E+03  0.31639825472E+03  0.17184823907E+03 0.  0.
         24    2    3    3    0    0  0.90578110137E+01 -0.18762865291E+02 -0.47213957545E+02  0.94760077263E+02  0.79474684030E+02 0.  0.
         -6    2    1    2    0  502 -0.87033839678E+02 -0.26779718300E+02 -0.62864463875E+03  0.65725994394E+03  0.16883278567E+03 0.  0.
        -24    2    5    5    0    0 -0.10045406660E+03 -0.63739470507E+02 -0.39379203559E+03  0.41909201791E+03  0.80076292321E+02 0.  0.
          5    1    3    3  501    0  0.77976028664E+02  0.45542583590E+02 -0.20235366006E+03  0.22163817746E+03  0.47000000000E+01 0. -1.
        -13    1    4    4    0    0 -0.12185392650E+01 -0.34173868550E+02 -0.62169322325E+02  0.70953243534E+02  0.00000000000E+00 0.  1.
         14    1    4    4    0    0  0.10276350279E+02  0.15411003260E+02  0.14955364780E+02  0.23806833729E+02  0.00000000000E+00 0. -1.
         -5    1    5    5    0  502  0.13420226919E+02  0.36959752207E+02 -0.23485260317E+03  0.23816792603E+03  0.47000000000E+01 0.  1.
         13    1    6    6    0    0 -0.79849396137E+02 -0.69159577770E+02 -0.37823957275E+03  0.39271382412E+03  0.00000000000E+00 0. -1.
        -14    1    6    6    0    0 -0.20604670460E+02  0.54201072631E+01 -0.15552462833E+02  0.26378193792E+02  0.00000000000E+00 0.  1.
</event>
<event>
12    1  0.1046899E+000  0.2089631E+03  0.7818608E-02  0.1142486E+00
         21   -1    0    0  501  502  0.00000000000E+00  0.00000000000E+00  0.44311941683E+03  0.44311941683E+03  0.00000000000E+00 0. -1.
         21   -1    0    0  502  503 -0.00000000000E+00 -0.00000000000E+00 -0.14118287324E+03  0.14118287324E+03  0.00000000000E+00 0. -1.
         -6    2    1    2    0  503  0.91787583632E+02 -0.77490114887E+02  0.31207745513E+03  0.37557680376E+03  0.17098514296E+03 0.  0.
        -24    2    3    3    0    0  0.83027783130E+02 -0.10985102694E+03  0.30077885602E+03  0.33988771473E+03  0.78069696483E+02 0.  0.
          6    2    1    2  501    0 -0.91787583632E+02  0.77490114887E+02 -0.10140911535E+02  0.20872548630E+03  0.17039311057E+03 0.  0.
         24    2    5    5    0    0 -0.61609509414E+02  0.11899876222E+03 -0.14490875914E+02  0.15700802158E+03  0.80530095604E+02 0.  0.
          5    1    5    5  501    0 -0.30178074219E+02 -0.41508647329E+02  0.43499643786E+01  0.51717464717E+02  0.47000000000E+01 0. -1.
        -13    1    6    6    0    0 -0.28797182319E+01  0.52838567181E+02 -0.38383119534E+02  0.65371789206E+02  0.00000000000E+00 0.  1.
         14    1    6    6    0    0 -0.58729791182E+02  0.66160195035E+02  0.23892243620E+02  0.91636232378E+02  0.00000000000E+00 0. -1.
         -5    1    3    3    0  503  0.87598005016E+01  0.32360912055E+02  0.11298599111E+02  0.35689089029E+02  0.47000000000E+01 0.  1.
         13    1    4    4    0    0  0.56180982604E+02 -0.16768608076E+02  0.14547953440E+03  0.15684955835E+03  0.00000000000E+00 0. -1.
        -14    1    4    4    0    0  0.26846800527E+02 -0.93082418866E+02  0.15529932161E+03  0.18303815639E+03  0.00000000000E+00 0.  1.
</event>
<event>
12    1  0.1046899E+000  0.3123544E+03  0.7818608E-02  0.1079224E+00
         21   -1    0    0  501  502  0.00000000000E+00  0.00000000000E+00  0.11862681645E+03  0.11862681645E+03  0.00000000000E+00 0.  1.
         21   -1    0    0  502  503 -0.00000000000E+00 -0.00000000000E+00 -0.10003270812E+04  0.10003270812E+04  0.00000000000E+00 0.  1.
         -6    2    1    2    0  503  0.19770424299E+03 -0.17011040465E+03 -0.20491850076E+03  0.37357313968E+03  0.17187431824E+03 0.  0.
        -24    2    3    3    0    0  0.56189264745E+02 -0.10107778069E+03 -0.15113365111E+03  0.20711926532E+03  0.81749974586E+02 0.  0.
          6    2    1    2  501    0 -0.19770424299E+03  0.17011040465E+03 -0.67678176396E+03  0.74538075794E+03  0.17185575585E+03 0.  0.
         24    2    5    5    0    0 -0.20212746548E+03  0.13565419703E+03 -0.47556156020E+03  0.54112979579E+03  0.86052802829E+02 0.  0.
          5    1    5    5  501    0  0.44232224939E+01  0.34456207621E+02 -0.20122020376E+03  0.20425096216E+03  0.47000000000E+01 0. -1.
        -13    1    6    6    0    0 -0.13975827550E+03  0.96945960110E+02 -0.23832395738E+03  0.29279549760E+03  0.00000000000E+00 0.  1.
         14    1    6    6    0    0 -0.62369189980E+02  0.38708236918E+02 -0.23723760283E+03  0.24833429819E+03  0.00000000000E+00 0. -1.
         -5    1    3    3    0  503  0.14151497825E+03 -0.69032623955E+02 -0.53784849648E+02  0.16645387436E+03  0.47000000000E+01 0.  1.
         11    1    4    4    0    0  0.59225263876E+02 -0.23331475037E+02 -0.63098477746E+02  0.89629278154E+02  0.00000000000E+00 0. -1.
        -12    1    4    4    0    0 -0.30359991313E+01 -0.77746305658E+02 -0.88035173368E+02  0.11748998717E+03  0.00000000000E+00 0.  1.
</event>
<event>
12    1  0.1046899E+000  0.1943801E+03  0.7818608E-02  0.1154948E+00
         21   -1    0    0  501  502  0.00000000000E+00  0.00000000000E+00  0.49643573485E+02  0.49643573485E+02  0.00000000000E+00 0. -1.
         21   -1    0    0  502  503 -0.00000000000E+00 -0.00000000000E+00 -0.89884178430E+03  0.89884178430E+03  0.00000000000E+00 0.  1.
         -6    2    1    2    0  503 -0.43349575688E+02 -0.73992653834E+02 -0.61630952758E+03  0.64623606709E+03  0.17444059760E+03 0.  0.
        -24    2    3    3    0    0 -0.15765588664E+01  0.13254432222E+02 -0.41877801225E+03  0.42624100236E+03  0.78282839980E+02 0.  0.
          6    2    1    2  501    0  0.43349575688E+02  0.73992653834E+02 -0.23288868323E+03  0.30224929069E+03  0.17252071299E+03 0.  0.
         24    2    5    5    0    0  0.78397659151E+02  0.72391636912E+02 -0.22683555210E+03  0.26633742905E+03  0.89969530199E+02 0.  0.
          5    1    5    5  501    0 -0.35048083463E+02  0.16010169215E+01 -0.60531311352E+01  0.35911861636E+02  0.47000000000E+01 0. -1.
        -11    1    6    6    0    0 -0.68051201376E+01  0.50019756000E+02 -0.98428271150E+02  0.11061830867E+03  0.00000000000E+00 0.  1.
         12    1    6    6    0    0  0.85202779289E+02  0.22371880912E+02 -0.12840728095E+03  0.15571912039E+03  0.00000000000E+00 0. -1.
         -5    1    3    3    0  503 -0.41773016822E+02 -0.87247086056E+02 -0.19753151533E+03  0.21999506474E+03  0.47000000000E+01 0.  1.
         11    1    4    4    0    0 -0.20002393695E+02  0.35782723874E+02 -0.13803917187E+03  0.14399761127E+03  0.00000000000E+00 0. -1.
        -12    1    4    4    0    0  0.18425834828E+02 -0.22528291652E+02 -0.28073884038E+03  0.28224339108E+03  0.00000000000E+00 0.  1.
</event>
<event>
12    1  0.1046899E+000  0.2465573E+03  0.7818608E-02  0.1115655E+00
         21   -1    0    0  501  502  0.00000000000E+00  0.00000000000E+00  0.17136259237E+03  0.17136259237E+03  0.00000000000E+00 0. -1.
         21   -1    0    0  502  503 -0.00000000000E+00 -0.00000000000E+00 -0.54698584150E+03  0.54698584150E+03  0.00000000000E+00 0. -1.
         -6    2    1    2    0  503  0.11032187808E+03  0.13664922865E+03  0.26119443662E+02  0.24698054311E+03  0.17167770637E+03 0.  0.
        -24    2    3    3    0    0  0.58499207619E+02  0.53564343283E+02 -0.50926667977E+02  0.12229341199E+03  0.77915704067E+02 0.  0.
          6    2    1    2  501    0 -0.11032187808E+03 -0.13664922865E+03 -0.40174269279E+03  0.47136789076E+03  0.17305076930E+03 0.  0.
         24    2    5    5    0    0 -0.19943777333E+02 -0.12857301622E+03 -0.28831253667E+03  0.32603407976E+03  0.79027385204E+02 0.  0.
          5    1    5    5  501    0 -0.90378100744E+02 -0.80762124351E+01 -0.11343015612E+03  0.14533381100E+03  0.47000000000E+01 0. -1.
        -13    1    6    6    0    0 -0.31158541876E+02 -0.33376806155E+02 -0.15668958394E+03  0.16320689825E+03  0.00000000000E+00 0.  1.
         14    1    6    6    0    0  0.11214764543E+02 -0.95196210063E+02 -0.13162295273E+03  0.16282718151E+03  0.00000000000E+00 0. -1.
         -5    1    3    3    0  503  0.51822670458E+02  0.83084885370E+02  0.77046111640E+02  0.12468713113E+03  0.47000000000E+01 0.  1.
         13    1    4    4    0    0  0.16472079196E+02  0.40088894439E+02  0.12422298843E+02  0.45086165938E+02  0.00000000000E+00 0. -1.
        -14    1    4    4    0    0  0.42027128423E+02  0.13475448843E+02 -0.63348966821E+02  0.77207246048E+02  0.00000000000E+00 0.  1.
</event>
<event>
12    1  0.1046899E+000  0.2970349E+03  0.7818608E-02  0.1088099E+00
         21   -1    0    0  501  502  0.00000000000E+00  0.00000000000E+00  0.15468067008E+03  0.15468067008E+03  0.00000000000E+00 0. -1.
         21   -1    0    0  502  503 -0.00000000000E+00 -0.00000000000E+00 -0.82681057802E+03  0.82681057802E+03  0.00000000000E+00 0. -1.
         -6    2    1    2    0  503 -0.12584073779E+03  0.20653701897E+03 -0.62391589560E+03  0.69101431354E+03  0.17244217944E+03 0.  0.
        -24    2    3    3    0    0 -0.14203854793E+03  0.19897299885E+03 -0.46212990198E+03  0.52817580094E+03  0.75102776421E+02 0.  0.
          6    2    1    2  501    0  0.12584073779E+03 -0.20653701897E+03 -0.48214012335E+02  0.29047693456E+03  0.15348884988E+03 0.  0.
         24    2    5    5    0    0  0.78404460318E+02 -0.56364855494E+02  0.12093412134E+00  0.12567330550E+03  0.80433256546E+02 0.  0.
          5    1    5    5  501    0  0.47436277470E+02 -0.15017216347E+03 -0.48334946457E+02  0.16480362906E+03  0.47000000000E+01 0. -1.
        -13    1    6    6    0    0  0.88847625141E+02 -0.63341659119E+02 -0.99601009227E+01  0.10956856248E+03  0.00000000000E+00 0.  1.
         14    1    6    6    0    0 -0.10443164824E+02  0.69768036244E+01  0.10081035044E+02  0.16104743025E+02  0.00000000000E+00 0. -1.
         -5    1    3    3    0  503  0.16197810147E+02  0.75640201119E+01 -0.16178599362E+03  0.16283851260E+03  0.47000000000E+01 0.  1.
         11    1    4    4    0    0 -0.95977561797E+02  0.10853544796E+03 -0.33863196516E+03  0.36832491588E+03  0.00000000000E+00 0. -1.
        -12    1    4    4    0    0 -0.46060986137E+02  0.90437550894E+02 -0.12349793682E+03  0.15985088506E+03  0.00000000000E+00 0.  1.
</event>
<event>
12    1  0.1046899E+000  0.2534843E+03  0.7818608E-02  0.1111306E+00
         21   -1    0    0  501  502  0.00000000000E+00  0.00000000000E+00  0.31947589529E+03  0.31947589529E+03  0.00000000000E+00 0. -1.
         21   -1    0    0  502  503 -0.00000000000E+00 -0.00000000000E+00 -0.43553802168E+03  0.43553802168E+03  0.00000000000E+00 0.  1.
         -6    2    1    2    0  503  0.17335495995E+02 -0.18350912924E+03  0.21941061325E+03  0.33525405870E+03  0.17400616865E+03 0.  0.
        -24    2    3    3    0    0 -0.73406347790E+01 -0.44443753669E+02  0.15348005268E+03  0.17931490733E+03  0.81046759715E+02 0.  0.
          6    2    1    2  501    0 -0.17335495995E+02  0.18350912924E+03 -0.33547273965E+03  0.41975985827E+03  0.17227959726E+03 0.  0.
         24    2    5    5    0    0 -0.78124852394E+02  0.10616432070E+03 -0.20455652203E+03  0.25593461207E+03  0.79276726693E+02 0.  0.
          5    1    5    5  501    0  0.60789356399E+02  0.77344808537E+02 -0.13091621762E+03  0.16382524621E+03  0.47000000000E+01 0. -1.
        -11    1    6    6    0    0 -0.62494501220E+02  0.86471353895E+02 -0.20465161381E+03  0.23079241920E+03  0.00000000000E+00 0.  1.
         12    1    6    6    0    0 -0.15630351173E+02  0.19692966809E+02  0.95091774846E-01  0.25142192864E+02  0.00000000000E+00 0. -1.
         -5    1    3    3    0  503  0.24676130774E+02 -0.13906537557E+03  0.65930560577E+02  0.15593915137E+03  0.47000000000E+01 0.  1.
         13    1    4    4    0    0  0.18887708699E+02 -0.41896376804E+02  0.34537439543E+02  0.57488143642E+02  0.00000000000E+00 0. -1.
        -14    1    4    4    0    0 -0.26228343478E+02 -0.25473768648E+01  0.11894261314E+03  0.12182676368E+03  0.00000000000E+00 0.  1.
</event>
<event>
12    1  0.1046899E+000  0.1923303E+03  0.7818608E-02  0.1157002E+00
         21   -1    0    0  501  502  0.00000000000E+00  0.00000000000E+00  0.13466510827E+04  0.13466510827E+04  0.00000000000E+00 0.  1.
         21   -1    0    0  502  503 -0.00000000000E+00 -0.00000000000E+00 -0.51094121828E+02  0.51094121828E+02  0.00000000000E+00 0.  1.
         -6    2    1    2    0  503 -0.85855313846E+02 -0.14079104730E+02  0.11295015319E+04  0.11457594240E+04  0.17152723153E+03 0.  0.
        -24    2    3    3    0    0 -0.11134618593E+03  0.26137350966E+02  0.67522300586E+03  0.68896820579E+03  0.75299048546E+02 0.  0.
          6    2    1    2  501    0  0.85855313846E+02  0.14079104730E+02  0.16605542904E+03  0.25198578053E+03  0.16838370459E+03 0.  0.
         24    2    5    5    0    0  0.34576266048E+02  0.60233080175E+02  0.14496237671E+03  0.17968960464E+03  0.80316382088E+02 0.  0.
          5    1    5    5  501    0  0.51279047798E+02 -0.46153975444E+02  0.21093052326E+02  0.72296175893E+02  0.47000000000E+01 0. -1.
        -13    1    6    6    0    0  0.36635798621E+02 -0.59775756446E+01  0.72899994580E+02  0.81806615630E+02  0.00000000000E+00 0.  1.
         14    1    6    6    0    0 -0.20595325722E+01  0.66210655819E+02  0.72062382132E+02  0.97882989007E+02  0.00000000000E+00 0. -1.
         -5    1    3    3    0  503  0.25490872083E+02 -0.40216455696E+02  0.45427852599E+03  0.45679121822E+03  0.47000000000E+01 0.  1.
         11    1    4    4    0    0 -0.58777810074E+02  0.10318994593E+02  0.53601647694E+03  0.53932826383E+03  0.00000000000E+00 0. -1.
        -12    1    4    4    0    0 -0.52568375856E+02  0.15818356372E+02  0.13920652892E+03  0.14963994197E+03  0.00000000000E+00 0.  1.
</event>
<event>
12    1  0.1046899E+000  0.1750540E+03  0.7818608E-02  0.1172810E+00
         21   -1    0    0  501  502  0.00000000000E+00  0.00000000000E+00  0.86150681158E+03  0.86150681158E+03  0.00000000000E+00 0.  1.
         21   -1    0    0  502  503 -0.00000000000E+00 -0.00000000000E+00 -0.36658809311E+02  0.36658809311E+02  0.00000000000E+00 0.  1.
         -6    2    1    2    0  503  0.10393480113E+02 -0.25169704872E+02  0.49413653481E+03  0.52422782548E+03  0.17292298721E+03 0.  0.
        -24    2    3    3    0    0  0.41865794814E+02  0.38749721890E+02  0.21965513512E+03  0.24061130889E+03  0.79944592424E+02 0.  0.
          6    2    1    2  501    0 -0.10393480113E+02  0.25169704872E+02  0.33071146747E+03  0.37393779542E+03  0.17238869352E+03 0.  0.
         24    2    5    5    0    0 -0.46016298645E+02  0.46524196825E+02  0.31080890756E+03  0.32764307198E+03  0.80410229269E+02 0.  0.
          5    1    5    5  501    0  0.35622818532E+02 -0.21354491953E+02  0.19902559910E+02  0.46294723433E+02  0.47000000000E+01 0. -1.
        -11    1    6    6    0    0  0.18154638374E+02  0.20953297469E+02  0.43749008314E+02  0.51793892476E+02  0.00000000000E+00 0.  1.
         12    1    6    6    0    0 -0.64170937019E+02  0.25570899356E+02  0.26705989924E+03  0.27584917951E+03  0.00000000000E+00 0. -1.
         -5    1    3    3    0  503 -0.31472314701E+02 -0.63919426762E+02  0.27448139969E+03  0.28361651659E+03  0.47000000000E+01 0.  1.
         11    1    4    4    0    0  0.30811641735E+02  0.27000544987E+02  0.22067652192E+03  0.22444712969E+03  0.00000000000E+00 0. -1.
        -12    1    4    4    0    0  0.11054153078E+02  0.11749176903E+02 -0.10213868053E+01  0.16164179199E+02  0.00000000000E+00 0.  1.
</event>
<event>
12    1  0.1046899E+000  0.1768706E+03  0.7818608E-02  0.1171995E+00
         21   -1    0    0  503  502  0.00000000000E+00  0.00000000000E+00  0.11361300465E+03  0.11361300465E+03  0.00000000000E+00 0.  1.
         21   -1    0    0  501  503 -0.00000000000E+00 -0.00000000000E+00 -0.29567530449E+03  0.29567530449E+03  0.00000000000E+00 0.  1.
          6    2    1    2  501    0 -0.74837896705E+01  0.26339368602E+02 -0.29935491840E+02  0.17938602582E+03  0.17473821316E+03 0.  0.
         24    2    3    3    0    0  0.44419715147E+02 -0.33519301405E+02 -0.20979786003E+02  0.99515324966E+02  0.79790311579E+02 0.  0.
         -6    2    1    2    0  502  0.74837896705E+01 -0.26339368602E+02 -0.15212680799E+03  0.22990228333E+03  0.17018438448E+03 0.  0.
        -24    2    5    5    0    0  0.35801676619E+00  0.47867778334E+02 -0.10970218722E+03  0.14399875753E+03  0.80060101873E+02 0.  0.
          5    1    3    3  501    0 -0.51903504817E+02  0.59858670006E+02 -0.89557058374E+01  0.79870700850E+02  0.47000000000E+01 0. -1.
        -13    1    4    4    0    0  0.26038143845E+02 -0.87648586905E+01  0.29532826651E+02  0.40336032685E+02  0.00000000000E+00 0.  1.
         14    1    4    4    0    0  0.18381571302E+02 -0.24754442714E+02 -0.50512612654E+02  0.59179292280E+02  0.00000000000E+00 0. -1.
         -5    1    5    5    0  502  0.71257729043E+01 -0.74207146936E+02 -0.42424620775E+02  0.85903525793E+02  0.47000000000E+01 0.  1.
         13    1    6    6    0    0 -0.33069526338E+02  0.55134075354E-01 -0.26478640946E+02  0.42364077216E+02  0.00000000000E+00 0. -1.
        -14    1    6    6    0    0  0.33427543105E+02  0.47812644259E+02 -0.83223546272E+02  0.10163468032E+03  0.00000000000E+00 0.  1.
</event>
<event>
12    1  0.1046899E+000  0.2613317E+03  0.7818608E-02  0.1106475E+00
         21   -1    0    0  503  502  0.00000000000E+00  0.00000000000E+00  0.37327543764E+02  0.37327543764E+02  0.00000000000E+00 0. -1.
         21   -1    0    0  501  503 -0.00000000000E+00 -0.00000000000E+00 -0.18672100150E+04  0.18672100150E+04  0.00000000000E+00 0. -1.
          6    2    1    2  501    0  0.16999654013E+03 -0.96774056038E+02 -0.10590622299E+04  0.10906222749E+04  0.17198865725E+03 0.  0.
         24    2    3    3    0    0  0.24274670197E+02 -0.53250878371E+02 -0.57313658633E+03  0.58143178854E+03  0.78437634250E+02 0.  0.
         -6    2    1    2    0  502 -0.16999654013E+03  0.96774056038E+02 -0.77082024132E+03  0.81391528380E+03  0.17329224796E+03 0.  0.
        -24    2    5    5    0    0 -0.32647673239E+02  0.53947994326E+02 -0.45951191557E+03  0.47093751998E+03  0.81576286457E+02 0.  0.
          5    1    3    3  501    0  0.14572186993E+03 -0.43523177667E+02 -0.48592564353E+03  0.50919048638E+03  0.47000000000E+01 0. -1.
        -13    1    4    4    0    0  0.41487801400E+02 -0.18939055036E+02 -0.45350005169E+03  0.45578747498E+03  0.00000000000E+00 0.  1.
         14    1    4    4    0    0 -0.17213131202E+02 -0.34311823335E+02 -0.11963653465E+03  0.12564431355E+03  0.00000000000E+00 0. -1.
         -5    1    5    5    0  502 -0.13734886689E+03  0.42826061712E+02 -0.31130832575E+03  0.34297776383E+03  0.47000000000E+01 0.  1.
         13    1    6    6    0    0  0.26336994164E+02  0.15154453102E+02 -0.18575928741E+03  0.18822807328E+03  0.00000000000E+00 0. -1.
        -14    1    6    6    0    0 -0.58984667403E+02  0.38793541224E+02 -0.27375262816E+03  0.28270944670E+03  0.00000000000E+00 0.  1.
</event>
<event>
12    1  0.1046899E+000  0.1968159E+03  0.7818608E-02  0.1156973E+00
         21   -1    0    0  501  502  0.00000000000E+00  0.00000000000E+00  0.41666195575E+02  0.41666195575E+02  0.00000000000E+00 0. -1.
         21   -1    0    0  502  503 -0.00000000000E+00 -0.00000000000E+00 -0.90113214423E+03  0.90113214423E+03  0.00000000000E+00 0. -1.
         -6    2    1    2    0  503 -0.61552011869E+02 -0.48166440906E+01 -0.53276108614E+03  0.56138965839E+03  0.16586778896E+03 0.  0.
        -24    2    3    3    0    0 -0.52970420631E+02  0.40678713365E+02 -0.22111306599E+03  0.24628642177E+03  0.85471576668E+02 0.  0.
          6    2    1    2  501    0  0.61552011869E+02  0.48166440906E+01 -0.32670486252E+03  0.38140868142E+03  0.18688141921E+03 0.  0.
         24    2    5    5    0    0 -0.31106299765E+01 -0.63913657709E+02 -0.18332362285E+03  0.20969560235E+03  0.79183731212E+02 0.  0.
          5    1    5    5  501    0  0.64662641845E+02  0.68730301799E+02 -0.14338123967E+03  0.17171307907E+03  0.47000000000E+01 0. -1.
        -13    1    6    6    0    0  0.54948455942E+01 -0.79843401294E+02 -0.16754902409E+03  0.18568208727E+03  0.00000000000E+00 0.  1.
         14    1    6    6    0    0 -0.86054755706E+01  0.15929743585E+02 -0.15774598756E+02  0.24013515077E+02  0.00000000000E+00 0. -1.
         -5    1    3    3    0  503 -0.85815912378E+01 -0.45495357456E+02 -0.31164802015E+03  0.31510323661E+03  0.47000000000E+01 0.  1.
         13    1    4    4    0    0  0.17947788966E+01 -0.23263196464E+02 -0.62533853371E+02  0.66744890130E+02  0.00000000000E+00 0. -1.
        -14    1    4    4    0    0 -0.54765199527E+02  0.63941909829E+02 -0.15857921261E+03  0.17954153164E+03  0.00000000000E+00 0.  1.
</event>
<event>
12    1  0.1046899E+000  0.2748809E+03  0.7818608E-02  0.1098527E+00
         21   -1    0    0  501  502  0.00000000000E+00  0.00000000000E+00  0.10321133497E+04  0.10321133497E+04  0.00000000000E+00 0. -1.
         21   -1    0    0  502  503 -0.00000000000E+00 -0.00000000000E+00 -0.79406277046E+02  0.79406277046E+02  0.00000000000E+00 0. -1.
         -6    2    1    2    0  503  0.14103874671E+03 -0.16154011240E+03  0.32083763020E+03  0.42244886077E+03  0.17186948253E+03 0.  0.
        -24    2    3    3    0    0  0.22260535568E+02 -0.34260874855E+02  0.57692243701E+02  0.10689244396E+03  0.80176434214E+02 0.  0.
          6    2    1    2  501    0 -0.14103874671E+03  0.16154011240E+03  0.63186944242E+03  0.68907076595E+03  0.17196625317E+03 0.  0.
         24    2    5    5    0    0 -0.85767404475E+02  0.15352970340E+03  0.33127791630E+03  0.38329888447E+03  0.79028852399E+02 0.  0.
          5    1    5    5  501    0 -0.55271342235E+02  0.80104089995E+01  0.30059152613E+03  0.30577188148E+03  0.47000000000E+01 0. -1.
        -13    1    6    6    0    0 -0.46615575457E+02  0.35631961929E+02  0.55200591986E+02  0.80559009066E+02  0.00000000000E+00 0.  1.
         14    1    6    6    0    0 -0.39151829018E+02  0.11789774147E+03  0.27607732431E+03  0.30273987540E+03  0.00000000000E+00 0. -1.
         -5    1    3    3    0  503  0.11877821114E+03 -0.12727923755E+03  0.26314538650E+03  0.31555641681E+03  0.47000000000E+01 0.  1.
         13    1    4    4    0    0 -0.23229083449E+02  0.10645759361E+02  0.21772468477E+02  0.33570268004E+02  0.00000000000E+00 0. -1.
        -14    1    4    4    0    0  0.45489619018E+02 -0.44906634216E+02  0.35919775223E+02  0.73322175957E+02  0.00000000000E+00 0.  1.
</event>
<event>
12    1  0.1046899E+000  0.2919026E+03  0.7818608E-02  0.1089388E+00
         21   -1    0    0  501  502  0.00000000000E+00  0.00000000000E+00  0.50536375765E+03  0.50536375765E+03  0.00000000000E+00 0. -1.
         21   -1    0    0  502  503 -0.00000000000E+00 -0.00000000000E+00 -0.16856600142E+03  0.16856600142E+03  0.00000000000E+00 0. -1.
         -6    2    1    2    0  503  0.13562488179E+03  0.19338619089E+03  0.16087680094E+03  0.33329941046E+03  0.17150750579E+03 0.  0.
        -24    2    3    3    0    0  0.12514058522E+03  0.64522411830E+02  0.96289476188E+02  0.18869855795E+03  0.80698047364E+02 0.  0.
          6    2    1    2  501    0 -0.13562488179E+03 -0.19338619089E+03  0.17592095529E+03  0.34063034861E+03  0.17113890410E+03 0.  0.
         24    2    5    5    0    0 -0.97040645891E+02 -0.10655517465E+03  0.18156083815E+03  0.24532942038E+03  0.80319949941E+02 0.  0.
          5    1    5    5  501    0 -0.38584235895E+02 -0.86831016245E+02 -0.56398828597E+01  0.95300928224E+02  0.47000000000E+01 0. -1.
        -11    1    6    6    0    0 -0.41266689570E+02 -0.20844282120E+02  0.12744760258E+02  0.47956779283E+02  0.00000000000E+00 0.  1.
         12    1    6    6    0    0 -0.55773956321E+02 -0.85710892525E+02  0.16881607789E+03  0.19737264110E+03  0.00000000000E+00 0. -1.
         -5    1    3    3    0  503  0.10484296564E+02  0.12886377906E+03  0.64587324754E+02  0.14460085251E+03  0.47000000000E+01 0.  1.
         13    1    4    4    0    0  0.33763292403E+02  0.46700791513E+02  0.72490949734E+02  0.92605948163E+02  0.00000000000E+00 0. -1.
        -14    1    4    4    0    0  0.91377292818E+02  0.17821620317E+02  0.23798526455E+02  0.96092609783E+02  0.00000000000E+00 0.  1.
</event>
<event>
12    1  0.1046899E+000  0.3142960E+03  0.7818608E-02  0.1078614E+00
         21   -1    0    0  501  502  0.00000000000E+00  0.00000000000E+00  0.28318266045E+03  0.28318266045E+03  0.00000000000E+00 0. -1.
         21   -1    0    0  502  503 -0.00000000000E+00 -0.00000000000E+00 -0.34985005482E+03  0.34985005482E+03  0.00000000000E+00 0. -1.
         -6    2    1    2    0  503  0.99002772913E+02 -0.24032956229E+03  0.26782226369E-01  0.31429595865E+03  0.17669776839E+03 0.  0.
        -24    2    3    3    0    0  0.12415148192E+03 -0.24764496280E+03  0.66509134531E+01  0.28687440209E+03  0.74236580356E+02 0.  0.
          6    2    1    2  501    0 -0.99002772913E+02  0.24032956229E+03 -0.66694176598E+02  0.31873675661E+03  0.17200336994E+03 0.  0.
         24    2    5    5    0    0 -0.10049981557E+03  0.23583045155E+03 -0.18441385627E+02  0.27002428418E+03  0.82805884661E+02 0.  0.
          5    1    5    5  501    0  0.14970426605E+01  0.44991107390E+01 -0.48252790971E+02  0.48712472434E+02  0.47000000000E+01 0. -1.
        -11    1    6    6    0    0 -0.15822716743E+02  0.61466071114E+02 -0.39950646510E+02  0.74996602722E+02  0.00000000000E+00 0.  1.
         12    1    6    6    0    0 -0.84677098831E+02  0.17436438043E+03  0.21509260883E+02  0.19502768146E+03  0.00000000000E+00 0. -1.
         -5    1    3    3    0  503 -0.25148709010E+02  0.73154005139E+01 -0.66241312267E+01  0.27421556558E+02  0.47000000000E+01 0.  1.
         13    1    4    4    0    0  0.37357745744E+01 -0.33179103026E+02 -0.20879959901E+02  0.39379964636E+02  0.00000000000E+00 0. -1.
        -14    1    4    4    0    0  0.12041570735E+03 -0.21446585977E+03  0.27530873354E+02  0.24749443746E+03  0.00000000000E+00 0.  1.
</event>
<event>
12    1  0.1046899E+000  0.1895345E+03  0.7818608E-02  0.1159045E+00
         21   -1    0    0  501  502  0.00000000000E+00  0.00000000000E+00  0.57960058031E+02  0.57960058031E+02  0.00000000000E+00 0. -1.
         21   -1    0    0  502  503 -0.00000000000E+00 -0.00000000000E+00 -0.68479053744E+03  0.68479053744E+03  0.00000000000E+00 0. -1.
         -6    2    1    2    0  503  0.99413891432E+01 -0.77969048741E+02 -0.19748704440E+03  0.27372335910E+03  0.17246837632E+03 0.  0.
        -24    2    3    3    0    0 -0.61967810798E+02 -0.44312904142E+02 -0.12681559019E+03  0.16732686693E+03  0.78182117086E+02 0.  0.
          6    2    1    2  501    0 -0.99413891432E+01  0.77969048741E+02 -0.42934343500E+03  0.46902723637E+03  0.17167632189E+03 0.  0.
         24    2    5    5    0    0 -0.65950499222E+02  0.86859065225E+02 -0.24321207173E+03  0.27439160962E+03  0.65151193672E+02 0.  0.
          5    1    5    5  501    0  0.56009110079E+02 -0.88900164837E+01 -0.18613136327E+03  0.19463562675E+03  0.47000000000E+01 0. -1.
        -13    1    6    6    0    0 -0.22238728738E+02  0.36938590919E+01 -0.10417798469E+03  0.10658920276E+03  0.00000000000E+00 0.  1.
         14    1    6    6    0    0 -0.43711770484E+02  0.83165206133E+02 -0.13903408704E+03  0.16780240686E+03  0.00000000000E+00 0. -1.
         -5    1    3    3    0  503  0.71909199941E+02 -0.33656144600E+02 -0.70671454213E+02  0.10639649217E+03  0.47000000000E+01 0.  1.
         13    1    4    4    0    0 -0.48682087530E+02 -0.42114379989E+02 -0.32602091321E+02  0.72155824482E+02  0.00000000000E+00 0. -1.
        -14    1    4    4    0    0 -0.13285723268E+02 -0.21985241529E+01 -0.94213498868E+02  0.95171042445E+02  0.00000000000E+00 0.  1.
</event>
<event>
12    1  0.1046899E+000  0.2684804E+03  0.7818608E-02  0.1102211E+00
         21   -1    0    0  501  502  0.00000000000E+00  0.00000000000E+00  0.16647759865E+03  0.16647759865E+03  0.00000000000E+00 0. -1.
         21   -1    0    0  502  503 -0.00000000000E+00 -0.00000000000E+00 -0.48761113325E+03  0.48761113325E+03  0.00000000000E+00 0. -1.
         -6    2    1    2    0  503 -0.12383080549E+03 -0.16439653308E+03 -0.27058060239E+03  0.38089042447E+03  0.17176543479E+03 0.  0.
        -24    2    3    3    0    0 -0.11994192154E+03 -0.52619761428E+02 -0.12540295693E+03  0.19756609756E+03  0.78431865084E+02 0.  0.
          6    2    1    2  501    0  0.12383080549E+03  0.16439653308E+03 -0.50552932213E+02  0.27319830742E+03  0.17239903638E+03 0.  0.
         24    2    5    5    0    0  0.17736073418E+02  0.10107680649E+03  0.19700706725E+02  0.13099020733E+03  0.78988780588E+02 0.  0.
          5    1    5    5  501    0  0.10609473208E+03  0.63319726586E+02 -0.70253638938E+02  0.14220810010E+03  0.47000000000E+01 0. -1.
        -11    1    6    6    0    0  0.45080849374E+01  0.27337891477E+01 -0.22537457274E+02  0.23145915693E+02  0.00000000000E+00 0.  1.
         12    1    6    6    0    0  0.13227988480E+02  0.98343017346E+02  0.42238163999E+02  0.10784429163E+03  0.00000000000E+00 0. -1.
         -5    1    3    3    0  503 -0.38888839509E+01 -0.11177677165E+03 -0.14517764546E+03  0.18332432692E+03  0.47000000000E+01 0.  1.
         11    1    4    4    0    0 -0.41995661131E+02  0.14925001581E+02 -0.62479702789E+02  0.76747016142E+02  0.00000000000E+00 0. -1.
        -12    1    4    4    0    0 -0.77946260411E+02 -0.67544763009E+02 -0.62923254142E+02  0.12081908141E+03  0.00000000000E+00 0.  1.
</event>
<event>
12    1  0.1046899E+000  0.1796310E+03  0.7818608E-02  0.1168436E+00
         21   -1    0    0  503  502  0.00000000000E+00  0.00000000000E+00  0.26351985324E+03  0.26351985324E+03  0.00000000000E+00 0.  1.
         21   -1    0    0  501  503 -0.00000000000E+00 -0.00000000000E+00 -0.19680379989E+03  0.19680379989E+03  0.00000000000E+00 0.  1.
          6    2    1    2  501    0 -0.30598308807E+02  0.38270876445E+02  0.17562740493E+03  0.25122155319E+03  0.17281888479E+03 0.  0.
         24    2    3    3    0    0 -0.59937902137E+02 -0.30278526870E+02  0.92099645876E+02  0.13915546125E+03  0.79828292740E+02 0.  0.
         -6    2    1    2    0  502  0.30598308807E+02 -0.38270876445E+02 -0.10891135158E+03  0.20910209994E+03  0.17164232931E+03 0.  0.
        -24    2    5    5    0    0 -0.33381139329E+02  0.18050545727E+02 -0.76242983509E+02  0.11769758883E+03  0.81237966599E+02 0.  0.
          5    1    3    3  501    0  0.29339593330E+02  0.68549403315E+02  0.83527759057E+02  0.11206609195E+03  0.47000000000E+01 0. -1.
        -11    1    4    4    0    0 -0.29215888313E+02  0.26702836941E+02  0.35063349958E+02  0.52877671478E+02  0.00000000000E+00 0.  1.
         12    1    4    4    0    0 -0.30722013824E+02 -0.56981363810E+02  0.57036295918E+02  0.86277789768E+02  0.00000000000E+00 0. -1.
         -5    1    5    5    0  502  0.63979448137E+02 -0.56321422172E+02 -0.32668368076E+02  0.91404511115E+02  0.47000000000E+01 0.  1.
         13    1    6    6    0    0  0.12108463110E+02  0.26556746281E+02 -0.80755466611E+00  0.29198078643E+02  0.00000000000E+00 0. -1.
        -14    1    6    6    0    0 -0.45489602439E+02 -0.85062005543E+01 -0.75435428842E+02  0.88499510183E+02  0.00000000000E+00 0.  1.
</event>
<event>
12    1  0.1046899E+000  0.3712658E+03  0.7818608E-02  0.1054221E+00
         21   -1    0    0  503  502  0.00000000000E+00  0.00000000000E+00  0.26170410063E+03  0.26170410063E+03  0.00000000000E+00 0.  1.
         21   -1    0    0  501  503 -0.00000000000E+00 -0.00000000000E+00 -0.53458712413E+03  0.53458712413E+03  0.00000000000E+00 0.  1.
          6    2    1    2  501    0 -0.32537978927E+03 -0.49798651209E+02 -0.87588928141E+02  0.38145789488E+03  0.17171602227E+03 0.  0.
         24    2    3    3    0    0 -0.27997702986E+03 -0.48897752925E+02 -0.12670799823E+03  0.32133623635E+03  0.80149438465E+02 0.  0.
         -6    2    1    2    0  502  0.32537978927E+03  0.49798651209E+02 -0.18529409536E+03  0.41483332988E+03  0.17146683900E+03 0.  0.
        -24    2    5    5    0    0  0.19028763915E+03  0.29650916613E+02 -0.18381250856E+03  0.27815814803E+03  0.80599966157E+02 0.  0.
          5    1    3    3  501    0 -0.45402759414E+02 -0.90089828430E+00  0.39119070087E+02  0.60121658531E+02  0.47000000000E+01 0. -1.
        -13    1    4    4    0    0 -0.12821479779E+03 -0.35079773878E+02 -0.10065213232E+03  0.16673474937E+03  0.00000000000E+00 0.  1.
         14    1    4    4    0    0 -0.15176223207E+03 -0.13817979047E+02 -0.26055865910E+02  0.15460148698E+03  0.00000000000E+00 0. -1.
         -5    1    5    5    0  502  0.13509215012E+03  0.20147734596E+02 -0.14815867995E+01  0.13667518185E+03  0.47000000000E+01 0.  1.
         13    1    6    6    0    0  0.19777590755E+03  0.32959747305E+02 -0.17803295768E+03  0.26813688401E+03  0.00000000000E+00 0. -1.
        -14    1    6    6    0    0 -0.74882683980E+01 -0.33088306912E+01 -0.57795508830E+01  0.10021264020E+02  0.00000000000E+00 0.  1.
</event>
<event>
12    1  0.1046899E+000  0.1745605E+03  0.7818608E-02  0.1173314E+00
         21   -1    0    0  503  502  0.00000000000E+00  0.00000000000E+00  0.65715898999E+02  0.65715898999E+02  0.00000000000E+00 0.  1.
         21   -1    0    0  501  503 -0.00000000000E+00 -0.00000000000E+00 -0.50282451386E+03  0.50282451386E+03  0.00000000000E+00 0.  1.
          6    2    1    2  501    0 -0.19367758469E+02  0.20098153789E+01 -0.13808165417E+03  0.22257115616E+03  0.17347111261E+03 0.  0.
         24    2    3    3    0    0  0.14012370220E+02 -0.22638081217E+02 -0.15539379378E+03  0.17736549306E+03  0.81255509010E+02 0.  0.
         -6    2    1    2    0  502  0.19367758469E+02 -0.20098153789E+01 -0.29902696069E+03  0.34596925670E+03  0.17291169404E+03 0.  0.
        -24    2    5    5    0    0  0.55789379979E+02 -0.42770417767E+02 -0.25087830850E+03  0.27297375048E+03  0.81443104201E+02 0.  0.
          5    1    3    3  501    0 -0.33380128689E+02  0.24647896596E+02  0.17312139608E+02  0.45205663093E+02  0.47000000000E+01 0. -1.
        -13    1    4    4    0    0  0.29099111780E+02  0.21989445822E+02 -0.49687642449E+02  0.61637292657E+02  0.00000000000E+00 0.  1.
         14    1    4    4    0    0 -0.15086741560E+02 -0.44627527039E+02 -0.10570615133E+03  0.11572820041E+03  0.00000000000E+00 0. -1.
         -5    1    5    5    0  502 -0.36421621510E+02  0.40760602389E+02 -0.48148652185E+02  0.72995506216E+02  0.47000000000E+01 0.  1.
         11    1    6    6    0    0  0.22463796323E+02 -0.46631596873E+02 -0.22423822875E+03  0.23013455022E+03  0.00000000000E+00 0. -1.
        -12    1    6    6    0    0  0.33325583656E+02  0.38611791052E+01 -0.26640079754E+02  0.42839200265E+02  0.00000000000E+00 0.  1.
</event>
<event>
12    1  0.1046899E+000  0.2889276E+03  0.7818608E-02  0.1090937E+00
         21   -1    0    0  503  502  0.00000000000E+00  0.00000000000E+00  0.15060972899E+03  0.15060972899E+03  0.00000000000E+00 0.  1.
         21   -1    0    0  501  503 -0.00000000000E+00 -0.00000000000E+00 -0.62223446525E+03  0.62223446525E+03  0.00000000000E+00 0.  1.
          6    2    1    2  501    0  0.10412314762E+03  0.20787215794E+03 -0.10781259062E+03  0.30838725278E+03  0.17154206208E+03 0.  0.
         24    2    3    3    0    0  0.16343423694E+02  0.38352258077E+02  0.10939716615E+02  0.83517341819E+02  0.71536464738E+02 0.  0.
         -6    2    1    2    0  502 -0.10412314762E+03 -0.20787215794E+03 -0.36381214564E+03  0.46445694146E+03  0.17119728164E+03 0.  0.
        -24    2    5    5    0    0 -0.42328371311E+02 -0.18420689785E+03 -0.31954338643E+03  0.38470449977E+03  0.10082511640E+03 0.  0.
          5    1    3    3  501    0  0.87779723926E+02  0.16951989986E+03 -0.11875230723E+03  0.22486991096E+03  0.47000000000E+01 0. -1.
        -13    1    4    4    0    0  0.28154334585E+02  0.55019267230E+02  0.12405752191E+02  0.63037203379E+02  0.00000000000E+00 0.  1.
         14    1    4    4    0    0 -0.11810910892E+02 -0.16667009153E+02 -0.14660355759E+01  0.20480138440E+02  0.00000000000E+00 0. -1.
         -5    1    5    5    0  502 -0.61794776308E+02 -0.23665260086E+02 -0.44268759209E+02  0.79752441692E+02  0.47000000000E+01 0.  1.
         13    1    6    6    0    0  0.15822299406E+02 -0.19674056432E+02 -0.61248796716E+01  0.25979372702E+02  0.00000000000E+00 0. -1.
        -14    1    6    6    0    0 -0.58150670717E+02 -0.16453284142E+03 -0.31341850676E+03  0.35872512707E+03  0.00000000000E+00 0.  1.
</event>
<event>
12    1  0.1046899E+000  0.3206801E+03  0.7818608E-02  0.1075406E+00
         21   -1    0    0  503  502  0.00000000000E+00  0.00000000000E+00  0.13185166486E+03  0.13185166486E+03  0.00000000000E+00 0. -1.
         21   -1    0    0  501  503 -0.00000000000E+00 -0.00000000000E+00 -0.80533282372E+03  0.80533282372E+03  0.00000000000E+00 0.  1.
          6    2    1    2  501    0  0.26463780532E+03  0.55776092164E+02 -0.42263720132E+03  0.53052610479E+03  0.17231251683E+03 0.  0.
         24    2    3    3    0    0  0.13705315127E+03  0.91943894309E+02 -0.31098403446E+03  0.35710617072E+03  0.59803858612E+02 0.  0.
         -6    2    1    2    0  502 -0.26463780532E+03 -0.55776092164E+02 -0.25084395754E+03  0.40665838379E+03  0.17118472365E+03 0.  0.
        -24    2    5    5    0    0 -0.80526638315E+02 -0.40620185484E+02 -0.40671262544E+02  0.12679899938E+03  0.79305079905E+02 0.  0.
          5    1    3    3  501    0  0.12758465405E+03 -0.36167802144E+02 -0.11165316687E+03  0.17341993407E+03  0.47000000000E+01 0. -1.
        -11    1    4    4    0    0  0.12617114254E+03  0.56154308415E+02 -0.24206318519E+03  0.27868808584E+03  0.00000000000E+00 0.  1.
         12    1    4    4    0    0  0.10882008722E+02  0.35789585894E+02 -0.68920849267E+02  0.78418084879E+02  0.00000000000E+00 0. -1.
         -5    1    5    5    0  502 -0.18411116700E+03 -0.15155906680E+02 -0.21017269500E+03  0.27985938441E+03  0.47000000000E+01 0.  1.
         13    1    6    6    0    0 -0.69141054265E+01  0.17619333984E+02  0.85983752449E+01  0.20788887434E+02  0.00000000000E+00 0. -1.
        -14    1    6    6    0    0 -0.73612532888E+02 -0.58239519468E+02 -0.49269637789E+02  0.10601011194E+03  0.00000000000E+00 0.  1.
</event>
<event>
12    1  0.1046899E+000  0.1803150E+03  0.7818608E-02  0.1167596E+00
         21   -1    0    0  501  502  0.00000000000E+00  0.00000000000E+00  0.13776881652E+04  0.13776881652E+04  0.00000000000E+00 0. -1.
         21   -1    0    0  502  503 -0.00000000000E+00 -0.00000000000E+00 -0.23837343677E+02  0.23837343677E+02  0.00000000000E+00 0. -1.
         -6    2    1    2    0  503  0.56949637666E+02 -0.85907890331E+01  0.75347489170E+03  0.77465651242E+03  0.17044423406E+03 0.  0.
        -24    2    3    3    0    0 -0.74528002452E+01 -0.41606742832E+02  0.24411538439E+03  0.26015974382E+03  0.79398401284E+02 0.  0.
          6    2    1    2  501    0 -0.56949637666E+02  0.85907890331E+01  0.60037592985E+03  0.62686899649E+03  0.17086959567E+03 0.  0.
         24    2    5    5    0    0 -0.96872273286E+02  0.35291702986E+02  0.40132598061E+03  0.42205266918E+03  0.80225751561E+02 0.  0.
          5    1    5    5  501    0  0.39922635621E+02 -0.26700913953E+02  0.19904994924E+03  0.20481632731E+03  0.47000000000E+01 0. -1.
        -11    1    6    6    0    0 -0.77086760520E+02 -0.10905106717E+02  0.20186383685E+03  0.21635687793E+03  0.00000000000E+00 0.  1.
         12    1    6    6    0    0 -0.19785512766E+02  0.46196809703E+02  0.19946214376E+03  0.20569579124E+03  0.00000000000E+00 0. -1.
         -5    1    3    3    0  503  0.64402437911E+02  0.33015953799E+02  0.50935950730E+03  0.51449676860E+03  0.47000000000E+01 0.  1.
         11    1    4    4    0    0 -0.38728430548E+02 -0.19657481603E+01  0.90485103335E+02  0.98444448416E+02  0.00000000000E+00 0. -1.
        -12    1    4    4    0    0  0.31275630302E+02 -0.39640994672E+02  0.15363028106E+03  0.16171529540E+03  0.00000000000E+00 0.  1.
</event>
<event>
12    1  0.1046899E+000  0.3064884E+03  0.7818608E-02  0.1082200E+00
         21   -1    0    0  501  502  0.00000000000E+00  0.00000000000E+00  0.14205824286E+04  0.14205824286E+04  0.00000000000E+00 0. -1.
         21   -1    0    0  502  503 -0.00000000000E+00 -0.00000000000E+00 -0.10099383710E+03  0.10099383710E+03  0.00000000000E+00 0. -1.
         -6    2    1    2    0  503  0.52557760541E+02  0.24658963626E+03  0.21006068678E+03  0.37049533848E+03  0.17196667352E+03 0.  0.
        -24    2    3    3    0    0 -0.61130811710E+01  0.40513769589E+02  0.73337853535E+02  0.11628134669E+03  0.80400096638E+02 0.  0.
          6    2    1    2  501    0 -0.52557760541E+02 -0.24658963626E+03  0.11095279047E+04  0.11510809272E+04  0.17425946960E+03 0.  0.
         24    2    5    5    0    0 -0.91668863657E+02 -0.15272785971E+03  0.60349619909E+03  0.63491245803E+03  0.84718282234E+02 0.  0.
          5    1    5    5  501    0  0.39111103116E+02 -0.93861776548E+02  0.50603170563E+03  0.51616846919E+03  0.47000000000E+01 0. -1.
        -13    1    6    6    0    0  0.31825626118E+01 -0.68529941567E+02  0.17247516950E+03  0.18561833339E+03  0.00000000000E+00 0.  1.
         14    1    6    6    0    0 -0.94851426268E+02 -0.84197918147E+02  0.43102102959E+03  0.44929412464E+03  0.00000000000E+00 0. -1.
         -5    1    3    3    0  503  0.58670841712E+02  0.20607586667E+03  0.13672283324E+03  0.25421399179E+03  0.47000000000E+01 0.  1.
         13    1    4    4    0    0  0.13226973766E+02 -0.21432517853E+02  0.23644074245E+02  0.34544867975E+02  0.00000000000E+00 0. -1.
        -14    1    4    4    0    0 -0.19340054937E+02  0.61946287442E+02  0.49693779290E+02  0.81736478716E+02  0.00000000000E+00 0.  1.
</event>
<event>
12    1  0.1046899E+000  0.1911446E+03  0.7818608E-02  0.1157567E+00
         21   -1    0    0  503  502  0.00000000000E+00  0.00000000000E+00  0.62008521208E+02  0.62008521208E+02  0.00000000000E+00 0. -1.
         21   -1    0    0  501  503 -0.00000000000E+00 -0.00000000000E+00 -0.60788945426E+03  0.60788945426E+03  0.00000000000E+00 0. -1.
          6    2    1    2  501    0  0.44025275942E+02 -0.69274762708E+02 -0.21099102019E+03  0.28429778002E+03  0.17196162204E+03 0.  0.
         24    2    3    3    0    0  0.45383343954E+02  0.22879507063E+02 -0.70754658639E+02  0.11642109645E+03  0.77230371147E+02 0.  0.
         -6    2    1    2    0  502 -0.44025275942E+02  0.69274762708E+02 -0.33488991286E+03  0.38560019545E+03  0.17262398247E+03 0.  0.
        -24    2    5    5    0    0 -0.87726174202E+02  0.69808204105E+02 -0.29865209829E+03  0.32863246534E+03  0.78975657409E+02 0.  0.
          5    1    3    3  501    0 -0.13580680126E+01 -0.92154269771E+02 -0.14023636156E+03  0.16787668357E+03  0.47000000000E+01 0. -1.
        -13    1    4    4    0    0  0.24645748579E+02  0.30148333805E+02 -0.82700357220E+02  0.91409430796E+02  0.00000000000E+00 0.  1.
         14    1    4    4    0    0  0.20737595376E+02 -0.72688267421E+01  0.11945698581E+02  0.25011665653E+02  0.00000000000E+00 0. -1.
         -5    1    5    5    0  502  0.43700898260E+02 -0.53344139646E+00 -0.36237814572E+02  0.56967730106E+02  0.47000000000E+01 0.  1.
         13    1    6    6    0    0 -0.85119738331E+02  0.63111308418E+02 -0.30247059506E+03  0.32049472380E+03  0.00000000000E+00 0. -1.
        -14    1    6    6    0    0 -0.26064358711E+01  0.66968956866E+01  0.38184967757E+01  0.81377415426E+01  0.00000000000E+00 0.  1.
</event>
<event>
12    1  0.1046899E+000  0.1984596E+03  0.7818608E-02  0.1151298E+00
         21   -1    0    0  503  502  0.00000000000E+00  0.00000000000E+00  0.98555683398E+02  0.98555683398E+02  0.00000000000E+00 0. -1.
         21   -1    0    0  501  503 -0.00000000000E+00 -0.00000000000E+00 -0.41359210931E+03  0.41359210931E+03  0.00000000000E+00 0. -1.
          6    2    1    2  501    0 -0.86963394481E+02  0.43949320143E+02 -0.10708217865E+03  0.22550567161E+03  0.17289314684E+03 0.  0.
         24    2    3    3    0    0 -0.45981130948E+02  0.37782476589E+02  0.13557218025E+02  0.97859559591E+02  0.76491275988E+02 0.  0.
         -6    2    1    2    0  502  0.86963394481E+02 -0.43949320143E+02 -0.20795424726E+03  0.28664212110E+03  0.17153589103E+03 0.  0.
        -24    2    5    5    0    0  0.24909247364E+02 -0.52821651659E+02 -0.20016106063E+03  0.22329972456E+03  0.79923208829E+02 0.  0.
          5    1    3    3  501    0 -0.40982263533E+02  0.61668435534E+01 -0.12063939668E+03  0.12764611202E+03  0.47000000000E+01 0. -1.
        -11    1    4    4    0    0 -0.31883818608E+02 -0.11111049232E+02  0.29183952341E+02  0.44628873818E+02  0.00000000000E+00 0.  1.
         12    1    4    4    0    0 -0.14097312340E+02  0.48893525821E+02 -0.15626734316E+02  0.53230685772E+02  0.00000000000E+00 0. -1.
         -5    1    5    5    0  502  0.62054147117E+02  0.88723315161E+01 -0.77931866323E+01  0.63342396535E+02  0.47000000000E+01 0.  1.
         11    1    6    6    0    0 -0.21991946198E+02  0.43666130973E+00 -0.86915636416E+02  0.89655809763E+02  0.00000000000E+00 0. -1.
        -12    1    6    6    0    0  0.46901193562E+02 -0.53258312969E+02 -0.11324542421E+03  0.13364391480E+03  0.00000000000E+00 0.  1.
</event>
<event>
12    1  0.1046899E+000  0.1715827E+03  0.7818608E-02  0.1176228E+00
         21   -1    0    0  503  502  0.00000000000E+00  0.00000000000E+00  0.37098999761E+03  0.37098999761E+03  0.00000000000E+00 0.  1.
         21   -1    0    0  501  503 -0.00000000000E+00 -0.00000000000E+00 -0.95262651805E+02  0.95262651805E+02  0.00000000000E+00 0.  1.
          6    2    1    2  501    0 -0.15391588599E+02  0.23710230954E+01  0.42520449398E+02  0.17677280867E+03  0.17087455784E+03 0.  0.
         24    2    3    3    0    0 -0.13779109680E+02  0.47437746021E+02  0.75713973601E+02  0.12058108639E+03  0.79793414424E+02 0.  0.
         -6    2    1    2    0  502  0.15391588599E+02 -0.23710230954E+01  0.23320689641E+03  0.28947984075E+03  0.17079402483E+03 0.  0.
        -24    2    5    5    0    0  0.55810924573E+02  0.46543930279E+02  0.15188759253E+03  0.18622619884E+03  0.79556015624E+02 0.  0.
          5    1    3    3  501    0 -0.16124789194E+01 -0.45066722926E+02 -0.33193524203E+02  0.56191722278E+02  0.47000000000E+01 0. -1.
        -11    1    4    4    0    0  0.21973174613E+02  0.45751942661E+02  0.66437975322E+02  0.83606609934E+02  0.00000000000E+00 0.  1.
         12    1    4    4    0    0 -0.35752284292E+02  0.16858033599E+01  0.92759982788E+01  0.36974476455E+02  0.00000000000E+00 0. -1.
         -5    1    5    5    0  502 -0.40419335974E+02 -0.48914953375E+02  0.81319303880E+02  0.10325364191E+03  0.47000000000E+01 0.  1.
         11    1    6    6    0    0  0.29901341369E+02  0.77810218983E+01  0.13194709111E+03  0.13551630666E+03  0.00000000000E+00 0. -1.
        -12    1    6    6    0    0  0.25909583204E+02  0.38762908381E+02  0.19940501414E+02  0.50709892177E+02  0.00000000000E+00 0.  1.
</event>
<event>
12    1  0.1046899E+000  0.4101057E+03  0.7818608E-02  0.1040400E+00
         21   -1    0    0  501  502  0.00000000000E+00  0.00000000000E+00  0.74358033540E+03  0.74358033540E+03  0.00000000000E+00 0. -1.
         21   -1    0    0  502  503 -0.00000000000E+00 -0.00000000000E+00 -0.23664653286E+03  0.23664653286E+03  0.00000000000E+00 0. -1.
         -6    2    1    2    0  503 -0.13142127215E+03  0.34809720461E+03  0.35881558684E+03  0.54491772881E+03  0.17246301396E+03 0.  0.
        -24    2    3    3    0    0 -0.62143722576E+02  0.72948553166E+02  0.15553243830E+03  0.19584425840E+03  0.70578328972E+02 0.  0.
          6    2    1    2  501    0  0.13142127215E+03 -0.34809720461E+03  0.14811821570E+03  0.43530913945E+03  0.17062188146E+03 0.  0.
         24    2    5    5    0    0  0.12198081231E+03 -0.16324373279E+03  0.12208377389E+03  0.24833371195E+03  0.72369536261E+02 0.  0.
          5    1    5    5  501    0  0.94404598396E+01 -0.18485347182E+03  0.26034441810E+02  0.18697542749E+03  0.47000000000E+01 0. -1.
        -11    1    6    6    0    0  0.11336968922E+02 -0.36940249972E+02 -0.32875688321E+01  0.38780369276E+02  0.00000000000E+00 0.  1.
         12    1    6    6    0    0  0.11064384339E+03 -0.12630348281E+03  0.12537134272E+03  0.20955334268E+03  0.00000000000E+00 0. -1.
         -5    1    3    3    0  503 -0.69277549574E+02  0.27514865144E+03  0.20328314854E+03  0.34907347041E+03  0.47000000000E+01 0.  1.
         11    1    4    4    0    0 -0.39509348191E+02  0.10540745469E+02  0.21330185130E+02  0.46120198473E+02  0.00000000000E+00 0. -1.
        -12    1    4    4    0    0 -0.22634374385E+02  0.62407807697E+02  0.13420225317E+03  0.14972405993E+03  0.00000000000E+00 0.  1.
</event>
<event>
12    1  0.1046899E+000  0.1764523E+03  0.7818608E-02  0.1172026E+00
         21   -1    0    0  503  502  0.00000000000E+00  0.00000000000E+00  0.11216576270E+03  0.11216576270E+03  0.00000000000E+00 0.  1.
         21   -1    0    0  501  503 -0.00000000000E+00 -0.00000000000E+00 -0.62099553454E+03  0.62099553454E+03  0.00000000000E+00 0.  1.
          6    2    1    2  501    0  0.72358535514E+00  0.41243241026E+02  0.19076920480E+02  0.17748049939E+03  0.17156302125E+03 0.  0.
         24    2    3    3    0    0  0.12553458867E+02  0.76671859053E+02  0.55844106242E+02  0.12485874693E+03  0.80218321992E+02 0.  0.
         -6    2    1    2    0  502 -0.72358535514E+00 -0.41243241026E+02 -0.52790669232E+03  0.55568079785E+03  0.16850562245E+03 0.  0.
        -24    2    5    5    0    0  0.64038928111E+01 -0.90249378310E+02 -0.41890196815E+03  0.43586209176E+03  0.79441450075E+02 0.  0.
          5    1    3    3  501    0 -0.11829873512E+02 -0.35428618027E+02 -0.36767185761E+02  0.52621752455E+02  0.47000000000E+01 0. -1.
        -11    1    4    4    0    0  0.37260945971E+02  0.65751494044E+02  0.16865060420E+02  0.77434277466E+02  0.00000000000E+00 0.  1.
         12    1    4    4    0    0 -0.24707487104E+02  0.10920365009E+02  0.38979045821E+02  0.47424469465E+02  0.00000000000E+00 0. -1.
         -5    1    5    5    0  502 -0.71274781662E+01  0.49006137284E+02 -0.10900472417E+03  0.11981870609E+03  0.47000000000E+01 0.  1.
         11    1    6    6    0    0  0.20341567699E+02  0.40970105979E+00 -0.29718728019E+02  0.36015969049E+02  0.00000000000E+00 0. -1.
        -12    1    6    6    0    0 -0.13937674888E+02 -0.90659079370E+02 -0.38918324013E+03  0.39984612271E+03  0.00000000000E+00 0.  1.
</event>
<event>
12    1  0.1046899E+000  0.1932602E+03  0.7818608E-02  0.1155643E+00
         21   -1    0    0  503  502  0.00000000000E+00  0.00000000000E+00  0.73485964044E+02  0.73485964044E+02  0.00000000000E+00 0. -1.
         21   -1    0    0  501  503 -0.00000000000E+00 -0.00000000000E+00 -0.60092884055E+03  0.60092884055E+03  0.00000000000E+00 0. -1.
          6    2    1    2  501    0  0.12053873197E+02 -0.87400952253E+02 -0.39713988636E+03  0.44166681918E+03  0.17194553648E+03 0.  0.
         24    2    3    3    0    0  0.66906007289E+02 -0.92298414542E+02 -0.29301283374E+03  0.32378011578E+03  0.77341007890E+02 0.  0.
         -6    2    1    2    0  502 -0.12053873197E+02  0.87400952253E+02 -0.13030299014E+03  0.23274798541E+03  0.17148916338E+03 0.  0.
        -24    2    5    5    0    0  0.18855067386E+02  0.39025981674E+00 -0.12229838108E+02  0.82782714637E+02  0.79672724528E+02 0.  0.
          5    1    3    3  501    0 -0.54852134091E+02  0.48974622894E+01 -0.10412705262E+03  0.11788670340E+03  0.47000000000E+01 0. -1.
        -11    1    4    4    0    0  0.22995475104E+02 -0.83324576039E+02 -0.23552643447E+03  0.25088738147E+03  0.00000000000E+00 0.  1.
         12    1    4    4    0    0  0.43910532185E+02 -0.89738385029E+01 -0.57486399266E+02  0.72892734308E+02  0.00000000000E+00 0. -1.
         -5    1    5    5    0  502 -0.30908940583E+02  0.87010692436E+02 -0.11807315204E+03  0.14996527077E+03  0.47000000000E+01 0.  1.
         11    1    6    6    0    0  0.74801849329E+01 -0.35259896885E+02 -0.24291517200E+02  0.43465978682E+02  0.00000000000E+00 0. -1.
        -12    1    6    6    0    0  0.11374882453E+02  0.35650156701E+02  0.12061679091E+02  0.39316735955E+02  0.00000000000E+00 0.  1.
</event>
<event>
12    1  0.1046899E+000  0.1740519E+03  0.7818608E-02  0.1173929E+00
         21   -1    0    0  501  502  0.00000000000E+00  0.00000000000E+00  0.65805664113E+02  0.65805664113E+02  0.00000000000E+00 0. -1.
         21   -1    0    0  502  503 -0.00000000000E+00 -0.00000000000E+00 -0.48470544387E+03  0.48470544387E+03  0.00000000000E+00 0. -1.
         -6    2    1    2    0  503 -0.20510211570E+02  0.11636978233E+02 -0.14409875601E+03  0.22522713961E+03  0.17148389106E+03 0.  0.
        -24    2    3    3    0    0  0.13120829198E+02 -0.80374302806E+01 -0.16236992402E+03  0.18193678463E+03  0.80624096458E+02 0.  0.
          6    2    1    2  501    0  0.20510211570E+02 -0.11636978233E+02 -0.27480102374E+03  0.32528396837E+03  0.17244700458E+03 0.  0.
         24    2    5    5    0    0 -0.44405646499E+01 -0.31378863750E+02 -0.52733262424E+02  0.10089933455E+03  0.79972039126E+02 0.  0.
          5    1    5    5  501    0  0.24950776220E+02  0.19741885518E+02 -0.22206776132E+03  0.22438463382E+03  0.47000000000E+01 0. -1.
        -11    1    6    6    0    0 -0.26267089840E+01 -0.78474449501E+00 -0.67026383233E+02  0.67082422984E+02  0.00000000000E+00 0.  1.
         12    1    6    6    0    0 -0.18138556659E+01 -0.30594119255E+02  0.14293120809E+02  0.33816911566E+02  0.00000000000E+00 0. -1.
         -5    1    3    3    0  503 -0.33631040768E+02  0.19674408514E+02  0.18271168014E+02  0.43290354978E+02  0.47000000000E+01 0.  1.
         13    1    4    4    0    0  0.45097722008E+02  0.84218819079E+01 -0.84095932648E+02  0.95795921171E+02  0.00000000000E+00 0. -1.
        -14    1    4    4    0    0 -0.31976892810E+02 -0.16459312188E+02 -0.78273991376E+02  0.86140863459E+02  0.00000000000E+00 0.  1.
</event>
<event>
12    1  0.1046899E+000  0.3126376E+03  0.7818608E-02  0.1079228E+00
         21   -1    0    0  501  502  0.00000000000E+00  0.00000000000E+00  0.17039075509E+03  0.17039075509E+03  0.00000000000E+00 0.  1.
         21   -1    0    0  502  503 -0.00000000000E+00 -0.00000000000E+00 -0.65951514888E+03  0.65951514888E+03  0.00000000000E+00 0.  1.
         -6    2    1    2    0  503 -0.26086154054E+03  0.46945090619E+01 -0.92557280436E+02  0.32492297508E+03  0.17010969351E+03 0.  0.
        -24    2    3    3    0    0 -0.22415039142E+03 -0.43883363901E+02 -0.42187829808E+02  0.24576054859E+03  0.80307450820E+02 0.  0.
          6    2    1    2  501    0  0.26086154054E+03 -0.46945090619E+01 -0.39656711335E+03  0.50498292889E+03  0.17225417651E+03 0.  0.
         24    2    5    5    0    0  0.10424019855E+03  0.29705844794E+02 -0.10438437909E+03  0.17165655832E+03  0.82591883426E+02 0.  0.
          5    1    5    5  501    0  0.15662134198E+03 -0.34400353856E+02 -0.29218273427E+03  0.33332637056E+03  0.47000000000E+01 0. -1.
        -11    1    6    6    0    0 -0.30082760610E+01 -0.17782245677E+02 -0.75276991202E+01  0.19542882085E+02  0.00000000000E+00 0.  1.
         12    1    6    6    0    0  0.10724847461E+03  0.47488090470E+02 -0.96856679969E+02  0.15211367624E+03  0.00000000000E+00 0. -1.
         -5    1    3    3    0  503 -0.36711149113E+02  0.48577872963E+02 -0.50369450627E+02  0.79162426487E+02  0.47000000000E+01 0.  1.
         11    1    4    4    0    0 -0.95819565746E+02 -0.72539010762E+01  0.20592357323E+02  0.98275395907E+02  0.00000000000E+00 0. -1.
        -12    1    4    4    0    0 -0.12833082568E+03 -0.36629462825E+02 -0.62780187131E+02  0.14748515268E+03  0.00000000000E+00 0.  1.
</event>
<event>
12    1  0.1046899E+000  0.2066142E+03  0.7818608E-02  0.1145309E+00
         21   -1    0    0  503  502  0.00000000000E+00  0.00000000000E+00  0.30166199721E+03  0.30166199721E+03  0.00000000000E+00 0.  1.
         21   -1    0    0  501  503 -0.00000000000E+00 -0.00000000000E+00 -0.18658828999E+03  0.18658828999E+03  0.00000000000E+00 0.  1.
          6    2    1    2  501    0 -0.82129653103E+02 -0.61892745531E+02  0.18252748197E+03  0.27569133525E+03  0.17920222876E+03 0.  0.
         24    2    3    3    0    0 -0.39422851170E+02  0.36321452266E+01  0.25259557610E+02  0.99985125145E+02  0.88270189341E+02 0.  0.
         -6    2    1    2    0  502  0.82129653103E+02  0.61892745531E+02 -0.67453774740E+02  0.21255895195E+03  0.17336465747E+03 0.  0.
        -24    2    5    5    0    0  0.56977960868E+01 -0.33780975607E+02 -0.33222140046E+02  0.85322225735E+02  0.70728724165E+02 0.  0.
          5    1    3    3  501    0 -0.42706801933E+02 -0.65524890758E+02  0.15726792435E+03  0.17570621011E+03  0.47000000000E+01 0. -1.
        -13    1    4    4    0    0 -0.14369779139E+02 -0.31246081571E+02 -0.18180532098E+02  0.38901669802E+02  0.00000000000E+00 0.  1.
         14    1    4    4    0    0 -0.25053072030E+02  0.34878226798E+02  0.43440089708E+02  0.61083455342E+02  0.00000000000E+00 0. -1.
         -5    1    5    5    0  502  0.76431857016E+02  0.95673721138E+02 -0.34231634694E+02  0.12723672621E+03  0.47000000000E+01 0.  1.
         11    1    6    6    0    0  0.20225314307E+02  0.80063197641E+00 -0.42156214155E+02  0.46763775962E+02  0.00000000000E+00 0. -1.
        -12    1    6    6    0    0 -0.14527518220E+02 -0.34581607583E+02  0.89340741092E+01  0.38558449773E+02  0.00000000000E+00 0.  1.
</event>
<event>
12    1  0.1046899E+000  0.1802012E+03  0.7818608E-02  0.1167976E+00
         21   -1    0    0  503  502  0.00000000000E+00  0.00000000000E+00  0.30477090070E+03  0.30477090070E+03  0.00000000000E+00 0. -1.
         21   -1    0    0  501  503 -0.00000000000E+00 -0.00000000000E+00 -0.10575325949E+03  0.10575325949E+03  0.00000000000E+00 0. -1.
          6    2    1    2  501    0 -0.40614399941E+02  0.34376633730E+02  0.92787672631E+02  0.20134178763E+03  0.17058042333E+03 0.  0.
         24    2    3    3    0    0 -0.38712888616E+02 -0.42373570817E+02  0.36087742142E+02  0.10578457042E+03  0.81202481221E+02 0.  0.
         -6    2    1    2    0  502  0.40614399941E+02 -0.34376633730E+02  0.10622996857E+03  0.20918237256E+03  0.17216613006E+03 0.  0.
        -24    2    5    5    0    0  0.19340416371E+02 -0.18382058021E+02  0.14112247873E+03  0.16504637711E+03  0.81319129553E+02 0.  0.
          5    1    3    3  501    0 -0.19015113246E+01  0.76750204546E+02  0.56699930489E+02  0.95557217209E+02  0.47000000000E+01 0. -1.
        -13    1    4    4    0    0  0.16029698895E+02 -0.32945742158E+02  0.34329219771E+02  0.50208251345E+02  0.00000000000E+00 0.  1.
         14    1    4    4    0    0 -0.54742587511E+02 -0.94278286586E+01  0.17585223714E+01  0.55576319072E+02  0.00000000000E+00 0. -1.
         -5    1    5    5    0  502  0.21273983570E+02 -0.15994575709E+02 -0.34892510164E+02  0.44135995452E+02  0.47000000000E+01 0.  1.
         13    1    6    6    0    0 -0.57929318592E+00 -0.32629924663E+02  0.13872662957E+02  0.35461223071E+02  0.00000000000E+00 0. -1.
        -14    1    6    6    0    0  0.19919709556E+02  0.14247866642E+02  0.12724981578E+03  0.12958515404E+03  0.00000000000E+00 0.  1.
</event>
<event>
12    1  0.1046899E+000  0.2229259E+03  0.7818608E-02  0.1132276E+00
         21   -1    0    0  501  502  0.00000000000E+00  0.00000000000E+00  0.17859361386E+03  0.17859361386E+03  0.00000000000E+00 0. -1.
         21   -1    0    0  502  503 -0.00000000000E+00 -0.00000000000E+00 -0.27584241323E+03  0.27584241323E+03  0.00000000000E+00 0. -1.
         -6    2    1    2    0  503 -0.73852221808E+02  0.11715137182E+03 -0.33210933696E+02  0.22538616435E+03  0.17469219324E+03 0.  0.
        -24    2    3    3    0    0 -0.41904070508E+02  0.92980125012E+01  0.26061263945E+02  0.98152855423E+02  0.84334983179E+02 0.  0.
          6    2    1    2  501    0  0.73852221808E+02 -0.11715137182E+03 -0.64037865668E+02  0.22904986274E+03  0.17083441339E+03 0.  0.
         24    2    5    5    0    0  0.99278445060E+02 -0.98879130548E+02 -0.48787543138E+01  0.16195099475E+03  0.81061892063E+02 0.  0.
          5    1    5    5  501    0 -0.25426223252E+02 -0.18272241268E+02 -0.59159111354E+02  0.67098867993E+02  0.47000000000E+01 0. -1.
        -11    1    6    6    0    0  0.59813418187E+02 -0.77563878959E+02 -0.39171387480E+02  0.10549027401E+03  0.00000000000E+00 0.  1.
         12    1    6    6    0    0  0.39465026873E+02 -0.21315251589E+02  0.34292633166E+02  0.56460720735E+02  0.00000000000E+00 0. -1.
         -5    1    3    3    0  503 -0.31948151300E+02  0.10785335931E+03 -0.59272197641E+02  0.12723330893E+03  0.47000000000E+01 0.  1.
         13    1    4    4    0    0 -0.46042661926E+02  0.33694875530E+01 -0.20872827999E+02  0.50665127181E+02  0.00000000000E+00 0. -1.
        -14    1    4    4    0    0  0.41385914184E+01  0.59285249482E+01  0.46934091944E+02  0.47487728242E+02  0.00000000000E+00 0.  1.
</event>
<event>
12    1  0.1046899E+000  0.1781492E+03  0.7818608E-02  0.1169848E+00
         21   -1    0    0  503  502  0.00000000000E+00  0.00000000000E+00  0.89480150867E+02  0.89480150867E+02  0.00000000000E+00 0. -1.
         21   -1    0    0  501  503 -0.00000000000E+00 -0.00000000000E+00 -0.37199963219E+03  0.37199963219E+03  0.00000000000E+00 0. -1.
          6    2    1    2  501    0  0.31121576875E+01 -0.33432825684E+02 -0.89114115830E+02  0.19919454075E+03  0.17495628044E+03 0.  0.
         24    2    3    3    0    0  0.30665759145E+02 -0.71059281063E+02 -0.17000061358E+02  0.11318594844E+03  0.80822315169E+02 0.  0.
         -6    2    1    2    0  502 -0.31121576875E+01  0.33432825684E+02 -0.19340536549E+03  0.26228524231E+03  0.17395537811E+03 0.  0.
        -24    2    5    5    0    0 -0.35077208071E+02  0.79871539554E+02 -0.11434908669E+03  0.16507256922E+03  0.81014604389E+02 0.  0.
          5    1    3    3  501    0 -0.27553601458E+02  0.37626455379E+02 -0.72114054472E+02  0.86008592304E+02  0.47000000000E+01 0. -1.
        -11    1    4    4    0    0  0.38636946713E+02 -0.35307447825E+01 -0.22698881128E+02  0.44950183698E+02  0.00000000000E+00 0.  1.
         12    1    4    4    0    0 -0.79711875674E+01 -0.67528536280E+02  0.56988197701E+01  0.68235764744E+02  0.00000000000E+00 0. -1.
         -5    1    5    5    0  502  0.31965050384E+02 -0.46438713870E+02 -0.79056278799E+02  0.97212673091E+02  0.47000000000E+01 0.  1.
         13    1    6    6    0    0 -0.55221784871E+02  0.67829483754E+02 -0.11107057292E+03  0.14137523319E+03  0.00000000000E+00 0. -1.
        -14    1    6    6    0    0  0.20144576799E+02  0.12042055800E+02 -0.32785137712E+01  0.23697336029E+02  0.00000000000E+00 0.  1.
</event>
<event>
12    1  0.1046899E+000  0.3720716E+03  0.7818608E-02  0.1053930E+00
         21   -1    0    0  503  502  0.00000000000E+00  0.00000000000E+00  0.48284719582E+03  0.48284719582E+03  0.00000000000E+00 0.  1.
         21   -1    0    0  501  503 -0.00000000000E+00 -0.00000000000E+00 -0.32477572289E+03  0.32477572289E+03  0.00000000000E+00 0.  1.
          6    2    1    2  501    0 -0.27816022895E+03  0.17618848326E+03  0.21764423988E+03  0.43081233291E+03  0.17266950057E+03 0.  0.
         24    2    3    3    0    0 -0.14121578491E+03  0.15969630535E+03  0.17063068967E+03  0.28501062993E+03  0.81678755307E+02 0.  0.
         -6    2    1    2    0  502  0.27816022895E+03 -0.17618848326E+03 -0.59572766955E+02  0.37681058580E+03  0.17326802475E+03 0.  0.
        -24    2    5    5    0    0  0.25769566017E+03 -0.17075311136E+03 -0.73887094530E+01  0.32029857203E+03  0.83503915499E+02 0.  0.
          5    1    3    3  501    0 -0.13694444404E+03  0.16492177914E+02  0.47013550216E+02  0.14580170298E+03  0.47000000000E+01 0. -1.
        -11    1    4    4    0    0  0.10127162171E+02  0.39301630483E+01  0.11120933116E+02  0.15546084671E+02  0.00000000000E+00 0.  1.
         12    1    4    4    0    0 -0.15134294708E+03  0.15576614230E+03  0.15950975655E+03  0.26946454526E+03  0.00000000000E+00 0. -1.
         -5    1    5    5    0  502  0.20464568780E+02 -0.54353718976E+01 -0.52184057502E+02  0.56512013771E+02  0.47000000000E+01 0.  1.
         13    1    6    6    0    0  0.12888674205E+02  0.79382752883E+01 -0.81917515064E+01  0.17211592897E+02  0.00000000000E+00 0. -1.
        -14    1    6    6    0    0  0.24480698597E+03 -0.17869138665E+03  0.80304205343E+00  0.30308697913E+03  0.00000000000E+00 0.  1.
</event>
<event>
12    1  0.1046899E+000  0.1857386E+03  0.7818608E-02  0.1164772E+00
         21   -1    0    0  503  502  0.00000000000E+00  0.00000000000E+00  0.35162719679E+03  0.35162719679E+03  0.00000000000E+00 0.  1.
         21   -1    0    0  501  503 -0.00000000000E+00 -0.00000000000E+00 -0.94216565253E+02  0.94216565253E+02  0.00000000000E+00 0.  1.
          6    2    1    2  501    0 -0.12996614634E+02 -0.32376862768E+02  0.15894143668E+03  0.24446109308E+03  0.18243265196E+03 0.  0.
         24    2    3    3    0    0 -0.72827966006E+02 -0.33885214617E+02  0.67091439590E+02  0.13473152689E+03  0.84848115291E+02 0.  0.
         -6    2    1    2    0  502  0.12996614634E+02  0.32376862768E+02  0.98469194859E+02  0.20138266896E+03  0.17216742952E+03 0.  0.
        -24    2    5    5    0    0  0.69633207821E+02  0.33860620945E+02  0.33362102002E+02  0.11494813439E+03  0.78132697816E+02 0.  0.
          5    1    3    3  501    0  0.59831351372E+02  0.15083518487E+01  0.91849997088E+02  0.10972956620E+03  0.47000000000E+01 0. -1.
        -11    1    4    4    0    0  0.99232715637E+01 -0.38505564113E+01 -0.12244317230E+02  0.16224099594E+02  0.00000000000E+00 0.  1.
         12    1    4    4    0    0 -0.82751237570E+02 -0.30034658206E+02  0.79335756820E+02  0.11850742729E+03  0.00000000000E+00 0. -1.
         -5    1    5    5    0  502 -0.56636593187E+02 -0.14837581767E+01  0.65107092857E+02  0.86434534570E+02  0.47000000000E+01 0.  1.
         11    1    6    6    0    0  0.67990226440E+02  0.50992565905E+02  0.94857543030E+01  0.85515450087E+02  0.00000000000E+00 0. -1.
        -12    1    6    6    0    0  0.16429813805E+01 -0.17131944960E+02  0.23876347699E+02  0.29432684305E+02  0.00000000000E+00 0.  1.
</event>
<event>
12    1  0.1046899E+000  0.3640356E+03  0.7818608E-02  0.1057930E+00
         21   -1    0    0  503  502  0.00000000000E+00  0.00000000000E+00  0.19584388427E+03  0.19584388427E+03  0.00000000000E+00 0. -1.
         21   -1    0    0  501  503 -0.00000000000E+00 -0.00000000000E+00 -0.69387631496E+03  0.69387631496E+03  0.00000000000E+00 0.  1.
          6    2    1    2  501    0 -0.13726917377E+03 -0.27799612964E+03 -0.14656501249E+03  0.38370514184E+03  0.17211524867E+03 0.  0.
         24    2    3    3    0    0 -0.15342611933E+03 -0.28300950155E+03 -0.12280442759E+03  0.35416134076E+03  0.81947396505E+02 0.  0.
         -6    2    1    2    0  502  0.13726917377E+03  0.27799612964E+03 -0.35146741820E+03  0.50601505739E+03  0.19078054954E+03 0.  0.
        -24    2    5    5    0    0 -0.18114991709E+02  0.89008008402E+02 -0.12856335906E+03  0.17500288475E+03  0.76464984761E+02 0.  0.
          5    1    3    3  501    0  0.16156945559E+02  0.50133719037E+01 -0.23760584897E+02  0.29543801081E+02  0.47000000000E+01 0. -1.
        -11    1    4    4    0    0 -0.39295435241E+01 -0.48450950882E+02  0.33814834472E+01  0.48727511572E+02  0.00000000000E+00 0.  1.
         12    1    4    4    0    0 -0.14949657580E+03 -0.23455855066E+03 -0.12618591104E+03  0.30543382919E+03  0.00000000000E+00 0. -1.
         -5    1    5    5    0  502  0.15538416548E+03  0.18898812124E+03 -0.22290405914E+03  0.33101217264E+03  0.47000000000E+01 0.  1.
         11    1    6    6    0    0 -0.28524882089E+01  0.40785511748E+02 -0.11584514318E+03  0.12284824726E+03  0.00000000000E+00 0. -1.
        -12    1    6    6    0    0 -0.15262503500E+02  0.48222496654E+02 -0.12718215885E+02  0.52154637492E+02  0.00000000000E+00 0.  1.
</event>
<event>
12    1  0.1046899E+000  0.1973205E+03  0.7818608E-02  0.1152212E+00
         21   -1    0    0  501  502  0.00000000000E+00  0.00000000000E+00  0.70714373761E+02  0.70714373761E+02  0.00000000000E+00 0. -1.
         21   -1    0    0  502  503 -0.00000000000E+00 -0.00000000000E+00 -0.60642144452E+03  0.60642144452E+03  0.00000000000E+00 0. -1.
         -6    2    1    2    0  503  0.95525633336E+02  0.79790198818E+01 -0.16231727430E+03  0.25481447605E+03  0.17144885035E+03 0.  0.
        -24    2    3    3    0    0  0.41767303356E+02 -0.54964677055E+02 -0.55522857215E+02  0.11961460716E+03  0.80369417195E+02 0.  0.
          6    2    1    2  501    0 -0.95525633336E+02 -0.79790198818E+01 -0.37338979646E+03  0.42232134224E+03  0.17247192415E+03 0.  0.
         24    2    5    5    0    0 -0.11607184811E+03  0.38831312510E+02 -0.28671620485E+03  0.32158527301E+03  0.78932635426E+02 0.  0.
          5    1    5    5  501    0  0.20546214778E+02 -0.46810332392E+02 -0.86673591609E+02  0.10073606922E+03  0.47000000000E+01 0. -1.
        -11    1    6    6    0    0 -0.75939270085E+02 -0.14720895398E+02 -0.17543949878E+03  0.19173548246E+03  0.00000000000E+00 0.  1.
         12    1    6    6    0    0 -0.40132578029E+02  0.53552207908E+02 -0.11127670608E+03  0.12984979055E+03  0.00000000000E+00 0. -1.
         -5    1    3    3    0  503  0.53758329979E+02  0.62943696936E+02 -0.10679441708E+03  0.13519986888E+03  0.47000000000E+01 0.  1.
         11    1    4    4    0    0 -0.12893952523E+02 -0.33314855545E+02 -0.48743727082E+02  0.60432479194E+02  0.00000000000E+00 0. -1.
        -12    1    4    4    0    0  0.54661255880E+02 -0.21649821509E+02 -0.67791301336E+01  0.59182127970E+02  0.00000000000E+00 0.  1.
</event>
<event>
12    1  0.1046899E+000  0.1906423E+03  0.7818608E-02  0.1158718E+00
         21   -1    0    0  501  502  0.00000000000E+00  0.00000000000E+00  0.20429028262E+03  0.20429028262E+03  0.00000000000E+00 0.  1.
         21   -1    0    0  502  503 -0.00000000000E+00 -0.00000000000E+00 -0.17448752056E+03  0.17448752056E+03  0.00000000000E+00 0.  1.
         -6    2    1    2    0  503 -0.75437046525E+02 -0.17046316852E+02  0.14805408892E+02  0.19121629462E+03  0.17425024042E+03 0.  0.
        -24    2    3    3    0    0 -0.45077044559E+02 -0.60090562542E+02  0.57161506520E+02  0.12346184227E+03  0.79577465507E+02 0.  0.
          6    2    1    2  501    0  0.75437046525E+02  0.17046316852E+02  0.14997353175E+02  0.18756150856E+03  0.17021478780E+03 0.  0.
         24    2    5    5    0    0  0.85726828266E+01  0.51915809212E+02  0.41171939294E+02  0.10759949515E+03  0.84343231116E+02 0.  0.
          5    1    5    5  501    0  0.66864363699E+02 -0.34869492360E+02 -0.26174586119E+02  0.79962013411E+02  0.47000000000E+01 0. -1.
        -13    1    6    6    0    0  0.43367157649E+02  0.41715417225E+02  0.38076219019E+02  0.71208741399E+02  0.00000000000E+00 0.  1.
         14    1    6    6    0    0 -0.34794474822E+02  0.10200391987E+02  0.30957202754E+01  0.36390753755E+02  0.00000000000E+00 0. -1.
         -5    1    3    3    0  503 -0.30360001966E+02  0.43044245690E+02 -0.42356097628E+02  0.67754452345E+02  0.47000000000E+01 0.  1.
         11    1    4    4    0    0 -0.46192392274E+02 -0.56601347116E+02  0.72506784744E+01  0.73416768777E+02  0.00000000000E+00 0. -1.
        -12    1    4    4    0    0  0.11153477144E+01 -0.34892154258E+01  0.49910828045E+02  0.50045073494E+02  0.00000000000E+00 0.  1.
</event>
<event>
12    1  0.1046899E+000  0.1768308E+03  0.7818608E-02  0.1172019E+00
         21   -1    0    0  503  502  0.00000000000E+00  0.00000000000E+00  0.16502042848E+02  0.16502042848E+02  0.00000000000E+00 0.  1.
         21   -1    0    0  501  503 -0.00000000000E+00 -0.00000000000E+00 -0.18966385450E+04  0.18966385450E+04  0.00000000000E+00 0.  1.
          6    2    1    2  501    0  0.16742049698E+02 -0.14136669041E+02 -0.77473810882E+03  0.79368771251E+03  0.17099972542E+03 0.  0.
         24    2    3    3    0    0 -0.33214086322E+02 -0.30727814171E+02 -0.66643011555E+03  0.67317384182E+03  0.83585574751E+02 0.  0.
         -6    2    1    2    0  502 -0.16742049698E+02  0.14136669041E+02 -0.11053983933E+04  0.11194528753E+04  0.17546791865E+03 0.  0.
        -24    2    5    5    0    0 -0.49514076021E+02  0.43301831441E+02 -0.99723207316E+03  0.10026339761E+04  0.80476020605E+02 0.  0.
          5    1    3    3  501    0  0.49956136019E+02  0.16591145130E+02 -0.10830799327E+03  0.12051387069E+03  0.47000000000E+01 0. -1.
        -11    1    4    4    0    0 -0.28226942308E+02 -0.28677774764E+02 -0.11716483775E+03  0.12388209815E+03  0.00000000000E+00 0.  1.
         12    1    4    4    0    0 -0.49871440140E+01 -0.20500394074E+01 -0.54926527780E+03  0.54929174367E+03  0.00000000000E+00 0. -1.
         -5    1    5    5    0  502  0.32772026323E+02 -0.29165162400E+02 -0.10816632018E+03  0.11681889928E+03  0.47000000000E+01 0.  1.
         13    1    6    6    0    0 -0.55233884876E+02  0.30843329926E+02 -0.37852317682E+03  0.38377322527E+03  0.00000000000E+00 0. -1.
        -14    1    6    6    0    0  0.57198088548E+01  0.12458501514E+02 -0.61870889633E+03  0.61886075079E+03  0.00000000000E+00 0.  1.
</event>
<event>
12    1  0.1046899E+000  0.2005273E+03  0.7818608E-02  0.1150017E+00
         21   -1    0    0  501  502  0.00000000000E+00  0.00000000000E+00  0.98779537385E+02  0.98779537385E+02  0.00000000000E+00 0.  1.
         21   -1    0    0  502  503 -0.00000000000E+00 -0.00000000000E+00 -0.55283823351E+03  0.55283823351E+03  0.00000000000E+00 0.  1.
         -6    2    1    2    0  503 -0.55430610075E+02 -0.92474870061E+02 -0.57242870250E+02  0.20853761133E+03  0.16907700913E+03 0.  0.
        -24    2    3    3    0    0 -0.14138776736E+01 -0.52336435453E+02 -0.90925980413E+02  0.13313507011E+03  0.81953105200E+02 0.  0.
          6    2    1    2  501    0  0.55430610075E+02  0.92474870061E+02 -0.39681582587E+03  0.44308015957E+03  0.16502446490E+03 0.  0.
         24    2    5    5    0    0  0.90605641236E+02  0.10410701408E+03 -0.31063756101E+03  0.34915799538E+03  0.79799491362E+02 0.  0.
          5    1    5    5  501    0 -0.35175031161E+02 -0.11632144017E+02 -0.86178264862E+02  0.93922164191E+02  0.47000000000E+01 0. -1.
        -13    1    6    6    0    0  0.38804471374E+01 -0.66947239772E+01  0.42715864093E+00  0.77498170056E+01  0.00000000000E+00 0.  1.
         14    1    6    6    0    0  0.86725194099E+02  0.11080173806E+03 -0.31106471965E+03  0.34140817837E+03  0.00000000000E+00 0. -1.
         -5    1    3    3    0  503 -0.54016732402E+02 -0.40138434608E+02  0.33683110163E+02  0.75402541220E+02  0.47000000000E+01 0.  1.
         13    1    4    4    0    0 -0.33258000335E+01 -0.49878493714E+02 -0.85679504048E+01  0.50718190575E+02  0.00000000000E+00 0. -1.
        -14    1    4    4    0    0  0.19119223599E+01 -0.24579417385E+01 -0.82358030008E+02  0.82416879530E+02  0.00000000000E+00 0.  1.
</event>
<event>
12    1  0.1046899E+000  0.2704654E+03  0.7818608E-02  0.1101023E+00
         21   -1    0    0  501  502  0.00000000000E+00  0.00000000000E+00  0.41751795016E+03  0.41751795016E+03  0.00000000000E+00 0. -1.
         21   -1    0    0  502  503 -0.00000000000E+00 -0.00000000000E+00 -0.19290382229E+03  0.19290382229E+03  0.00000000000E+00 0. -1.
         -6    2    1    2    0  503  0.16508899577E+03  0.12834776045E+03  0.19733864551E+02  0.27111740119E+03  0.17142839811E+03 0.  0.
        -24    2    3    3    0    0  0.95145128484E+02  0.14953116174E+03 -0.29584616290E+01  0.19444985441E+03  0.79936409586E+02 0.  0.
          6    2    1    2  501    0 -0.16508899577E+03 -0.12834776045E+03  0.20488026332E+03  0.33930437127E+03  0.17153428208E+03 0.  0.
         24    2    5    5    0    0 -0.47044541363E+02 -0.57645049175E+01  0.11492878405E+03  0.14675695796E+03  0.77990774555E+02 0.  0.
          5    1    5    5  501    0 -0.11804445441E+03 -0.12258325553E+03  0.89951479265E+02  0.19254741331E+03  0.47000000000E+01 0. -1.
        -13    1    6    6    0    0  0.59036205793E+01 -0.30284843225E+02  0.55317657347E+02  0.63340884739E+02  0.00000000000E+00 0.  1.
         14    1    6    6    0    0 -0.52948161943E+02  0.24520338308E+02  0.59611126705E+02  0.83416073217E+02  0.00000000000E+00 0. -1.
         -5    1    3    3    0  503  0.69943867286E+02 -0.21183401298E+02  0.22692326180E+02  0.76667546777E+02  0.47000000000E+01 0.  1.
         11    1    4    4    0    0  0.27977584210E+02  0.55644414035E+02  0.36817301006E+02  0.72350256979E+02  0.00000000000E+00 0. -1.
        -12    1    4    4    0    0  0.67167544274E+02  0.93886747708E+02 -0.39775762635E+02  0.12209959743E+03  0.00000000000E+00 0.  1.
</event>
<event>
12    1  0.1046899E+000  0.2474504E+03  0.7818608E-02  0.1115086E+00
         21   -1    0    0  501  502  0.00000000000E+00  0.00000000000E+00  0.28671076439E+02  0.28671076439E+02  0.00000000000E+00 0.  1.
         21   -1    0    0  502  503 -0.00000000000E+00 -0.00000000000E+00 -0.24666165933E+04  0.24666165933E+04  0.00000000000E+00 0.  1.
         -6    2    1    2    0  503 -0.83283992242E+02 -0.15858046561E+03 -0.75395842262E+03  0.79321709091E+03  0.16928101736E+03 0.  0.
        -24    2    3    3    0    0 -0.83483157801E+02 -0.14232886006E+03 -0.41788904904E+03  0.45672211590E+03  0.82078570907E+02 0.  0.
          6    2    1    2  501    0  0.83283992242E+02  0.15858046561E+03 -0.16839870942E+04  0.17020705788E+04  0.17072707547E+03 0.  0.
         24    2    5    5    0    0  0.12163318320E+03  0.98665190543E+02 -0.12161507910E+04  0.12288334318E+04  0.80494755964E+02 0.  0.
          5    1    5    5  501    0 -0.38349190960E+02  0.59915275070E+02 -0.46783630329E+03  0.47323714701E+03  0.47000000000E+01 0. -1.
        -11    1    6    6    0    0  0.50473854003E+02  0.90792495351E+02 -0.66850409666E+03  0.67652687633E+03  0.00000000000E+00 0.  1.
         12    1    6    6    0    0  0.71159329199E+02  0.78726951923E+01 -0.54764669430E+03  0.55230655549E+03  0.00000000000E+00 0. -1.
         -5    1    3    3    0  503  0.19916555947E+00 -0.16251605551E+02 -0.33606937358E+03  0.33649497501E+03  0.47000000000E+01 0.  1.
         13    1    4    4    0    0 -0.66482156791E+02 -0.44990998566E+02 -0.13489863882E+03  0.15697678134E+03  0.00000000000E+00 0. -1.
        -14    1    4    4    0    0 -0.17001001011E+02 -0.97337861496E+02 -0.28299041022E+03  0.29974533457E+03  0.00000000000E+00 0.  1.
</event>
<event>
12    1  0.1046899E+000  0.2398862E+03  0.7818608E-02  0.1120148E+00
         21   -1    0    0  503  502  0.00000000000E+00  0.00000000000E+00  0.11489738556E+04  0.11489738556E+04  0.00000000000E+00 0.  1.
         21   -1    0    0  501  503 -0.00000000000E+00 -0.00000000000E+00 -0.63083088870E+02  0.63083088870E+02  0.00000000000E+00 0.  1.
          6    2    1    2  501    0  0.61938598663E+02 -0.15412663321E+03  0.26568506751E+03  0.35795800604E+03  0.17307215236E+03 0.  0.
         24    2    3    3    0    0  0.63773193311E+02 -0.99669269682E+02  0.78284120140E+02  0.16273973012E+03  0.79717205102E+02 0.  0.
         -6    2    1    2    0  502 -0.61938598663E+02  0.15412663321E+03  0.82020569924E+03  0.85409893845E+03  0.17075186241E+03 0.  0.
        -24    2    5    5    0    0 -0.30069201507E+02  0.66466007701E+02  0.20410300757E+03  0.23095797492E+03  0.79760023952E+02 0.  0.
          5    1    3    3  501    0 -0.18345946483E+01 -0.54457363530E+02  0.18740094737E+03  0.19521827592E+03  0.47000000000E+01 0. -1.
        -11    1    4    4    0    0  0.81128659093E+00 -0.53797524996E+02  0.21995400359E+01  0.53848582693E+02  0.00000000000E+00 0.  1.
         12    1    4    4    0    0  0.62961906720E+02 -0.45871744686E+02  0.76084580104E+02  0.10889114743E+03  0.00000000000E+00 0. -1.
         -5    1    5    5    0  502 -0.31869397155E+02  0.87660625511E+02  0.61610269167E+03  0.62314096353E+03  0.47000000000E+01 0.  1.
         13    1    6    6    0    0 -0.53976088741E+02  0.51547358098E+02  0.11159805958E+03  0.13425600614E+03  0.00000000000E+00 0. -1.
        -14    1    6    6    0    0  0.23906887234E+02  0.14918649602E+02  0.92504947988E+02  0.96701968778E+02  0.00000000000E+00 0.  1.
</event>
<event>
12    1  0.1046899E+000  0.2821052E+03  0.7818608E-02  0.1094666E+00
         21   -1    0    0  501  502  0.00000000000E+00  0.00000000000E+00  0.92556177054E+03  0.92556177054E+03  0.00000000000E+00 0. -1.
         21   -1    0    0  502  503 -0.00000000000E+00 -0.00000000000E+00 -0.92339004052E+02  0.92339004052E+02  0.00000000000E+00 0. -1.
         -6    2    1    2    0  503  0.20436752169E+03  0.90935743063E+02  0.28087452512E+03  0.39808773470E+03  0.17189517843E+03 0.  0.
        -24    2    3    3    0    0  0.79805693890E+02  0.66763496282E+02  0.61349154500E+02  0.14448681829E+03  0.79286875886E+02 0.  0.
          6    2    1    2  501    0 -0.20436752169E+03 -0.90935743063E+02  0.55234824137E+03  0.61981303989E+03  0.17042368200E+03 0.  0.
         24    2    5    5    0    0 -0.19912099044E+03 -0.42736827178E+02  0.51032165484E+03  0.55547809171E+03  0.81560491283E+02 0.  0.
          5    1    5    5  501    0 -0.52465312553E+01 -0.48198915885E+02  0.42026586534E+02  0.64334948188E+02  0.47000000000E+01 0. -1.
        -11    1    6    6    0    0 -0.89123600199E+02 -0.27614183179E+02  0.33670493635E+03  0.34939343638E+03  0.00000000000E+00 0.  1.
         12    1    6    6    0    0 -0.10999739024E+03 -0.15122643999E+02  0.17361671849E+03  0.20608465532E+03  0.00000000000E+00 0. -1.
         -5    1    3    3    0  503  0.12456182780E+03  0.24172246781E+02  0.21952537062E+03  0.25360091641E+03  0.47000000000E+01 0.  1.
         13    1    4    4    0    0  0.32638185258E+02 -0.87943302690E+01  0.40968625343E+02  0.53113271829E+02  0.00000000000E+00 0. -1.
        -14    1    4    4    0    0  0.47167508631E+02  0.75557826551E+02  0.20380529157E+02  0.91373546458E+02  0.00000000000E+00 0.  1.
</event>
<event>
12    1  0.1046899E+000  0.2217607E+03  0.7818608E-02  0.1132777E+00
         21   -1    0    0  503  502  0.00000000000E+00  0.00000000000E+00  0.31696445759E+02  0.31696445759E+02  0.00000000000E+00 0. -1.
         21   -1    0    0  501  503 -0.00000000000E+00 -0.00000000000E+00 -0.16024704013E+04  0.16024704013E+04  0.00000000000E+00 0. -1.
          6    2    1    2  501    0 -0.88680079376E+02  0.10606336201E+03 -0.94332367803E+03  0.96903940345E+03  0.17339034191E+03 0.  0.
         24    2    3    3    0    0 -0.68901902094E+02  0.19844575949E+02 -0.28088561618E+03  0.30070480824E+03  0.79908529053E+02 0.  0.
         -6    2    1    2    0  502  0.88680079376E+02 -0.10606336201E+03 -0.62745027752E+03  0.66512744362E+03  0.17200893074E+03 0.  0.
        -24    2    5    5    0    0 -0.67839205617E+01 -0.96392476879E+02 -0.35923964574E+03  0.38023108649E+03  0.78644929186E+02 0.  0.
          5    1    3    3  501    0 -0.19778177283E+02  0.86218786061E+02 -0.66243806185E+03  0.66833459521E+03  0.47000000000E+01 0. -1.
        -13    1    4    4    0    0 -0.10090789086E+02  0.34501565311E+02 -0.17540595337E+03  0.17905147447E+03  0.00000000000E+00 0.  1.
         14    1    4    4    0    0 -0.58811113008E+02 -0.14656989362E+02 -0.10547966282E+03  0.12165333377E+03  0.00000000000E+00 0. -1.
         -5    1    5    5    0  502  0.95463999938E+02 -0.96708851307E+01 -0.26821063178E+03  0.28489635713E+03  0.47000000000E+01 0.  1.
         11    1    6    6    0    0 -0.30620778964E+02 -0.76144180371E+01 -0.11555168320E+03  0.11978231487E+03  0.00000000000E+00 0. -1.
        -12    1    6    6    0    0  0.23836858402E+02 -0.88778058842E+02 -0.24368796254E+03  0.26044877162E+03  0.00000000000E+00 0.  1.
</event>
<event>
12    1  0.1046899E+000  0.2067084E+03  0.7818608E-02  0.1144607E+00
         21   -1    0    0  501  502  0.00000000000E+00  0.00000000000E+00  0.28833684739E+03  0.28833684739E+03  0.00000000000E+00 0.  1.
         21   -1    0    0  502  503 -0.00000000000E+00 -0.00000000000E+00 -0.36010683370E+03  0.36010683370E+03  0.00000000000E+00 0.  1.
         -6    2    1    2    0  503  0.11015675784E+03  0.31253442486E+02  0.21360323669E+03  0.29724518706E+03  0.17209610554E+03 0.  0.
        -24    2    3    3    0    0  0.36992618376E+02 -0.16053167771E+02  0.30521509743E+02  0.94435139432E+02  0.79751332232E+02 0.  0.
          6    2    1    2  501    0 -0.11015675784E+03 -0.31253442486E+02 -0.28537322300E+03  0.35119849403E+03  0.16967974787E+03 0.  0.
         24    2    5    5    0    0 -0.10800670157E+03 -0.76385198912E+02 -0.18529084069E+03  0.24128911577E+03  0.79922434580E+02 0.  0.
          5    1    5    5  501    0 -0.21500562717E+01  0.45131756425E+02 -0.10008238231E+03  0.10990937826E+03  0.47000000000E+01 0. -1.
        -11    1    6    6    0    0  0.54140484437E+01  0.27554029000E+01  0.36894323127E+01  0.71074662491E+01  0.00000000000E+00 0.  1.
         12    1    6    6    0    0 -0.11342075001E+03 -0.79140601812E+02 -0.18898027300E+03  0.23418164952E+03  0.00000000000E+00 0. -1.
         -5    1    3    3    0  503  0.73164139461E+02  0.47306610257E+02  0.18308172695E+03  0.20281004763E+03  0.47000000000E+01 0.  1.
         11    1    4    4    0    0  0.58610607951E+02 -0.18721865310E+02  0.62841886836E+01  0.61848222549E+02  0.00000000000E+00 0. -1.
        -12    1    4    4    0    0 -0.21617989575E+02  0.26686975391E+01  0.24237321060E+02  0.32586916883E+02  0.00000000000E+00 0.  1.
</event>
<event>
12    1  0.1046899E+000  0.2912660E+03  0.7818608E-02  0.1089724E+00
         21   -1    0    0  501  502  0.00000000000E+00  0.00000000000E+00  0.10787606188E+03  0.10787606188E+03  0.00000000000E+00 0. -1.
         21   -1    0    0  502  503 -0.00000000000E+00 -0.00000000000E+00 -0.10306341027E+04  0.10306341027E+04  0.00000000000E+00 0. -1.
         -6    2    1    2    0  503  0.20767989655E+03 -0.11072199832E+03 -0.18403684473E+03  0.34453653648E+03  0.17159709907E+03 0.  0.
        -24    2    3    3    0    0  0.13534140353E+03 -0.12696207634E+03 -0.84118757511E+02  0.22002825620E+03  0.83065057763E+02 0.  0.
          6    2    1    2  501    0 -0.20767989655E+03  0.11072199832E+03 -0.73872119607E+03  0.79397362808E+03  0.17115728504E+03 0.  0.
         24    2    5    5    0    0 -0.20251104423E+03  0.90942352836E+02 -0.73622568812E+03  0.77284854891E+03  0.77365245044E+02 0.  0.
          5    1    5    5  501    0 -0.51688523213E+01  0.19779645488E+02 -0.24955079543E+01  0.21125079169E+02  0.47000000000E+01 0. -1.
        -13    1    6    6    0    0 -0.13590422177E+03  0.58719023974E+02 -0.35714276332E+03  0.38661199498E+03  0.00000000000E+00 0.  1.
         14    1    6    6    0    0 -0.66606822459E+02  0.32223328862E+02 -0.37908292480E+03  0.38623655393E+03  0.00000000000E+00 0. -1.
         -5    1    3    3    0  503  0.72338493019E+02  0.16240078016E+02 -0.99918087217E+02  0.12450828028E+03  0.47000000000E+01 0.  1.
         11    1    4    4    0    0  0.80698675425E+02 -0.23852207243E+02 -0.18533146357E+02  0.86166591667E+02  0.00000000000E+00 0. -1.
        -12    1    4    4    0    0  0.54642728108E+02 -0.10310986910E+03 -0.65585611154E+02  0.13386166453E+03  0.00000000000E+00 0.  1.
</event>
<event>
12    1  0.1046899E+000  0.2225473E+03  0.7818608E-02  0.1134158E+00
         21   -1    0    0  501  502  0.00000000000E+00  0.00000000000E+00  0.29899258120E+03  0.29899258120E+03  0.00000000000E+00 0.  1.
         21   -1    0    0  502  503 -0.00000000000E+00 -0.00000000000E+00 -0.15801026788E+03  0.15801026788E+03  0.00000000000E+00 0.  1.
         -6    2    1    2    0  503 -0.71693347797E+02  0.10135182248E+03  0.88257353647E+02  0.23940897123E+03  0.18470291549E+03 0.  0.
        -24    2    3    3    0    0 -0.24277666691E+02  0.99353057711E+02 -0.10757567486E+02  0.12950771335E+03  0.78715229678E+02 0.  0.
          6    2    1    2  501    0  0.71693347797E+02 -0.10135182248E+03  0.52724959679E+02  0.21759387785E+03  0.17074848833E+03 0.  0.
         24    2    5    5    0    0  0.68332736468E+02 -0.92611240364E+01  0.64903993354E+02  0.12452181271E+03  0.80858037296E+02 0.  0.
          5    1    5    5  501    0  0.33606113288E+01 -0.92090698447E+02 -0.12179033675E+02  0.93072065144E+02  0.47000000000E+01 0. -1.
        -13    1    6    6    0    0  0.16110516995E+02  0.12065591836E+02 -0.16125742959E+02  0.25790828800E+02  0.00000000000E+00 0.  1.
         14    1    6    6    0    0  0.52222219472E+02 -0.21326715872E+02  0.81029736314E+02  0.98730983909E+02  0.00000000000E+00 0. -1.
         -5    1    3    3    0  503 -0.47415681106E+02  0.19987647729E+01  0.99014921133E+02  0.10990125787E+03  0.47000000000E+01 0.  1.
         13    1    4    4    0    0 -0.33553725763E+02  0.42781317969E+02  0.27158962043E+02  0.60775841409E+02  0.00000000000E+00 0. -1.
        -14    1    4    4    0    0  0.92760590720E+01  0.56571739742E+02 -0.37916529529E+02  0.68731871943E+02  0.00000000000E+00 0.  1.
</event>
<event>
12    1  0.1046899E+000  0.3862239E+03  0.7818608E-02  0.1049252E+00
         21   -1    0    0  501  502  0.00000000000E+00  0.00000000000E+00  0.12119487273E+04  0.12119487273E+04  0.00000000000E+00 0. -1.
         21   -1    0    0  502  503 -0.00000000000E+00 -0.00000000000E+00 -0.13258311693E+03  0.13258311693E+03  0.00000000000E+00 0. -1.
         -6    2    1    2    0  503  0.31253345310E+03  0.13151217130E+03  0.74243407749E+03  0.83688543584E+03  0.18492231555E+03 0.  0.
        -24    2    3    3    0    0  0.62331238856E+02  0.68292437308E+02  0.30876027733E+03  0.33221431746E+03  0.80525794236E+02 0.  0.
          6    2    1    2  501    0 -0.31253345310E+03 -0.13151217130E+03  0.33693153291E+03  0.50764640843E+03  0.17090759965E+03 0.  0.
         24    2    5    5    0    0 -0.27822244323E+03 -0.14294491840E+03  0.34264941717E+03  0.47073113645E+03  0.79612826411E+02 0.  0.
          5    1    5    5  501    0 -0.34311009874E+02  0.11432747107E+02 -0.57178842546E+01  0.36915271980E+02  0.47000000000E+01 0. -1.
        -11    1    6    6    0    0 -0.76370953115E+02 -0.10927318908E+02  0.11891170311E+03  0.14174597671E+03  0.00000000000E+00 0.  1.
         12    1    6    6    0    0 -0.20185149011E+03 -0.13201759950E+03  0.22373771406E+03  0.32898515974E+03  0.00000000000E+00 0. -1.
         -5    1    3    3    0  503  0.25020221424E+03  0.63219733989E+02  0.43367380016E+03  0.50467111838E+03  0.47000000000E+01 0.  1.
         11    1    4    4    0    0  0.14394759837E+02 -0.18004180509E+02  0.44464640077E+02  0.50084566922E+02  0.00000000000E+00 0. -1.
        -12    1    4    4    0    0  0.47936479020E+02  0.86296617817E+02  0.26429563725E+03  0.28212975054E+03  0.00000000000E+00 0.  1.
</event>
<event>
12    1  0.1046899E+000  0.2037536E+03  0.7818608E-02  0.1148748E+00
         21   -1    0    0  501  502  0.00000000000E+00  0.00000000000E+00  0.14321357482E+03  0.14321357482E+03  0.00000000000E+00 0.  1.
         21   -1    0    0  502  503 -0.00000000000E+00 -0.00000000000E+00 -0.27606236719E+03  0.27606236719E+03  0.00000000000E+00 0. -1.
         -6    2    1    2    0  503  0.95741789300E+02 -0.17646380024E+02 -0.72468950447E+02  0.20676414221E+03  0.16739706324E+03 0.  0.
        -24    2    3    3    0    0  0.73898928003E+02 -0.45514954470E+02 -0.10520671822E+03  0.15831190315E+03  0.80383720249E+02 0.  0.
          6    2    1    2  501    0 -0.95741789300E+02  0.17646380024E+02 -0.60379841924E+02  0.21251179980E+03  0.17899065561E+03 0.  0.
         24    2    5    5    0    0  0.16956851256E+02  0.25960873233E+02  0.18041213628E+01  0.83441858797E+02  0.77445382058E+02 0.  0.
          5    1    5    5  501    0 -0.11269864056E+03 -0.83144932086E+01 -0.62183963287E+02  0.12906994100E+03  0.47000000000E+01 0. -1.
        -13    1    6    6    0    0 -0.59202277500E+01  0.49845225414E+02  0.35650710580E+01  0.50322016304E+02  0.00000000000E+00 0.  1.
         14    1    6    6    0    0  0.22877079006E+02 -0.23884352182E+02 -0.17609496952E+01  0.33119842494E+02  0.00000000000E+00 0. -1.
         -5    1    3    3    0  503  0.21842861297E+02  0.27868574446E+02  0.32737767772E+02  0.48452239060E+02  0.47000000000E+01 0.  1.
         13    1    4    4    0    0 -0.10747875469E+02 -0.21169804167E+02 -0.47239598508E+02  0.52870191061E+02  0.00000000000E+00 0. -1.
        -14    1    4    4    0    0  0.84646803472E+02 -0.24345150303E+02 -0.57967119711E+02  0.10544171209E+03  0.00000000000E+00 0.  1.
</event>
<event>
12    1  0.1046899E+000  0.2006381E+03  0.7818608E-02  0.1149254E+00
         21   -1    0    0  501  502  0.00000000000E+00  0.00000000000E+00  0.11174347767E+03  0.11174347767E+03  0.00000000000E+00 0. -1.
         21   -1    0    0  502  503 -0.00000000000E+00 -0.00000000000E+00 -0.39002137023E+03  0.39002137023E+03  0.00000000000E+00 0. -1.
         -6    2    1    2    0  503  0.94557967621E+02 -0.42264170647E+02 -0.20905156136E+03  0.28975541896E+03  0.17183765056E+03 0.  0.
        -24    2    3    3    0    0  0.54007071522E+02 -0.91458677397E+02 -0.10815807337E+03  0.17031480365E+03  0.77637040510E+02 0.  0.
          6    2    1    2  501    0 -0.94557967621E+02  0.42264170647E+02 -0.69226331193E+02  0.21200942894E+03  0.17154662243E+03 0.  0.
         24    2    5    5    0    0 -0.13140697837E+03  0.17460382753E+02 -0.52476164693E+02  0.16430475868E+03  0.81667906381E+02 0.  0.
          5    1    5    5  501    0  0.36849010747E+02  0.24803787894E+02 -0.16750166500E+02  0.47704670260E+02  0.47000000000E+01 0. -1.
        -13    1    6    6    0    0 -0.98104992548E+02 -0.59497018337E+00 -0.71996074448E+02  0.12168968029E+03  0.00000000000E+00 0.  1.
         14    1    6    6    0    0 -0.33301985820E+02  0.18055352937E+02  0.19519909755E+02  0.42615078389E+02  0.00000000000E+00 0. -1.
         -5    1    3    3    0  503  0.40550896099E+02  0.49194506750E+02 -0.10089348799E+03  0.11944061532E+03  0.47000000000E+01 0.  1.
         13    1    4    4    0    0  0.18599890092E+02 -0.40479178427E+02 -0.97691711348E+02  0.10736941028E+03  0.00000000000E+00 0. -1.
        -14    1    4    4    0    0  0.35407181430E+02 -0.50979498969E+02 -0.10466362026E+02  0.62945393366E+02  0.00000000000E+00 0.  1.
</event>
<event>
12    1  0.1046899E+000  0.2248615E+03  0.7818608E-02  0.1130547E+00
         21   -1    0    0  503  502  0.00000000000E+00  0.00000000000E+00  0.58607223525E+02  0.58607223525E+02  0.00000000000E+00 0.  1.
         21   -1    0    0  501  503 -0.00000000000E+00 -0.00000000000E+00 -0.12912782711E+04  0.12912782711E+04  0.00000000000E+00 0.  1.
          6    2    1    2  501    0 -0.35328552006E+02  0.14047794058E+03 -0.22644410356E+03  0.31912321092E+03  0.17198992219E+03 0.  0.
         24    2    3    3    0    0 -0.41899956745E+02  0.17367538390E+02 -0.14252328393E+03  0.16991145383E+03  0.80621200157E+02 0.  0.
         -6    2    1    2    0  502  0.35328552006E+02 -0.14047794058E+03 -0.10062269440E+04  0.10307622837E+04  0.17028230757E+03 0.  0.
        -24    2    5    5    0    0  0.63162426546E+02 -0.14680644427E+03 -0.67826893901E+03  0.70153087941E+03  0.80964170637E+02 0.  0.
          5    1    3    3  501    0  0.65714047389E+01  0.12311040219E+03 -0.83920819625E+02  0.14921175709E+03  0.47000000000E+01 0. -1.
        -13    1    4    4    0    0 -0.64248729618E+02  0.22415248562E+02 -0.11895096998E+03  0.13703895755E+03  0.00000000000E+00 0.  1.
         14    1    4    4    0    0  0.22348772873E+02 -0.50477101722E+01 -0.23572313949E+02  0.32872496282E+02  0.00000000000E+00 0. -1.
         -5    1    5    5    0  502 -0.27833874540E+02  0.63285036921E+01 -0.32795800497E+03  0.32923140426E+03  0.47000000000E+01 0.  1.
         11    1    6    6    0    0  0.21912386068E+02 -0.56668727494E+02 -0.11973180668E+03  0.13426541948E+03  0.00000000000E+00 0. -1.
        -12    1    6    6    0    0  0.41250040478E+02 -0.90137716774E+02 -0.55853713234E+03  0.56726545993E+03  0.00000000000E+00 0.  1.
</event>
<event>
12    1  0.1046899E+000  0.2419751E+03  0.7818608E-02  0.1118793E+00
         21   -1    0    0  501  502  0.00000000000E+00  0.00000000000E+00  0.14205411315E+03  0.14205411315E+03  0.00000000000E+00 0.  1.
         21   -1    0    0  502  503 -0.00000000000E+00 -0.00000000000E+00 -0.40907407480E+03  0.40907407480E+03  0.00000000000E+00 0.  1.
         -6    2    1    2    0  503  0.46273369444E+02 -0.16340152432E+03 -0.13040085644E+03  0.27487511281E+03  0.17236780852E+03 0.  0.
        -24    2    3    3    0    0  0.56577465541E+02 -0.69256135368E+02 -0.13700764914E+03  0.17982108414E+03  0.74613031614E+02 0.  0.
          6    2    1    2  501    0 -0.46273369444E+02  0.16340152432E+03 -0.13661910521E+03  0.27625307515E+03  0.16973420030E+03 0.  0.
         24    2    5    5    0    0 -0.54799834234E+02  0.27141317978E+02 -0.77519082441E+02  0.12740937483E+03  0.80524950656E+02 0.  0.
          5    1    5    5  501    0  0.85264647899E+01  0.13626020634E+03 -0.59100022766E+02  0.14884370032E+03  0.47000000000E+01 0. -1.
        -11    1    6    6    0    0  0.74259786115E+01  0.32197833759E+02 -0.48194930947E+02  0.58434553358E+02  0.00000000000E+00 0.  1.
         12    1    6    6    0    0 -0.62225812846E+02 -0.50565157807E+01 -0.29324151494E+02  0.68974821471E+02  0.00000000000E+00 0. -1.
         -5    1    3    3    0  503 -0.10304096097E+02 -0.94145388948E+02  0.66067926932E+01  0.95054028669E+02  0.47000000000E+01 0.  1.
         11    1    4    4    0    0  0.55854207625E+02 -0.54401120007E+02 -0.52458378146E+02  0.93973697411E+02  0.00000000000E+00 0. -1.
        -12    1    4    4    0    0  0.72325791619E+00 -0.14855015361E+02 -0.84549270990E+02  0.85847386729E+02  0.00000000000E+00 0.  1.
</event>
<event>
12    1  0.1046899E+000  0.1904934E+03  0.7818608E-02  0.1158123E+00
         21   -1    0    0  503  502  0.00000000000E+00  0.00000000000E+00  0.45979500802E+03  0.45979500802E+03  0.00000000000E+00 0. -1.
         21   -1    0    0  501  503 -0.00000000000E+00 -0.00000000000E+00 -0.83149389815E+02  0.83149389815E+02  0.00000000000E+00 0. -1.
          6    2    1    2  501    0 -0.29247391510E+02 -0.75817609318E+02  0.25070962725E+03  0.31458585609E+03  0.17177084694E+03 0.  0.
         24    2    3    3    0    0 -0.15623719320E+02 -0.70469348434E+02  0.57869747709E+02  0.12113426658E+03  0.78195736245E+02 0.  0.
         -6    2    1    2    0  502  0.29247391510E+02  0.75817609318E+02  0.12593599095E+03  0.22835854175E+03  0.17229053944E+03 0.  0.
        -24    2    5    5    0    0  0.57216916468E+02 -0.10004775518E+02  0.82031879170E+02  0.12787253727E+03  0.79046097460E+02 0.  0.
          5    1    3    3  501    0 -0.13623672189E+02 -0.53482608839E+01  0.19283987955E+03  0.19345158950E+03  0.47000000000E+01 0. -1.
        -13    1    4    4    0    0  0.18674143160E+01 -0.84079909616E+02  0.48397859950E+02  0.97032320827E+02  0.00000000000E+00 0.  1.
         14    1    4    4    0    0 -0.17491133636E+02  0.13610561182E+02  0.94718877591E+01  0.24101945758E+02  0.00000000000E+00 0. -1.
         -5    1    5    5    0  502 -0.27969524958E+02  0.85822384836E+02  0.43904111781E+02  0.10048600448E+03  0.47000000000E+01 0.  1.
         13    1    6    6    0    0  0.70501090739E+02 -0.62292700052E+00  0.85926856034E+02  0.11114952281E+03  0.00000000000E+00 0. -1.
        -14    1    6    6    0    0 -0.13284174272E+02 -0.93818485178E+01 -0.38949768635E+01  0.16723014455E+02  0.00000000000E+00 0.  1.
</event>
<event>
12    1  0.1046899E+000  0.2059546E+03  0.7818608E-02  0.1145212E+00
         21   -1    0    0  503  502  0.00000000000E+00  0.00000000000E+00  0.63698785641E+03  0.63698785641E+03  0.00000000000E+00 0.  1.
         21   -1    0    0  501  503 -0.00000000000E+00 -0.00000000000E+00 -0.69493287852E+02  0.69493287852E+02  0.00000000000E+00 0.  1.
          6    2    1    2  501    0  0.88936192468E+02  0.66185795745E+02  0.36473413760E+03  0.41886547230E+03  0.17357156123E+03 0.  0.
         24    2    3    3    0    0  0.12631585806E+03  0.69995638757E+02  0.27949011276E+03  0.32558960150E+03  0.83897437578E+02 0.  0.
         -6    2    1    2    0  502 -0.88936192468E+02 -0.66185795745E+02  0.20276043096E+03  0.28761567196E+03  0.17123310575E+03 0.  0.
        -24    2    5    5    0    0  0.17777283971E+02 -0.45599557251E+02  0.75577888090E+02  0.12025663133E+03  0.79713792810E+02 0.  0.
          5    1    3    3  501    0 -0.37379665590E+02 -0.38098430120E+01  0.85244024837E+02  0.93275870802E+02  0.47000000000E+01 0. -1.
        -13    1    4    4    0    0  0.10684234709E+02  0.36807775063E+02  0.11898419867E+03  0.12500481874E+03  0.00000000000E+00 0.  1.
         14    1    4    4    0    0  0.11563162335E+03  0.33187863693E+02  0.16050591409E+03  0.20058478276E+03  0.00000000000E+00 0. -1.
         -5    1    5    5    0  502 -0.10671347644E+03 -0.20586238494E+02  0.12718254287E+03  0.16735904063E+03  0.47000000000E+01 0.  1.
         13    1    6    6    0    0 -0.42533521254E+01  0.18222717816E+02 -0.26532255650E+00  0.18714402073E+02  0.00000000000E+00 0. -1.
        -14    1    6    6    0    0  0.22030636096E+02 -0.63822275067E+02  0.75843210646E+02  0.10154222926E+03  0.00000000000E+00 0.  1.
</event>
<event>
12    1  0.1046899E+000  0.2269868E+03  0.7818608E-02  0.1128805E+00
         21   -1    0    0  503  502  0.00000000000E+00  0.00000000000E+00  0.53154667140E+03  0.53154667140E+03  0.00000000000E+00 0.  1.
         21   -1    0    0  501  503 -0.00000000000E+00 -0.00000000000E+00 -0.18475852457E+03  0.18475852457E+03  0.00000000000E+00 0. -1.
          6    2    1    2  501    0  0.14502522157E+03 -0.33008276334E+02 -0.73658748391E+02  0.23849917428E+03  0.17127283416E+03 0.  0.
         24    2    3    3    0    0  0.16427801937E+03 -0.12249661288E+02 -0.30487318248E+02  0.18665852708E+03  0.82308002689E+02 0.  0.
         -6    2    1    2    0  502 -0.14502522157E+03  0.33008276334E+02  0.42044689522E+03  0.47780602169E+03  0.17146761054E+03 0.  0.
        -24    2    5    5    0    0 -0.10762218829E+03  0.88509907828E+02  0.30371471693E+03  0.34316609654E+03  0.78126828531E+02 0.  0.
          5    1    3    3  501    0 -0.19252797805E+02 -0.20758615046E+02 -0.43171430143E+02  0.51840647204E+02  0.47000000000E+01 0. -1.
        -13    1    4    4    0    0  0.15274749305E+03 -0.44549154460E+01 -0.51670847776E+02  0.16131187003E+03  0.00000000000E+00 0.  1.
         14    1    4    4    0    0  0.11530526324E+02 -0.77947458425E+01  0.21183529528E+02  0.25346657044E+02  0.00000000000E+00 0. -1.
         -5    1    5    5    0  502 -0.37403033280E+02 -0.55501631493E+02  0.11673217829E+03  0.13463992515E+03  0.47000000000E+01 0.  1.
         11    1    6    6    0    0 -0.47310596816E+02  0.11979150213E+02  0.43759306952E+02  0.65548985925E+02  0.00000000000E+00 0. -1.
        -12    1    6    6    0    0 -0.60311591470E+02  0.76530757614E+02  0.25995540998E+03  0.27761711061E+03  0.00000000000E+00 0.  1.
</event>
<event>
12    1  0.1195402E+000  0.2775939E+03  0.7818608E-02  0.1097016E+00
         21   -1    0    0  501  502  0.00000000000E+00  0.00000000000E+00  0.30177806848E+03  0.30177806848E+03  0.00000000000E+00 0. -1.
         21   -1    0    0  502  503 -0.00000000000E+00 -0.00000000000E+00 -0.68125653925E+03  0.68125653925E+03  0.00000000000E+00 0. -1.
         -6    2    1    2    0  503 -0.21634356998E+03  0.25792471742E+02  0.19890719688E+03  0.34150030549E+03  0.17201335358E+03 0.  0.
        -24    2    3    3    0    0 -0.93128107336E+02  0.62506298898E+02  0.15786926315E+03  0.20645898832E+03  0.71573234059E+02 0.  0.
          6    2    1    2  501    0  0.21634356998E+03 -0.25792471742E+02 -0.57838566765E+03  0.64153430223E+03  0.17194908702E+03 0.  0.
         24    2    5    5    0    0  0.18853664950E+03 -0.26198878132E+02 -0.57762232701E+03  0.61331971945E+03  0.79253240878E+02 0.  0.
          5    1    5    5  501    0  0.27806920477E+02  0.40640639009E+00 -0.76334064341E+00  0.28214582781E+02  0.47000000000E+01 0. -1.
        -11    1    6    6    0    0  0.17346814495E+03 -0.27825208077E+02 -0.42407472113E+03  0.45902593458E+03  0.00000000000E+00 0.  1.
         12    1    6    6    0    0  0.15068504548E+02  0.16263299449E+01 -0.15354760588E+03  0.15429378487E+03  0.00000000000E+00 0. -1.
         -5    1    3    3    0  503 -0.12321546264E+03 -0.36713827156E+02  0.41037933734E+02  0.13504131717E+03  0.47000000000E+01 0.  1.
         11    1    4    4    0    0  0.71486737562E+01 -0.74660390579E+01  0.17266815628E+02  0.20124318563E+02  0.00000000000E+00 0. -1.
        -12    1    4    4    0    0 -0.10027678109E+03  0.69972337956E+02  0.14060244752E+03  0.18633466976E+03  0.00000000000E+00 0.  1.
</event>
<event>
12    1  0.1046899E+000  0.2462996E+03  0.7818608E-02  0.1117582E+00
         21   -1    0    0  501  502  0.00000000000E+00  0.00000000000E+00  0.21000076891E+03  0.21000076891E+03  0.00000000000E+00 0. -1.
         21   -1    0    0  502  503 -0.00000000000E+00 -0.00000000000E+00 -0.27760337862E+03  0.27760337862E+03  0.00000000000E+00 0. -1.
         -6    2    1    2    0  503 -0.10262608501E+03 -0.12206007335E+03 -0.13074051880E+02  0.24664640008E+03  0.18770386520E+03 0.  0.
        -24    2    3    3    0    0  0.43230992958E+01 -0.89763883791E+02  0.40077357362E+02  0.12283875013E+03  0.73531761433E+02 0.  0.
          6    2    1    2  501    0  0.10262608501E+03  0.12206007335E+03 -0.54528557835E+02  0.24095774744E+03  0.17221061989E+03 0.  0.
         24    2    5    5    0    0  0.26709356595E+02 -0.24444737988E+01 -0.23797537895E+02  0.91856380918E+02  0.84568946568E+02 0.  0.
          5    1    5    5  501    0  0.75916728412E+02  0.12450454715E+03 -0.30731019939E+02  0.14910136652E+03  0.47000000000E+01 0. -1.
        -11    1    6    6    0    0  0.23235312515E+02  0.20295150078E+02 -0.48893337611E+02  0.57812899314E+02  0.00000000000E+00 0.  1.
         12    1    6    6    0    0  0.34740440806E+01 -0.22739623876E+02  0.25095799716E+02  0.34043481604E+02  0.00000000000E+00 0. -1.
         -5    1    3    3    0  503 -0.10694918430E+03 -0.32296189556E+02 -0.53151409242E+02  0.12380764995E+03  0.47000000000E+01 0.  1.
         11    1    4    4    0    0  0.18856407611E+02 -0.47830069029E+02 -0.13608771139E+02  0.53183439746E+02  0.00000000000E+00 0. -1.
        -12    1    4    4    0    0 -0.14533308315E+02 -0.41933814762E+02  0.53686128502E+02  0.69655310383E+02  0.00000000000E+00 0.  1.
</event>
<event>
12    1  0.1046899E+000  0.3031413E+03  0.7818608E-02  0.1083828E+00
         21   -1    0    0  503  502  0.00000000000E+00  0.00000000000E+00  0.54241518787E+03  0.54241518787E+03  0.00000000000E+00 0. -1.
         21   -1    0    0  501  503 -0.00000000000E+00 -0.00000000000E+00 -0.30320791461E+03  0.30320791461E+03  0.00000000000E+00 0. -1.
          6    2    1    2  501    0  0.97274023179E+02 -0.23016521087E+03  0.40129382806E+03  0.50292284681E+03  0.17162865007E+03 0.  0.
         24    2    3    3    0    0  0.70014177032E+02 -0.73628128238E+02  0.22962856417E+03  0.26896128955E+03  0.96373292661E+02 0.  0.
         -6    2    1    2    0  502 -0.97274023179E+02  0.23016521087E+03 -0.16208655481E+03  0.34270025567E+03  0.16950856647E+03 0.  0.
        -24    2    5    5    0    0 -0.73835999163E+02  0.49270228783E+02 -0.54430001691E+02  0.13084096524E+03  0.79230189218E+02 0.  0.
          5    1    3    3  501    0  0.27259846147E+02 -0.15653708263E+03  0.17166526389E+03  0.23396155727E+03  0.47000000000E+01 0. -1.
        -13    1    4    4    0    0  0.53636997158E+02 -0.80694337942E+02  0.10427024836E+03  0.14234039600E+03  0.00000000000E+00 0.  1.
         14    1    4    4    0    0  0.16377179874E+02  0.70662097041E+01  0.12535831581E+03  0.12662089355E+03  0.00000000000E+00 0. -1.
         -5    1    5    5    0  502 -0.23438024016E+02  0.18089498209E+03 -0.10765655312E+03  0.21185929043E+03  0.47000000000E+01 0.  1.
         13    1    6    6    0    0 -0.55196917435E+02  0.40744002818E+02  0.41971189840E+01  0.68734192858E+02  0.00000000000E+00 0. -1.
        -14    1    6    6    0    0 -0.18639081727E+02  0.85262259647E+01 -0.58627120675E+02  0.62106772380E+02  0.00000000000E+00 0.  1.
</event>
<event>
12    1  0.1046899E+000  0.2500434E+03  0.7818608E-02  0.1113955E+00
         21   -1    0    0  501  502  0.00000000000E+00  0.00000000000E+00  0.19718727546E+03  0.19718727546E+03  0.00000000000E+00 0. -1.
         21   -1    0    0  502  503 -0.00000000000E+00 -0.00000000000E+00 -0.31536641841E+03  0.31536641841E+03  0.00000000000E+00 0. -1.
         -6    2    1    2    0  503 -0.87449617624E+02 -0.15766833845E+03 -0.86206305158E+02  0.26047441652E+03  0.16705883407E+03 0.  0.
        -24    2    3    3    0    0 -0.44287403597E+02 -0.77886721761E+02  0.18868610982E+02  0.12158269221E+03  0.79991318405E+02 0.  0.
          6    2    1    2  501    0  0.87449617624E+02  0.15766833845E+03 -0.31972837796E+02  0.25207927735E+03  0.17324825869E+03 0.  0.
         24    2    5    5    0    0  0.55752627130E+02  0.58764080984E+02  0.46010933963E+02  0.12211655189E+03  0.78954883033E+02 0.  0.
          5    1    5    5  501    0  0.31696990494E+02  0.98904257463E+02 -0.77983771760E+02  0.12996272546E+03  0.47000000000E+01 0. -1.
        -13    1    6    6    0    0  0.13487433592E+01  0.56038432046E+02  0.36310201757E+02  0.66787391973E+02  0.00000000000E+00 0.  1.
         14    1    6    6    0    0  0.54403883771E+02  0.27256489374E+01  0.97007322061E+01  0.55329159914E+02  0.00000000000E+00 0. -1.
         -5    1    3    3    0  503 -0.43162214026E+02 -0.79781616686E+02 -0.10507491614E+03  0.13889172431E+03  0.47000000000E+01 0.  1.
         13    1    4    4    0    0 -0.54793083066E+02 -0.23510622777E+02  0.27275388347E+02  0.65566593206E+02  0.00000000000E+00 0. -1.
        -14    1    4    4    0    0  0.10505679468E+02 -0.54376098984E+02 -0.84067773641E+01  0.56016099002E+02  0.00000000000E+00 0.  1.
</event>
<event>
12    1  0.1046899E+000  0.5229326E+03  0.7818608E-02  0.1008255E+00
         21   -1    0    0  503  502  0.00000000000E+00  0.00000000000E+00  0.83720725835E+03  0.83720725835E+03  0.00000000000E+00 0. -1.
         21   -1    0    0  501  503 -0.00000000000E+00 -0.00000000000E+00 -0.32591383236E+03  0.32591383236E+03  0.00000000000E+00 0. -1.
          6    2    1    2  501    0 -0.43876282368E+03 -0.21555021484E+03  0.20852044731E+03  0.56297361421E+03  0.18569814967E+03 0.  0.
         24    2    3    3    0    0 -0.38990412243E+03 -0.23909111983E+03  0.16308876074E+03  0.49206892438E+03  0.79649822263E+02 0.  0.
         -6    2    1    2    0  502  0.43876282368E+03  0.21555021484E+03  0.30277297868E+03  0.60014747650E+03  0.17184529780E+03 0.  0.
        -24    2    5    5    0    0  0.41157326442E+03  0.16445491220E+03  0.22648577551E+03  0.50427344743E+03  0.80981066538E+02 0.  0.
          5    1    3    3  501    0 -0.48858701250E+02  0.23540904994E+02  0.45431686573E+02  0.70904689835E+02  0.47000000000E+01 0. -1.
        -11    1    4    4    0    0 -0.19885369047E+03 -0.13704582814E+03  0.12573956628E+03  0.27227704228E+03  0.00000000000E+00 0.  1.
         12    1    4    4    0    0 -0.19105043197E+03 -0.10204529169E+03  0.37349194461E+02  0.21979188210E+03  0.00000000000E+00 0. -1.
         -5    1    5    5    0  502  0.27189559259E+02  0.51095302634E+02  0.76287203167E+02  0.95874029074E+02  0.47000000000E+01 0.  1.
         11    1    6    6    0    0  0.48101128889E+02  0.27180555597E+02  0.14309513075E+01  0.55267972865E+02  0.00000000000E+00 0. -1.
        -12    1    6    6    0    0  0.36347213553E+03  0.13727435661E+03  0.22505482420E+03  0.44900547456E+03  0.00000000000E+00 0.  1.
</event>
<event>
12    1  0.1046899E+000  0.1796563E+03  0.7818608E-02  0.1168654E+00
         21   -1    0    0  503  502  0.00000000000E+00  0.00000000000E+00  0.10448464464E+03  0.10448464464E+03  0.00000000000E+00 0.  1.
         21   -1    0    0  501  503 -0.00000000000E+00 -0.00000000000E+00 -0.36563906424E+03  0.36563906424E+03  0.00000000000E+00 0.  1.
          6    2    1    2  501    0 -0.18049258276E+02  0.38868153040E+02 -0.34419539777E+02  0.18083992932E+03  0.17228426008E+03 0.  0.
         24    2    3    3    0    0  0.26816604486E+02 -0.17189844588E+02 -0.56895075462E+02  0.10545634726E+03  0.82881665843E+02 0.  0.
         -6    2    1    2    0  502  0.18049258276E+02 -0.38868153040E+02 -0.22673487982E+03  0.28928377956E+03  0.17447031365E+03 0.  0.
        -24    2    5    5    0    0  0.46438085572E+02  0.13269373326E+02 -0.20599667603E+03  0.22622499534E+03  0.80065884884E+02 0.  0.
          5    1    3    3  501    0 -0.44865862762E+02  0.56057997628E+02  0.22475535685E+02  0.75383582057E+02  0.47000000000E+01 0. -1.
        -13    1    4    4    0    0  0.22522214113E+02  0.45399258551E+01  0.16827264395E+02  0.28478375697E+02  0.00000000000E+00 0.  1.
         14    1    4    4    0    0  0.42943903723E+01 -0.21729770443E+02 -0.73722339857E+02  0.76977971564E+02  0.00000000000E+00 0. -1.
         -5    1    5    5    0  502 -0.28388827296E+02 -0.52137526367E+02 -0.20738203797E+02  0.63058784223E+02  0.47000000000E+01 0.  1.
         11    1    6    6    0    0  0.19967579813E+02  0.45044332196E+02 -0.13919098355E+03  0.14765441412E+03  0.00000000000E+00 0. -1.
        -12    1    6    6    0    0  0.26470505760E+02 -0.31774958870E+02 -0.66805692476E+02  0.78570581222E+02  0.00000000000E+00 0.  1.
</event>
<event>
12    1  0.1046899E+000  0.1852561E+03  0.7818608E-02  0.1165899E+00
         21   -1    0    0  501  502  0.00000000000E+00  0.00000000000E+00  0.33404650882E+03  0.33404650882E+03  0.00000000000E+00 0.  1.
         21   -1    0    0  502  503 -0.00000000000E+00 -0.00000000000E+00 -0.10813455971E+03  0.10813455971E+03  0.00000000000E+00 0.  1.
         -6    2    1    2    0  503  0.49082335478E+02 -0.54643172470E+02  0.19118604502E+03  0.26621782652E+03  0.17007314718E+03 0.  0.
        -24    2    3    3    0    0  0.13556938636E+02 -0.53557200316E+02  0.34752456274E+02  0.10572860307E+03  0.83178362563E+02 0.  0.
          6    2    1    2  501    0 -0.49082335478E+02  0.54643172470E+02  0.34725904097E+02  0.17596324201E+03  0.15608402279E+03 0.  0.
         24    2    5    5    0    0 -0.54829237576E+02  0.37535060460E+00 -0.18782214060E+02  0.99391497338E+02  0.80743495074E+02 0.  0.
          5    1    5    5  501    0  0.57469020985E+01  0.54267821865E+02  0.53508118157E+02  0.76571744674E+02  0.47000000000E+01 0. -1.
        -13    1    6    6    0    0  0.10333563366E+02 -0.80329266751E+01 -0.30006288580E+02  0.32736643034E+02  0.00000000000E+00 0.  1.
         14    1    6    6    0    0 -0.65162800942E+02  0.84082772797E+01  0.11224074520E+02  0.66654854304E+02  0.00000000000E+00 0. -1.
         -5    1    3    3    0  503  0.35525396842E+02 -0.10859721537E+01  0.15643358874E+03  0.16048922345E+03  0.47000000000E+01 0.  1.
         13    1    4    4    0    0  0.10021617728E+02 -0.62069331731E+01 -0.26043941344E+02  0.28587509896E+02  0.00000000000E+00 0. -1.
        -14    1    4    4    0    0  0.35353209076E+01 -0.47350267143E+02  0.60796397618E+02  0.77141093172E+02  0.00000000000E+00 0.  1.
</event>
<event>
12    1  0.1046899E+000  0.1785196E+03  0.7818608E-02  0.1169341E+00
         21   -1    0    0  501  502  0.00000000000E+00  0.00000000000E+00  0.22730577258E+03  0.22730577258E+03  0.00000000000E+00 0. -1.
         21   -1    0    0  502  503 -0.00000000000E+00 -0.00000000000E+00 -0.19981775979E+03  0.19981775979E+03  0.00000000000E+00 0. -1.
         -6    2    1    2    0  503 -0.41729393991E+02  0.22049170448E+02  0.13070828750E+03  0.22125525301E+03  0.17216771568E+03 0.  0.
        -24    2    3    3    0    0  0.13311120156E+02  0.22460864939E+02  0.14194327967E+03  0.16488200812E+03  0.79727696472E+02 0.  0.
          6    2    1    2  501    0  0.41729393991E+02 -0.22049170448E+02 -0.10322027472E+03  0.20586827936E+03  0.17175510209E+03 0.  0.
         24    2    5    5    0    0  0.22481145855E+02  0.71233521335E+01  0.18165645658E+02  0.79463521559E+02  0.73677109823E+02 0.  0.
          5    1    5    5  501    0  0.19248248136E+02 -0.29172522581E+02 -0.12138592037E+03  0.12640475780E+03  0.47000000000E+01 0. -1.
        -13    1    6    6    0    0  0.29034898828E+02 -0.93381129922E+01  0.40660873138E+02  0.50828459632E+02  0.00000000000E+00 0.  1.
         14    1    6    6    0    0 -0.65537529737E+01  0.16461465126E+02 -0.22495227481E+02  0.28635061927E+02  0.00000000000E+00 0. -1.
         -5    1    3    3    0  503 -0.55040514147E+02 -0.41169449110E+00 -0.11234992169E+02  0.56373244886E+02  0.47000000000E+01 0.  1.
         11    1    4    4    0    0  0.10219913733E+02  0.45978628043E+01 -0.80493700431E+01  0.13797801896E+02  0.00000000000E+00 0. -1.
        -12    1    4    4    0    0  0.30912064235E+01  0.17863002135E+02  0.14999264972E+03  0.15108420623E+03  0.00000000000E+00 0.  1.
</event>
<event>
12    1  0.1046899E+000  0.1811529E+03  0.7818608E-02  0.1167216E+00
         21   -1    0    0  501  502  0.00000000000E+00  0.00000000000E+00  0.10291352301E+04  0.10291352301E+04  0.00000000000E+00 0.  1.
         21   -1    0    0  502  503 -0.00000000000E+00 -0.00000000000E+00 -0.38894486916E+03  0.38894486916E+03  0.00000000000E+00 0.  1.
         -6    2    1    2    0  503  0.36265854172E+02 -0.39027030436E+02  0.99996648943E+03  0.10162427578E+04  0.17314168025E+03 0.  0.
        -24    2    3    3    0    0  0.64724925425E+02 -0.63249030787E+02  0.46068640777E+03  0.47564889865E+03  0.76289924723E+02 0.  0.
          6    2    1    2  501    0 -0.36265854172E+02  0.39027030436E+02 -0.35977612845E+03  0.40183734153E+03  0.17086856108E+03 0.  0.
         24    2    5    5    0    0 -0.33985509128E+02  0.65672102824E+02 -0.12658127940E+03  0.16706705492E+03  0.80129524045E+02 0.  0.
          5    1    5    5  501    0 -0.22803450441E+01 -0.26645072388E+02 -0.23319484905E+03  0.23477028662E+03  0.47000000000E+01 0. -1.
        -13    1    6    6    0    0 -0.89288091341E+01  0.36148323322E+02 -0.12261180896E+03  0.12814086237E+03  0.00000000000E+00 0.  1.
         14    1    6    6    0    0 -0.25056699994E+02  0.29523779502E+02 -0.39694704376E+01  0.38926192547E+02  0.00000000000E+00 0. -1.
         -5    1    3    3    0  503 -0.28459071254E+02  0.24222000352E+02  0.53928008166E+03  0.54059385912E+03  0.47000000000E+01 0.  1.
         11    1    4    4    0    0  0.43825852878E+02 -0.69256595780E+02  0.43170814136E+03  0.43941904915E+03  0.00000000000E+00 0. -1.
        -12    1    4    4    0    0  0.20899072547E+02  0.60075649924E+01  0.28978266407E+02  0.36229849495E+02  0.00000000000E+00 0.  1.
</event>
<event>
12    1  0.1046899E+000  0.2144424E+03  0.7818608E-02  0.1138222E+00
         21   -1    0    0  501  502  0.00000000000E+00  0.00000000000E+00  0.52860561985E+03  0.52860561985E+03  0.00000000000E+00 0. -1.
         21   -1    0    0  502  503 -0.00000000000E+00 -0.00000000000E+00 -0.89323941551E+02  0.89323941551E+02  0.00000000000E+00 0. -1.
         -6    2    1    2    0  503  0.12107666585E+03 -0.35790500865E+02  0.27198372534E+03  0.34594768241E+03  0.17252284819E+03 0.  0.
        -24    2    3    3    0    0  0.69719274022E+02  0.46063141158E+01  0.57155498641E+02  0.12135306684E+03  0.81103763822E+02 0.  0.
          6    2    1    2  501    0 -0.12107666585E+03  0.35790500865E+02  0.16729795296E+03  0.27198187900E+03  0.17333498917E+03 0.  0.
         24    2    5    5    0    0 -0.13982882119E+03  0.61743356800E+02  0.10532900508E+03  0.20207168973E+03  0.79840009626E+02 0.  0.
          5    1    5    5  501    0  0.18752155340E+02 -0.25952855935E+02  0.61968947883E+02  0.69910189263E+02  0.47000000000E+01 0. -1.
        -13    1    6    6    0    0 -0.69987387214E+02  0.71683315991E+02  0.75650480619E+02  0.12553775280E+03  0.00000000000E+00 0.  1.
         14    1    6    6    0    0 -0.69841433974E+02 -0.99399591905E+01  0.29678524458E+02  0.76533936931E+02  0.00000000000E+00 0. -1.
         -5    1    3    3    0  503  0.51357391826E+02 -0.40396814981E+02  0.21482822670E+03  0.22459461557E+03  0.47000000000E+01 0.  1.
         11    1    4    4    0    0 -0.38951063442E+01 -0.21180669545E+02  0.33535302879E+02  0.39854851085E+02  0.00000000000E+00 0. -1.
        -12    1    4    4    0    0  0.73614380366E+02  0.25786983661E+02  0.23620195762E+02  0.81498215753E+02  0.00000000000E+00 0.  1.
</event>
<event>
12    1  0.1046899E+000  0.2276084E+03  0.7818608E-02  0.1128425E+00
         21   -1    0    0  503  502  0.00000000000E+00  0.00000000000E+00  0.59869087782E+03  0.59869087782E+03  0.00000000000E+00 0. -1.
         21   -1    0    0  501  503 -0.00000000000E+00 -0.00000000000E+00 -0.10186687514E+03  0.10186687514E+03  0.00000000000E+00 0. -1.
          6    2    1    2  501    0  0.85389753719E+02  0.12212289191E+03  0.38540443017E+03  0.44759596195E+03  0.17204696913E+03 0.  0.
         24    2    3    3    0    0  0.10657848374E+03  0.77105784348E+02  0.18455890615E+03  0.24062611687E+03  0.80837263084E+02 0.  0.
         -6    2    1    2    0  502 -0.85389753719E+02 -0.12212289191E+03  0.11141957251E+03  0.25296179101E+03  0.17137659060E+03 0.  0.
        -24    2    5    5    0    0 -0.43256668547E+02  0.27461580575E+01  0.70368726388E+02  0.11485046464E+03  0.79750804487E+02 0.  0.
          5    1    3    3  501    0 -0.21188730020E+02  0.45017107560E+02  0.20084552402E+03  0.20696984508E+03  0.47000000000E+01 0. -1.
        -13    1    4    4    0    0  0.36599696059E+01  0.45882066515E+02  0.67063378616E+02  0.81339142832E+02  0.00000000000E+00 0.  1.
         14    1    4    4    0    0  0.10291851413E+03  0.31223717833E+02  0.11749552753E+03  0.15928697404E+03  0.00000000000E+00 0. -1.
         -5    1    5    5    0  502 -0.42133085172E+02 -0.12486904997E+03  0.41050846124E+02  0.13811132637E+03  0.47000000000E+01 0.  1.
         11    1    6    6    0    0 -0.59672999342E+02 -0.12164370343E+02  0.69845446385E+02  0.92667281912E+02  0.00000000000E+00 0. -1.
        -12    1    6    6    0    0  0.16416330794E+02  0.14910528400E+02  0.52328000339E+00  0.22183182727E+02  0.00000000000E+00 0.  1.
</event>
<event>
12    1  0.1046899E+000  0.2002585E+03  0.7818608E-02  0.1149606E+00
         21   -1    0    0  503  502  0.00000000000E+00  0.00000000000E+00  0.51975174420E+03  0.51975174420E+03  0.00000000000E+00 0. -1.
         21   -1    0    0  501  503 -0.00000000000E+00 -0.00000000000E+00 -0.11962205258E+03  0.11962205258E+03  0.00000000000E+00 0. -1.
          6    2    1    2  501    0  0.91554665259E+02 -0.45702931577E+02  0.39101429572E+03  0.43931270926E+03  0.17214082135E+03 0.  0.
         24    2    3    3    0    0  0.91252342789E+02  0.61709642853E+01  0.34671181525E+03  0.37093294437E+03  0.94958388353E+02 0.  0.
         -6    2    1    2    0  502 -0.91554665259E+02  0.45702931577E+02  0.91153958933E+01  0.20006108752E+03  0.17166925646E+03 0.  0.
        -24    2    5    5    0    0 -0.23820308384E+02 -0.35367537209E+02  0.28830771962E+02  0.92491807225E+02  0.76845632355E+02 0.  0.
          5    1    3    3  501    0  0.30232247087E+00 -0.51873895863E+02  0.44302480471E+02  0.68379764893E+02  0.47000000000E+01 0. -1.
        -13    1    4    4    0    0  0.68312192539E+02 -0.34024879473E+02  0.14365250502E+03  0.16266619277E+03  0.00000000000E+00 0.  1.
         14    1    4    4    0    0  0.22940150249E+02  0.40195843758E+02  0.20305931023E+03  0.20826675159E+03  0.00000000000E+00 0. -1.
         -5    1    5    5    0  502 -0.67734356875E+02  0.81070468786E+02 -0.19715376069E+02  0.10756928030E+03  0.47000000000E+01 0.  1.
         13    1    6    6    0    0 -0.34482627256E+02 -0.23453085405E+02 -0.16175625734E+02  0.44729740278E+02  0.00000000000E+00 0. -1.
        -14    1    6    6    0    0  0.10662318871E+02 -0.11914451804E+02  0.45006397696E+02  0.47762066947E+02  0.00000000000E+00 0.  1.
</event>
<event>
12    1  0.1046899E+000  0.2197082E+03  0.7818608E-02  0.1134182E+00
         21   -1    0    0  501  502  0.00000000000E+00  0.00000000000E+00  0.29425077821E+03  0.29425077821E+03  0.00000000000E+00 0.  1.
         21   -1    0    0  502  503 -0.00000000000E+00 -0.00000000000E+00 -0.16645925161E+03  0.16645925161E+03  0.00000000000E+00 0.  1.
         -6    2    1    2    0  503  0.17689200177E+02 -0.13521257826E+03  0.93357906282E+02  0.23831994890E+03  0.17171298802E+03 0.  0.
        -24    2    3    3    0    0  0.51645108475E+02 -0.19052119705E+02  0.31312882109E+02  0.10223934460E+03  0.80263232580E+02 0.  0.
          6    2    1    2  501    0 -0.17689200177E+02  0.13521257826E+03  0.34433620315E+02  0.22239008093E+03  0.17226817688E+03 0.  0.
         24    2    5    5    0    0  0.16041797956E+02  0.71276728087E+02 -0.43616052594E+02  0.11590339343E+03  0.78698953720E+02 0.  0.
          5    1    5    5  501    0 -0.33730998133E+02  0.63935850176E+02  0.78049672910E+02  0.10648668750E+03  0.47000000000E+01 0. -1.
        -13    1    6    6    0    0 -0.21621622988E+02  0.26215384670E+02 -0.45924118261E+02  0.57129376087E+02  0.00000000000E+00 0.  1.
         14    1    6    6    0    0  0.37663420944E+02  0.45061343417E+02  0.23080656670E+01  0.58774017345E+02  0.00000000000E+00 0. -1.
         -5    1    3    3    0  503 -0.33955908298E+02 -0.11616045856E+03  0.62045024173E+02  0.13608060430E+03  0.47000000000E+01 0.  1.
         13    1    4    4    0    0  0.32554636765E+02  0.18552587349E+02 -0.14310732414E+02  0.40109848347E+02  0.00000000000E+00 0. -1.
        -14    1    4    4    0    0  0.19090471710E+02 -0.37604707054E+02  0.45623614523E+02  0.62129496255E+02  0.00000000000E+00 0.  1.
</event>
<event>
12    1  0.1046899E+000  0.1848225E+03  0.7818608E-02  0.1163279E+00
         21   -1    0    0  501  502  0.00000000000E+00  0.00000000000E+00  0.45319028370E+03  0.45319028370E+03  0.00000000000E+00 0. -1.
         21   -1    0    0  502  503 -0.00000000000E+00 -0.00000000000E+00 -0.89462824166E+02  0.89462824166E+02  0.00000000000E+00 0. -1.
         -6    2    1    2    0  503 -0.50540447701E+02  0.45074137491E+02  0.73660914177E+02  0.19870842712E+03  0.17167729613E+03 0.  0.
        -24    2    3    3    0    0  0.34758435972E+02  0.25608985283E+01  0.45951671133E+02  0.99344614825E+02  0.80889364828E+02 0.  0.
          6    2    1    2  501    0  0.50540447701E+02 -0.45074137491E+02  0.29006654535E+03  0.34394468075E+03  0.17196897382E+03 0.  0.
         24    2    5    5    0    0 -0.40981272286E+01 -0.37961673870E+02  0.27150811681E+03  0.28561401746E+03  0.80005163249E+02 0.  0.
          5    1    5    5  501    0  0.54638574930E+02 -0.71124636211E+01  0.18558428539E+02  0.58330663283E+02  0.47000000000E+01 0. -1.
        -11    1    6    6    0    0  0.38005526508E+02 -0.18206365750E+02  0.12925459071E+03  0.13595087722E+03  0.00000000000E+00 0.  1.
         12    1    6    6    0    0 -0.42103653737E+02 -0.19755308120E+02  0.14225352611E+03  0.14966314024E+03  0.00000000000E+00 0. -1.
         -5    1    3    3    0  503 -0.85298883673E+02  0.42513238963E+02  0.27709243045E+02  0.99363812291E+02  0.47000000000E+01 0.  1.
         11    1    4    4    0    0 -0.11622415246E+01 -0.17620810106E+02 -0.16735506480E+02  0.24329425215E+02  0.00000000000E+00 0. -1.
        -12    1    4    4    0    0  0.35920677496E+02  0.20181708634E+02  0.62687177612E+02  0.75015189610E+02  0.00000000000E+00 0.  1.
</event>
<event>
12    1  0.1046899E+000  0.1976376E+03  0.7818608E-02  0.1152211E+00
         21   -1    0    0  501  502  0.00000000000E+00  0.00000000000E+00  0.12495239375E+03  0.12495239375E+03  0.00000000000E+00 0. -1.
         21   -1    0    0  502  503 -0.00000000000E+00 -0.00000000000E+00 -0.36350143623E+03  0.36350143623E+03  0.00000000000E+00 0. -1.
         -6    2    1    2    0  503 -0.29327177334E+02  0.91001155693E+02 -0.21420958797E+03  0.29145557615E+03  0.17297199665E+03 0.  0.
        -24    2    3    3    0    0 -0.16884780742E+02  0.10567580211E+03 -0.78234956407E+02  0.15404615541E+03  0.78466799477E+02 0.  0.
          6    2    1    2  501    0  0.29327177334E+02 -0.91001155693E+02 -0.24339454508E+02  0.19699825383E+03  0.17051278338E+03 0.  0.
         24    2    5    5    0    0  0.77289465834E+02 -0.25224081888E+02 -0.12720511055E+02  0.11463263962E+03  0.79805481195E+02 0.  0.
          5    1    5    5  501    0 -0.47962288500E+02 -0.65777073805E+02 -0.11618943453E+02  0.82365614206E+02  0.47000000000E+01 0. -1.
        -11    1    6    6    0    0  0.20422678710E+02 -0.36403502647E+02 -0.33022914415E+02  0.53224183292E+02  0.00000000000E+00 0.  1.
         12    1    6    6    0    0  0.56866787124E+02  0.11179420759E+02  0.20302403361E+02  0.61408456328E+02  0.00000000000E+00 0. -1.
         -5    1    3    3    0  503 -0.12442396592E+02 -0.14674646415E+02 -0.13597463157E+03  0.13740942075E+03  0.47000000000E+01 0.  1.
         11    1    4    4    0    0  0.16433715202E+02 -0.25959758239E+01 -0.21974574821E+02  0.27562438651E+02  0.00000000000E+00 0. -1.
        -12    1    4    4    0    0 -0.33318495945E+02  0.10827177793E+03 -0.56260381586E+02  0.12648371676E+03  0.00000000000E+00 0.  1.
</event>
<event>
12    1  0.1046899E+000  0.1836449E+03  0.7818608E-02  0.1164511E+00
         21   -1    0    0  501  502  0.00000000000E+00  0.00000000000E+00  0.13617132677E+03  0.13617132677E+03  0.00000000000E+00 0.  1.
         21   -1    0    0  502  503 -0.00000000000E+00 -0.00000000000E+00 -0.39457056708E+03  0.39457056708E+03  0.00000000000E+00 0.  1.
         -6    2    1    2    0  503  0.59182074469E+02  0.17470370232E+02  0.33139604025E+02  0.18661101384E+03  0.17296735345E+03 0.  0.
        -24    2    3    3    0    0 -0.51393751410E+01  0.32896307670E+02 -0.33619547488E+02  0.92514878234E+02  0.79499361546E+02 0.  0.
          6    2    1    2  501    0 -0.59182074469E+02 -0.17470370232E+02 -0.29153884434E+03  0.34413088001E+03  0.17211459277E+03 0.  0.
         24    2    5    5    0    0 -0.30581370506E+02 -0.25755802548E+02 -0.52296962233E+02  0.10299727221E+03  0.79214166900E+02 0.  0.
          5    1    5    5  501    0 -0.28600703963E+02  0.82854323158E+01 -0.23924188210E+03  0.24113360779E+03  0.47000000000E+01 0. -1.
        -13    1    6    6    0    0  0.56924953846E+01 -0.42501942091E+02 -0.85016322511E+01  0.43716099279E+02  0.00000000000E+00 0.  1.
         14    1    6    6    0    0 -0.36273865891E+02  0.16746139544E+02 -0.43795329982E+02  0.59281172935E+02  0.00000000000E+00 0. -1.
         -5    1    3    3    0  503  0.64321449610E+02 -0.15425937438E+02  0.66759151513E+02  0.94096135609E+02  0.47000000000E+01 0.  1.
         11    1    4    4    0    0 -0.89153064949E+01 -0.11178766803E+02  0.18994955389E+02  0.23775109829E+02  0.00000000000E+00 0. -1.
        -12    1    4    4    0    0  0.37759313539E+01  0.44075074474E+02 -0.52614502877E+02  0.68739768405E+02  0.00000000000E+00 0.  1.
</event>
<event>
12    1  0.1046899E+000  0.3032782E+03  0.7818608E-02  0.1083636E+00
         21   -1    0    0  501  502  0.00000000000E+00  0.00000000000E+00  0.74810738994E+03  0.74810738994E+03  0.00000000000E+00 0.  1.
         21   -1    0    0  502  503 -0.00000000000E+00 -0.00000000000E+00 -0.12708547292E+03  0.12708547292E+03  0.00000000000E+00 0.  1.
         -6    2    1    2    0  503 -0.79925695182E+02 -0.23640358990E+03  0.39010790247E+03  0.49401190439E+03  0.17201398793E+03 0.  0.
        -24    2    3    3    0    0  0.15984032233E+02 -0.13381540651E+03  0.26271889367E+03  0.30434624923E+03  0.73779197780E+02 0.  0.
          6    2    1    2  501    0  0.79925695182E+02  0.23640358990E+03  0.23091401455E+03  0.38118095848E+03  0.17234519698E+03 0.  0.
         24    2    5    5    0    0 -0.41238296182E+01  0.18556094978E+03  0.13032510691E+03  0.24050574739E+03  0.80053163486E+02 0.  0.
          5    1    5    5  501    0  0.84049524800E+02  0.50842640120E+02  0.10058890764E+03  0.14067521109E+03  0.47000000000E+01 0. -1.
        -13    1    6    6    0    0 -0.30364272181E+02  0.31480693031E+02  0.14900115829E+02  0.46206455290E+02  0.00000000000E+00 0.  1.
         14    1    6    6    0    0  0.26240442562E+02  0.15408025674E+03  0.11542499108E+03  0.19429929210E+03  0.00000000000E+00 0. -1.
         -5    1    3    3    0  503 -0.95909727415E+02 -0.10258818338E+03  0.12738900880E+03  0.18966565516E+03  0.47000000000E+01 0.  1.
         11    1    4    4    0    0 -0.16648878043E+02 -0.78084582905E+02  0.19528379848E+03  0.21097428558E+03  0.00000000000E+00 0. -1.
        -12    1    4    4    0    0  0.32632910276E+02 -0.55730823607E+02  0.67435095184E+02  0.93371963647E+02  0.00000000000E+00 0.  1.
</event>
<event>
12    1  0.1046899E+000  0.2044171E+03  0.7818608E-02  0.1149451E+00
         21   -1    0    0  503  502  0.00000000000E+00  0.00000000000E+00  0.69470620894E+03  0.69470620894E+03  0.00000000000E+00 0.  1.
         21   -1    0    0  501  503 -0.00000000000E+00 -0.00000000000E+00 -0.57052111921E+02  0.57052111921E+02  0.00000000000E+00 0.  1.
          6    2    1    2  501    0  0.44020565242E+02 -0.10045090669E+03  0.24608996354E+03  0.31004707703E+03  0.15342986998E+03 0.  0.
         24    2    3    3    0    0 -0.13327695129E+02 -0.44100262491E+02  0.79907154238E+02  0.12537700860E+03  0.84922201909E+02 0.  0.
         -6    2    1    2    0  502 -0.44020565242E+02  0.10045090669E+03  0.39156413348E+03  0.44171124383E+03  0.17250552883E+03 0.  0.
        -24    2    5    5    0    0 -0.21351979316E+02  0.42537280803E+01  0.79323468912E+02  0.11416875106E+03  0.79172531692E+02 0.  0.
          5    1    3    3  501    0  0.57348260371E+02 -0.56350644200E+02  0.16618280930E+03  0.18467006844E+03  0.47000000000E+01 0. -1.
        -13    1    4    4    0    0  0.72634799516E+00 -0.20343141441E+02  0.92732243374E+02  0.94940191416E+02  0.00000000000E+00 0.  1.
         14    1    4    4    0    0 -0.14054043125E+02 -0.23757121051E+02 -0.12825089135E+02  0.30436817181E+02  0.00000000000E+00 0. -1.
         -5    1    5    5    0  502 -0.22668585925E+02  0.96197178611E+02  0.31224066457E+03  0.32754249278E+03  0.47000000000E+01 0.  1.
         11    1    6    6    0    0  0.77099021784E+01  0.37293667089E+01  0.84252923131E+02  0.84687105416E+02  0.00000000000E+00 0. -1.
        -12    1    6    6    0    0 -0.29061881495E+02  0.52436137138E+00 -0.49294542187E+01  0.29481645642E+02  0.00000000000E+00 0.  1.
</event>
<event>
12    1  0.1046899E+000  0.2207391E+03  0.7818608E-02  0.1133597E+00
         21   -1    0    0  503  502  0.00000000000E+00  0.00000000000E+00  0.13122341526E+03  0.13122341526E+03  0.00000000000E+00 0.  1.
         21   -1    0    0  501  503 -0.00000000000E+00 -0.00000000000E+00 -0.41432100169E+03  0.41432100169E+03  0.00000000000E+00 0.  1.
          6    2    1    2  501    0 -0.41684245703E+02  0.13113934984E+03 -0.51682428973E+02  0.22670866823E+03  0.17259965635E+03 0.  0.
         24    2    3    3    0    0  0.22056545349E+02  0.11356999361E+03 -0.72471536739E+02  0.15724034651E+03  0.78024151963E+02 0.  0.
         -6    2    1    2    0  502  0.41684245703E+02 -0.13113934984E+03 -0.23141515746E+03  0.31883574871E+03  0.17078686759E+03 0.  0.
        -24    2    5    5    0    0  0.72691764481E+02 -0.96768294271E+02 -0.91053543911E+02  0.17096314057E+03  0.79306066447E+02 0.  0.
          5    1    3    3  501    0 -0.63740791052E+02  0.17569356222E+02  0.20789107767E+02  0.69468321728E+02  0.47000000000E+01 0. -1.
        -11    1    4    4    0    0 -0.26686765256E+01  0.95688215478E+01 -0.46069500113E+02  0.47128367475E+02  0.00000000000E+00 0.  1.
         12    1    4    4    0    0  0.24725221875E+02  0.10400117207E+03 -0.26402036626E+02  0.11011197903E+03  0.00000000000E+00 0. -1.
         -5    1    5    5    0  502 -0.31007518778E+02 -0.34371055565E+02 -0.14036161355E+03  0.14787260814E+03  0.47000000000E+01 0.  1.
         11    1    6    6    0    0  0.58977544829E+02 -0.11041081370E+03 -0.81680608886E+02  0.14946779066E+03  0.00000000000E+00 0. -1.
        -12    1    6    6    0    0  0.13714219652E+02  0.13642519426E+02 -0.93729350248E+01  0.21495349915E+02  0.00000000000E+00 0.  1.
</event>
<event>
12    1  0.1046899E+000  0.2327761E+03  0.7818608E-02  0.1124708E+00
         21   -1    0    0  503  502  0.00000000000E+00  0.00000000000E+00  0.34738597689E+03  0.34738597689E+03  0.00000000000E+00 0. -1.
         21   -1    0    0  501  503 -0.00000000000E+00 -0.00000000000E+00 -0.15706652510E+03  0.15706652510E+03  0.00000000000E+00 0. -1.
          6    2    1    2  501    0  0.10156661223E+03 -0.11946085466E+03  0.11642222561E+03  0.26022823315E+03  0.17198234269E+03 0.  0.
         24    2    3    3    0    0  0.13614894883E+03 -0.11859336749E+03  0.90568458710E+02  0.21678634321E+03  0.78694026510E+02 0.  0.
         -6    2    1    2    0  502 -0.10156661223E+03  0.11946085466E+03  0.73897226185E+02  0.24422426884E+03  0.17204075372E+03 0.  0.
        -24    2    5    5    0    0 -0.41117124528E+02  0.39977216350E+02  0.97373158476E+02  0.14153542467E+03  0.85217068054E+02 0.  0.
          5    1    3    3  501    0 -0.34582336602E+02 -0.86748716705E+00  0.25853766897E+02  0.43441889941E+02  0.47000000000E+01 0. -1.
        -11    1    4    4    0    0  0.13022273596E+03 -0.86683967515E+02  0.48758478196E+02  0.16385804949E+03  0.00000000000E+00 0.  1.
         12    1    4    4    0    0  0.59262128675E+01 -0.31909399974E+02  0.41809980514E+02  0.52928293721E+02  0.00000000000E+00 0. -1.
         -5    1    5    5    0  502 -0.60449487698E+02  0.79483638306E+02 -0.23475932291E+02  0.10268884418E+03  0.47000000000E+01 0.  1.
         13    1    6    6    0    0 -0.12496481468E+02 -0.25373615488E+02  0.44530140266E+02  0.52753348748E+02  0.00000000000E+00 0. -1.
        -14    1    6    6    0    0 -0.28620643060E+02  0.65350831838E+02  0.52843018211E+02  0.88782075920E+02  0.00000000000E+00 0.  1.
</event>
<event>
12    1  0.1046899E+000  0.2020689E+03  0.7818608E-02  0.1148091E+00
         21   -1    0    0  501  502  0.00000000000E+00  0.00000000000E+00  0.35926779336E+02  0.35926779336E+02  0.00000000000E+00 0.  1.
         21   -1    0    0  502  503 -0.00000000000E+00 -0.00000000000E+00 -0.11993203796E+04  0.11993203796E+04  0.00000000000E+00 0.  1.
         -6    2    1    2    0  503 -0.27876296591E+02  0.10120131599E+03 -0.72614859968E+03  0.75373975722E+03  0.17266452596E+03 0.  0.
        -24    2    3    3    0    0 -0.76956949046E+00  0.35375151863E+02 -0.14970799180E+03  0.17290094744E+03  0.78932003704E+02 0.  0.
          6    2    1    2  501    0  0.27876296591E+02 -0.10120131599E+03 -0.43724500062E+03  0.48150740175E+03  0.17218418367E+03 0.  0.
         24    2    5    5    0    0  0.35743008263E+02 -0.47265016813E+02 -0.10490779753E+03  0.14469719395E+03  0.80125448523E+02 0.  0.
          5    1    5    5  501    0 -0.78667116714E+01 -0.53936299172E+02 -0.33233720309E+03  0.33681020780E+03  0.47000000000E+01 0. -1.
        -13    1    6    6    0    0 -0.25128094882E+02 -0.51896051143E+01 -0.26645162612E+02  0.36990780531E+02  0.00000000000E+00 0.  1.
         14    1    6    6    0    0  0.60871103145E+02 -0.42075411699E+02 -0.78262634918E+02  0.10770641342E+03  0.00000000000E+00 0. -1.
         -5    1    3    3    0  503 -0.27106727101E+02  0.65826164122E+02 -0.57644060788E+03  0.58083880978E+03  0.47000000000E+01 0.  1.
         13    1    4    4    0    0  0.25158798370E+02  0.49092557465E+02 -0.11434088389E+03  0.12695228262E+03  0.00000000000E+00 0. -1.
        -14    1    4    4    0    0 -0.25928367860E+02 -0.13717405602E+02 -0.35367107908E+02  0.45948664813E+02  0.00000000000E+00 0.  1.
</event>
<event>
12    1  0.1046899E+000  0.1851996E+03  0.7818608E-02  0.1162869E+00
         21   -1    0    0  501  502  0.00000000000E+00  0.00000000000E+00  0.60885134471E+03  0.60885134471E+03  0.00000000000E+00 0.  1.
         21   -1    0    0  502  503 -0.00000000000E+00 -0.00000000000E+00 -0.56878708633E+02  0.56878708633E+02  0.00000000000E+00 0.  1.
         -6    2    1    2    0  503 -0.49202454948E+02  0.46765698890E+02  0.30878496079E+03  0.36006534037E+03  0.17231072270E+03 0.  0.
        -24    2    3    3    0    0  0.38481528708E+02  0.35603117610E+02  0.13751756997E+03  0.16727609438E+03  0.79509745723E+02 0.  0.
          6    2    1    2  501    0  0.49202454948E+02 -0.46765698890E+02  0.24318767528E+03  0.30566471297E+03  0.17228685145E+03 0.  0.
         24    2    5    5    0    0  0.80203352334E+01 -0.80050580783E+02  0.92043552413E+02  0.14544459493E+03  0.78801607809E+02 0.  0.
          5    1    5    5  501    0  0.41182119714E+02  0.33284881893E+02  0.15114412286E+03  0.16022011804E+03  0.47000000000E+01 0. -1.
        -11    1    6    6    0    0 -0.35427718244E+02 -0.36552950084E+02  0.46341318758E+02  0.68838646152E+02  0.00000000000E+00 0.  1.
         12    1    6    6    0    0  0.43448053478E+02 -0.43497630699E+02  0.45702233655E+02  0.76605948780E+02  0.00000000000E+00 0. -1.
         -5    1    3    3    0  503 -0.87683983656E+02  0.11162581280E+02  0.17126739082E+03  0.19278924599E+03  0.47000000000E+01 0.  1.
         13    1    4    4    0    0  0.36744823662E+02 -0.12989723711E+02  0.95004942217E+02  0.10268813969E+03  0.00000000000E+00 0. -1.
        -14    1    4    4    0    0  0.17367050461E+01  0.48592841321E+02  0.42512627756E+02  0.64587954688E+02  0.00000000000E+00 0.  1.
</event>
<event>
12    1  0.1046899E+000  0.2021120E+03  0.7818608E-02  0.1148106E+00
         21   -1    0    0  501  502  0.00000000000E+00  0.00000000000E+00  0.46019658814E+02  0.46019658814E+02  0.00000000000E+00 0. -1.
         21   -1    0    0  502  503 -0.00000000000E+00 -0.00000000000E+00 -0.10055895137E+04  0.10055895137E+04  0.00000000000E+00 0. -1.
         -6    2    1    2    0  503 -0.74337585848E+02  0.74628959650E+02 -0.66135666636E+03  0.69135873796E+03  0.17172275948E+03 0.  0.
        -24    2    3    3    0    0 -0.28109552666E+02 -0.15340971466E+02 -0.43454934013E+03  0.44297340669E+03  0.79792340931E+02 0.  0.
          6    2    1    2  501    0  0.74337585848E+02 -0.74628959650E+02 -0.29821318848E+03  0.36025043451E+03  0.17249264185E+03 0.  0.
         24    2    5    5    0    0  0.10295637608E+03 -0.13555462191E+02 -0.16256086846E+03  0.20868312546E+03  0.79616863573E+02 0.  0.
          5    1    5    5  501    0 -0.28618790236E+02 -0.61073497459E+02 -0.13565232001E+03  0.15156730905E+03  0.47000000000E+01 0. -1.
        -11    1    6    6    0    0  0.74168416153E+02 -0.25960682604E+02 -0.15871289768E+03  0.17710080430E+03  0.00000000000E+00 0.  1.
         12    1    6    6    0    0  0.28787959931E+02  0.12405220413E+02 -0.38479707856E+01  0.31582321157E+02  0.00000000000E+00 0. -1.
         -5    1    3    3    0  503 -0.46228033183E+02  0.89969931116E+02 -0.22680732624E+03  0.24838533127E+03  0.47000000000E+01 0.  1.
         13    1    4    4    0    0  0.25413638612E+02  0.80840316350E+00 -0.77256401646E+02  0.81333007681E+02  0.00000000000E+00 0. -1.
        -14    1    4    4    0    0 -0.53523191277E+02 -0.16149374629E+02 -0.35729293848E+03  0.36164039901E+03  0.00000000000E+00 0.  1.
</event>
<event>
12    1  0.1046899E+000  0.2793481E+03  0.7818608E-02  0.1096222E+00
         21   -1    0    0  501  502  0.00000000000E+00  0.00000000000E+00  0.11728776308E+04  0.11728776308E+04  0.00000000000E+00 0.  1.
         21   -1    0    0  502  503 -0.00000000000E+00 -0.00000000000E+00 -0.66707903508E+02  0.66707903508E+02  0.00000000000E+00 0.  1.
         -6    2    1    2    0  503 -0.18363713900E+03  0.11816446582E+03  0.60699247942E+03  0.66818800324E+03  0.17421222056E+03 0.  0.
        -24    2    3    3    0    0 -0.11174404594E+03  0.13011433381E+03  0.52729865016E+03  0.56009261667E+03  0.79015195505E+02 0.  0.
          6    2    1    2  501    0  0.18363713900E+03 -0.11816446582E+03  0.49917724784E+03  0.57139753104E+03  0.17213882163E+03 0.  0.
         24    2    5    5    0    0  0.12861061968E+03 -0.13814894578E+03  0.45102672708E+03  0.49545110310E+03  0.80130295794E+02 0.  0.
          5    1    5    5  501    0  0.55026519323E+02  0.19984479959E+02  0.48150520763E+02  0.75946427946E+02  0.47000000000E+01 0. -1.
        -11    1    6    6    0    0 -0.69419677066E+00 -0.28787147235E+02  0.12255790287E+03  0.12589527915E+03  0.00000000000E+00 0.  1.
         12    1    6    6    0    0  0.12930481645E+03 -0.10936179854E+03  0.32846882421E+03  0.36955582395E+03  0.00000000000E+00 0. -1.
         -5    1    3    3    0  503 -0.71893093064E+02 -0.11949867990E+02  0.79693829264E+02  0.10809538657E+03  0.47000000000E+01 0.  1.
         13    1    4    4    0    0 -0.93692679288E+02  0.88886065631E+02  0.27505986799E+03  0.30387000805E+03  0.00000000000E+00 0. -1.
        -14    1    4    4    0    0 -0.18051366649E+02  0.41228268179E+02  0.25223878217E+03  0.25622260861E+03  0.00000000000E+00 0.  1.
</event>
<event>
12    1  0.1046899E+000  0.3586754E+03  0.7818608E-02  0.1059671E+00
         21   -1    0    0  501  502  0.00000000000E+00  0.00000000000E+00  0.25475545667E+03  0.25475545667E+03  0.00000000000E+00 0. -1.
         21   -1    0    0  502  503 -0.00000000000E+00 -0.00000000000E+00 -0.74778660289E+03  0.74778660289E+03  0.00000000000E+00 0. -1.
         -6    2    1    2    0  503 -0.12063281205E+03  0.29054496385E+03  0.44978589424E+02  0.35593357497E+03  0.16030279138E+03 0.  0.
        -24    2    3    3    0    0 -0.54679688108E+02  0.22116213100E+03 -0.94040121310E+01  0.24573670839E+03  0.91627168072E+02 0.  0.
          6    2    1    2  501    0  0.12063281205E+03 -0.29054496385E+03 -0.53800973565E+03  0.64660848459E+03  0.17227711784E+03 0.  0.
         24    2    5    5    0    0  0.10603107687E+03 -0.15537879441E+03 -0.39321149582E+03  0.44793356346E+03  0.10316994624E+03 0.  0.
          5    1    5    5  501    0  0.14601735178E+02 -0.13516616944E+03 -0.14479823982E+03  0.19867492113E+03  0.47000000000E+01 0. -1.
        -13    1    6    6    0    0  0.11268010580E+03 -0.15615210899E+03 -0.31332682265E+03  0.36776892905E+03  0.00000000000E+00 0.  1.
         14    1    6    6    0    0 -0.66490289239E+01  0.77331457883E+00 -0.79884673174E+02  0.80164634404E+02  0.00000000000E+00 0. -1.
         -5    1    3    3    0  503 -0.65953123941E+02  0.69382832853E+02  0.54382601555E+02  0.11019686658E+03  0.47000000000E+01 0.  1.
         11    1    4    4    0    0 -0.17726137232E+02  0.94249515549E+02  0.40961364125E+02  0.10428336623E+03  0.00000000000E+00 0. -1.
        -12    1    4    4    0    0 -0.36953550877E+02  0.12691261545E+03 -0.50365376256E+02  0.14145334216E+03  0.00000000000E+00 0.  1.
</event>
<event>
12    1  0.1046899E+000  0.3517786E+03  0.7818608E-02  0.1061981E+00
         21   -1    0    0  503  502  0.00000000000E+00  0.00000000000E+00  0.20773858196E+04  0.20773858196E+04  0.00000000000E+00 0.  1.
         21   -1    0    0  501  503 -0.00000000000E+00 -0.00000000000E+00 -0.94818665840E+02  0.94818665840E+02  0.00000000000E+00 0.  1.
          6    2    1    2  501    0  0.12296476142E+03  0.27971813924E+03  0.32842294685E+03  0.48125857010E+03  0.17431468471E+03 0.  0.
         24    2    3    3    0    0  0.85259521368E+02  0.24727571464E+03  0.18739775257E+03  0.33164442818E+03  0.80347022575E+02 0.  0.
         -6    2    1    2    0  502 -0.12296476142E+03 -0.27971813924E+03  0.16541442069E+04  0.16909459153E+04  0.17246002840E+03 0.  0.
        -24    2    5    5    0    0 -0.15104926375E+03 -0.20887115362E+03  0.11692090203E+04  0.12000362904E+04  0.81205457027E+02 0.  0.
          5    1    3    3  501    0  0.37705240053E+02  0.32442424596E+02  0.14102519428E+03  0.14961414192E+03  0.47000000000E+01 0. -1.
        -13    1    4    4    0    0  0.86955614910E+01  0.11396078605E+03  0.47453163445E+02  0.12375167178E+03  0.00000000000E+00 0.  1.
         14    1    4    4    0    0  0.76563959877E+02  0.13331492859E+03  0.13994458912E+03  0.20789275640E+03  0.00000000000E+00 0. -1.
         -5    1    5    5    0  502  0.28084502328E+02 -0.70846985619E+02  0.48493518665E+03  0.49090962497E+03  0.47000000000E+01 0.  1.
         13    1    6    6    0    0 -0.45767114685E+02 -0.89200031409E+02  0.29928807126E+03  0.31563368639E+03  0.00000000000E+00 0. -1.
        -14    1    6    6    0    0 -0.10528214906E+03 -0.11967112221E+03  0.86992094900E+03  0.88440260397E+03  0.00000000000E+00 0.  1.
</event>
<event>
12    1  0.1046899E+000  0.2451211E+03  0.7818608E-02  0.1116544E+00
         21   -1    0    0  503  502  0.00000000000E+00  0.00000000000E+00  0.71901413465E+03  0.71901413465E+03  0.00000000000E+00 0.  1.
         21   -1    0    0  501  503 -0.00000000000E+00 -0.00000000000E+00 -0.25771103038E+03  0.25771103038E+03  0.00000000000E+00 0.  1.
          6    2    1    2  501    0 -0.16498476523E+03 -0.53183947792E+02  0.63227422918E+03  0.67786822813E+03  0.17229663015E+03 0.  0.
         24    2    3    3    0    0 -0.14269003172E+03 -0.59166305140E+02  0.63093621468E+03  0.65427322814E+03  0.78306150797E+02 0.  0.
         -6    2    1    2    0  502  0.16498476523E+03  0.53183947792E+02 -0.17097112491E+03  0.29885693691E+03  0.17330850563E+03 0.  0.
        -24    2    5    5    0    0  0.77913947930E+02  0.19614316812E+02 -0.17068113395E+03  0.20542021263E+03  0.81302580300E+02 0.  0.
          5    1    3    3  501    0 -0.22294733505E+02  0.59823573484E+01  0.13380144998E+01  0.23594999985E+02  0.47000000000E+01 0. -1.
        -13    1    4    4    0    0 -0.27378106854E+02 -0.41147475334E+02  0.11275784515E+03  0.12311379737E+03  0.00000000000E+00 0.  1.
         14    1    4    4    0    0 -0.11531192487E+03 -0.18018829807E+02  0.51817836953E+03  0.53115943077E+03  0.00000000000E+00 0. -1.
         -5    1    5    5    0  502  0.87070817295E+02  0.33569630980E+02 -0.28999095552E+00  0.93436724276E+02  0.47000000000E+01 0.  1.
         13    1    6    6    0    0  0.41786822721E+02  0.50120016362E+02 -0.80791062732E+02  0.10385254167E+03  0.00000000000E+00 0. -1.
        -14    1    6    6    0    0  0.36127125208E+02 -0.30505699550E+02 -0.89890071221E+02  0.10156767096E+03  0.00000000000E+00 0.  1.
</event>
<event>
12    1  0.1046899E+000  0.2949770E+03  0.7818608E-02  0.1087934E+00
         21   -1    0    0  503  502  0.00000000000E+00  0.00000000000E+00  0.41675850389E+03  0.41675850389E+03  0.00000000000E+00 0.  1.
         21   -1    0    0  501  503 -0.00000000000E+00 -0.00000000000E+00 -0.20947999944E+03  0.20947999944E+03  0.00000000000E+00 0.  1.
          6    2    1    2  501    0  0.21177255607E+03  0.11103643040E+03  0.13042319157E+03  0.32141365802E+03  0.17064532306E+03 0.  0.
         24    2    3    3    0    0  0.15932119677E+03  0.45095361014E+02  0.22999021524E+02  0.18480687915E+03  0.78789544117E+02 0.  0.
         -6    2    1    2    0  502 -0.21177255607E+03 -0.11103643040E+03  0.76855312883E+02  0.30482484531E+03  0.17272736558E+03 0.  0.
        -24    2    5    5    0    0 -0.22665014946E+03 -0.12047107811E+03  0.88493109748E+02  0.28319422631E+03  0.80525576235E+02 0.  0.
          5    1    3    3  501    0  0.52451359292E+02  0.65941069387E+02  0.10742417005E+03  0.13660677887E+03  0.47000000000E+01 0. -1.
        -11    1    4    4    0    0 -0.14491885922E+01 -0.13218773135E+01  0.17260395399E+02  0.17371492640E+02  0.00000000000E+00 0.  1.
         12    1    4    4    0    0  0.16077038537E+03  0.46417238328E+02  0.57386261257E+01  0.16743538651E+03  0.00000000000E+00 0. -1.
         -5    1    5    5    0  502  0.14877593398E+02  0.94346477059E+01 -0.11637796864E+02  0.21630619004E+02  0.47000000000E+01 0.  1.
         11    1    6    6    0    0 -0.38432500301E+02  0.10840969127E+00 -0.87706080173E+01  0.39420710256E+02  0.00000000000E+00 0. -1.
        -12    1    6    6    0    0 -0.18821764916E+03 -0.12057948780E+03  0.97263717765E+02  0.24377351605E+03  0.00000000000E+00 0.  1.
</event>
<event>
12    1  0.1046899E+000  0.2433431E+03  0.7818608E-02  0.1117648E+00
         21   -1    0    0  503  502  0.00000000000E+00  0.00000000000E+00  0.17671437499E+03  0.17671437499E+03  0.00000000000E+00 0.  1.
         21   -1    0    0  501  503 -0.00000000000E+00 -0.00000000000E+00 -0.40465953094E+03  0.40465953094E+03  0.00000000000E+00 0.  1.
          6    2    1    2  501    0  0.91328817046E+02  0.14549548206E+03  0.69342646993E+01  0.24344188626E+03  0.17235422778E+03 0.  0.
         24    2    3    3    0    0  0.21318061977E+02  0.15142033747E+03  0.63691459948E+01  0.17302158310E+03  0.80705166080E+02 0.  0.
         -6    2    1    2    0  502 -0.91328817046E+02 -0.14549548206E+03 -0.23487942065E+03  0.33793201967E+03  0.17181332762E+03 0.  0.
        -24    2    5    5    0    0 -0.96213575251E+02 -0.14482237698E+03 -0.25302530068E+03  0.31854963345E+03  0.84979369557E+02 0.  0.
          5    1    3    3  501    0  0.70010755069E+02 -0.59248554141E+01  0.56511870448E+00  0.70420303153E+02  0.47000000000E+01 0. -1.
        -11    1    4    4    0    0 -0.25005540432E+02  0.53911554393E+02 -0.18499583606E+02  0.62241202936E+02  0.00000000000E+00 0.  1.
         12    1    4    4    0    0  0.46323602409E+02  0.97508783082E+02  0.24868729601E+02  0.11078038017E+03  0.00000000000E+00 0. -1.
         -5    1    5    5    0  502  0.48847582045E+01 -0.67310508456E+00  0.18145880035E+02  0.19382386216E+02  0.47000000000E+01 0.  1.
         11    1    6    6    0    0 -0.61246809197E+02 -0.53558944089E+02 -0.56473275763E+02  0.99040209028E+02  0.00000000000E+00 0. -1.
        -12    1    6    6    0    0 -0.34966766054E+02 -0.91263432887E+02 -0.19655202492E+03  0.21950942442E+03  0.00000000000E+00 0.  1.
</event>
<event>
12    1  0.1046899E+000  0.1827575E+03  0.7818608E-02  0.1165352E+00
         21   -1    0    0  503  502  0.00000000000E+00  0.00000000000E+00  0.16444777289E+03  0.16444777289E+03  0.00000000000E+00 0.  1.
         21   -1    0    0  501  503 -0.00000000000E+00 -0.00000000000E+00 -0.23279028898E+03  0.23279028898E+03  0.00000000000E+00 0.  1.
          6    2    1    2  501    0  0.59968236670E+02 -0.11784817273E+02  0.37749340261E+02  0.18661544281E+03  0.17223599937E+03 0.  0.
         24    2    3    3    0    0 -0.19092288089E+02  0.30831158732E+02  0.26395722592E+02  0.95964008074E+02  0.84836789550E+02 0.  0.
         -6    2    1    2    0  502 -0.59968236670E+02  0.11784817273E+02 -0.10609185635E+03  0.21062261905E+03  0.17138067086E+03 0.  0.
        -24    2    5    5    0    0 -0.93168269106E+02  0.23343591169E+02 -0.11992251708E+03  0.17255393660E+03  0.78537897315E+02 0.  0.
          5    1    3    3  501    0  0.79060524759E+02 -0.42615976005E+02  0.11353617668E+02  0.90651434739E+02  0.47000000000E+01 0. -1.
        -13    1    4    4    0    0  0.76635085795E+00  0.22642675482E+02 -0.28853921785E+02  0.36685512794E+02  0.00000000000E+00 0.  1.
         14    1    4    4    0    0 -0.19858638947E+02  0.81884832501E+01  0.55249644377E+02  0.59278495279E+02  0.00000000000E+00 0. -1.
         -5    1    5    5    0  502  0.33200032436E+02 -0.11558773896E+02  0.13830660732E+02  0.38068682457E+02  0.47000000000E+01 0.  1.
         11    1    6    6    0    0 -0.66159929481E+02 -0.21440211348E+02 -0.84258181035E+02  0.10925319219E+03  0.00000000000E+00 0. -1.
        -12    1    6    6    0    0 -0.27008339625E+02  0.44783802517E+02 -0.35664336047E+02  0.63300744410E+02  0.00000000000E+00 0.  1.
</event>
<event>
12    1  0.1636928E+000  0.3056018E+03  0.7818608E-02  0.1082590E+00
         21   -1    0    0  503  502  0.00000000000E+00  0.00000000000E+00  0.78495695007E+03  0.78495695007E+03  0.00000000000E+00 0. -1.
         21   -1    0    0  501  503 -0.00000000000E+00 -0.00000000000E+00 -0.44319850644E+03  0.44319850644E+03  0.00000000000E+00 0.  1.
          6    2    1    2  501    0 -0.22883810158E+03  0.10166734503E+03  0.69633251183E+03  0.76005798684E+03  0.17351095222E+03 0.  0.
         24    2    3    3    0    0 -0.15150092168E+03  0.63672798222E+02  0.27613708400E+03  0.33109305523E+03  0.79775732866E+02 0.  0.
         -6    2    1    2    0  502  0.22883810158E+03 -0.10166734503E+03 -0.35457406820E+03  0.46809746968E+03  0.17518374781E+03 0.  0.
        -24    2    5    5    0    0  0.25183313678E+03 -0.89672021049E+02 -0.33792631988E+03  0.43692220760E+03  0.72428017269E+02 0.  0.
          5    1    3    3  501    0 -0.77337179896E+02  0.37994546805E+02  0.42019542783E+03  0.42896493161E+03  0.47000000000E+01 0. -1.
        -11    1    4    4    0    0 -0.25154672561E+02  0.36748859709E+02  0.31846732823E+02  0.54748978375E+02  0.00000000000E+00 0.  1.
         12    1    4    4    0    0 -0.12634624912E+03  0.26923938513E+02  0.24429035118E+03  0.27634407685E+03  0.00000000000E+00 0. -1.
         -5    1    5    5    0  502 -0.22995035203E+02 -0.11995323978E+02 -0.16647748322E+02  0.31175262076E+02  0.47000000000E+01 0.  1.
         11    1    6    6    0    0  0.45203338809E+02  0.10692236390E+02 -0.45083062526E+02  0.64731354731E+02  0.00000000000E+00 0. -1.
        -12    1    6    6    0    0  0.20662979797E+03 -0.10036425744E+03 -0.29284325735E+03  0.37219085287E+03  0.00000000000E+00 0.  1.
</event>
<event>
12    1  0.1046899E+000  0.3689455E+03  0.7818608E-02  0.1055105E+00
         21   -1    0    0  503  502  0.00000000000E+00  0.00000000000E+00  0.31998593664E+03  0.31998593664E+03  0.00000000000E+00 0. -1.
         21   -1    0    0  501  503 -0.00000000000E+00 -0.00000000000E+00 -0.53813639212E+03  0.53813639212E+03  0.00000000000E+00 0. -1.
          6    2    1    2  501    0 -0.10491076430E+02 -0.32675604387E+03 -0.30555406122E+03  0.47904491739E+03  0.17100050776E+03 0.  0.
         24    2    3    3    0    0 -0.60758013819E+02 -0.28819155008E+03 -0.24479148429E+03  0.39113492972E+03  0.79484317247E+02 0.  0.
         -6    2    1    2    0  502  0.10491076430E+02  0.32675604387E+03  0.87403605744E+02  0.37907741137E+03  0.17082364773E+03 0.  0.
        -24    2    5    5    0    0  0.66969413077E+01  0.11299743487E+03  0.89527594216E+02  0.16522292882E+03  0.80437284697E+02 0.  0.
          5    1    3    3  501    0  0.50266937389E+02 -0.38564493795E+02 -0.60762576927E+02  0.87909987663E+02  0.47000000000E+01 0. -1.
        -11    1    4    4    0    0 -0.61726461095E+02 -0.12150988338E+03 -0.87547871462E+02  0.16198591777E+03  0.00000000000E+00 0.  1.
         12    1    4    4    0    0  0.96844727569E+00 -0.16668166670E+03 -0.15724361283E+03  0.22914901196E+03  0.00000000000E+00 0. -1.
         -5    1    5    5    0  502  0.37941351225E+01  0.21375860900E+03 -0.21239884724E+01  0.21385448256E+03  0.47000000000E+01 0.  1.
         11    1    6    6    0    0  0.11473320598E+02 -0.96737419151E+01  0.16827275607E+02  0.22547185468E+02  0.00000000000E+00 0. -1.
        -12    1    6    6    0    0 -0.47763792904E+01  0.12267117679E+03  0.72700318609E+02  0.14267574335E+03  0.00000000000E+00 0.  1.
</event>
<event>
12    1  0.1046899E+000  0.2029787E+03  0.7818608E-02  0.1148088E+00
         21   -1    0    0  501  502  0.00000000000E+00  0.00000000000E+00  0.37694809805E+02  0.37694809805E+02  0.00000000000E+00 0.  1.
         21   -1    0    0  502  503 -0.00000000000E+00 -0.00000000000E+00 -0.11000681576E+04  0.11000681576E+04  0.00000000000E+00 0.  1.
         -6    2    1    2    0  503  0.10695343322E+03 -0.55470959810E+01 -0.62796089141E+03  0.65995093282E+03  0.17242547795E+03 0.  0.
        -24    2    3    3    0    0  0.88192579018E+02 -0.36161500332E+02 -0.24265806136E+03  0.27295019349E+03  0.80828758999E+02 0.  0.
          6    2    1    2  501    0 -0.10695343322E+03  0.55470959810E+01 -0.43441245642E+03  0.47781203461E+03  0.16769123704E+03 0.  0.
         24    2    5    5    0    0 -0.24439583217E+02  0.52751721539E+02 -0.25110571741E+03  0.27126842497E+03  0.84572097761E+02 0.  0.
          5    1    5    5  501    0 -0.82513850000E+02 -0.47204625558E+02 -0.18330673901E+03  0.20654360964E+03  0.47000000000E+01 0. -1.
        -11    1    6    6    0    0  0.26083246002E+02  0.88372059669E+01 -0.32273153351E+02  0.42426269675E+02  0.00000000000E+00 0.  1.
         12    1    6    6    0    0 -0.50522829219E+02  0.43914515572E+02 -0.21883256406E+03  0.22884215530E+03  0.00000000000E+00 0. -1.
         -5    1    3    3    0  503  0.18760854199E+02  0.30614404351E+02 -0.38530283005E+03  0.38700073934E+03  0.47000000000E+01 0.  1.
         13    1    4    4    0    0  0.58117437201E+02 -0.60827423448E+02 -0.14216601701E+03  0.16519318491E+03  0.00000000000E+00 0. -1.
        -14    1    4    4    0    0  0.30075141817E+02  0.24665923116E+02 -0.10049204435E+03  0.10775700857E+03  0.00000000000E+00 0.  1.
</event>
<event>
12    1  0.1046899E+000  0.2484404E+03  0.7818608E-02  0.1114965E+00
         21   -1    0    0  501  502  0.00000000000E+00  0.00000000000E+00  0.21526003744E+03  0.21526003744E+03  0.00000000000E+00 0. -1.
         21   -1    0    0  502  503 -0.00000000000E+00 -0.00000000000E+00 -0.40069901948E+03  0.40069901948E+03  0.00000000000E+00 0. -1.
         -6    2    1    2    0  503 -0.73447667656E+02 -0.15745912067E+03  0.74389164645E+02  0.25933831774E+03  0.17758006833E+03 0.  0.
        -24    2    3    3    0    0 -0.21980785414E+02 -0.16540570609E+03  0.11074157819E+02  0.17722334787E+03  0.58679430169E+02 0.  0.
          6    2    1    2  501    0  0.73447667656E+02  0.15745912067E+03 -0.25982814669E+03  0.35662073917E+03  0.17169668381E+03 0.  0.
         24    2    5    5    0    0  0.12586098760E+02  0.75641212322E+02 -0.22102685424E+03  0.24741482821E+03  0.80506049693E+02 0.  0.
          5    1    5    5  501    0  0.60861568895E+02  0.81817908348E+02 -0.38801292446E+02  0.10920591097E+03  0.47000000000E+01 0. -1.
        -13    1    6    6    0    0  0.28534274301E+02  0.11200541628E+02 -0.22338541141E+02  0.37929768823E+02  0.00000000000E+00 0.  1.
         14    1    6    6    0    0 -0.15948175540E+02  0.64440670694E+02 -0.19868831310E+03  0.20948505938E+03  0.00000000000E+00 0. -1.
         -5    1    3    3    0  503 -0.51466882242E+02  0.79465854189E+01  0.63315006827E+02  0.82114969872E+02  0.47000000000E+01 0.  1.
         11    1    4    4    0    0 -0.62135244379E+01 -0.72438270225E+02 -0.24080457270E+02  0.76588375759E+02  0.00000000000E+00 0. -1.
        -12    1    4    4    0    0 -0.15767260976E+02 -0.92967435864E+02  0.35154615089E+02  0.10063497211E+03  0.00000000000E+00 0.  1.
</event>
<event>
12    1  0.1046899E+000  0.3731146E+03  0.7818608E-02  0.1053636E+00
         21   -1    0    0  501  502  0.00000000000E+00  0.00000000000E+00  0.25914522929E+03  0.25914522929E+03  0.00000000000E+00 0.  1.
         21   -1    0    0  502  503 -0.00000000000E+00 -0.00000000000E+00 -0.53764508589E+03  0.53764508589E+03  0.00000000000E+00 0.  1.
         -6    2    1    2    0  503 -0.29720512391E+03  0.14030524817E+03 -0.11251908816E+03  0.38842268878E+03  0.17376763685E+03 0.  0.
        -24    2    3    3    0    0 -0.28318043198E+03  0.14002839829E+03 -0.14196930302E+03  0.35546553805E+03  0.80008476783E+02 0.  0.
          6    2    1    2  501    0  0.29720512391E+03 -0.14030524817E+03 -0.16598076843E+03  0.40836762639E+03  0.17662971000E+03 0.  0.
         24    2    5    5    0    0  0.21445922860E+03 -0.45546425480E+02 -0.15911385636E+03  0.28229081588E+03  0.79395515219E+02 0.  0.
          5    1    5    5  501    0  0.82745895313E+02 -0.94758822688E+02 -0.68669120668E+01  0.12607681052E+03  0.47000000000E+01 0. -1.
        -11    1    6    6    0    0  0.26011941771E+02  0.19195582404E+02 -0.34477005323E+02  0.47262621537E+02  0.00000000000E+00 0.  1.
         12    1    6    6    0    0  0.18844728683E+03 -0.64742007884E+02 -0.12463685104E+03  0.23502819434E+03  0.00000000000E+00 0. -1.
         -5    1    3    3    0  503 -0.14024691937E+02  0.27684987737E+00  0.29450214854E+02  0.32957150738E+02  0.47000000000E+01 0.  1.
         11    1    4    4    0    0 -0.24130523825E+03  0.84403053440E+02 -0.12040959420E+03  0.28257842064E+03  0.00000000000E+00 0. -1.
        -12    1    4    4    0    0 -0.41875193730E+02  0.55625344851E+02 -0.21559708818E+02  0.72887117408E+02  0.00000000000E+00 0.  1.
</event>
<event>
12    1  0.1046899E+000  0.2720132E+03  0.7818608E-02  0.1100259E+00
         21   -1    0    0  501  502  0.00000000000E+00  0.00000000000E+00  0.23255105707E+04  0.23255105707E+04  0.00000000000E+00 0. -1.
         21   -1    0    0  502  503 -0.00000000000E+00 -0.00000000000E+00 -0.35962936703E+02  0.35962936703E+02  0.00000000000E+00 0.  1.
         -6    2    1    2    0  503  0.19718019743E+03  0.75343532152E+02  0.15523245217E+04  0.15759767067E+04  0.17156480239E+03 0.  0.
        -24    2    3    3    0    0  0.38754881000E+02 -0.15481460495E+01  0.71154774261E+03  0.71694318392E+03  0.78759135369E+02 0.  0.
          6    2    1    2  501    0 -0.19718019743E+03 -0.75343532152E+02  0.73722311233E+03  0.78549680069E+03  0.17014884206E+03 0.  0.
         24    2    5    5    0    0 -0.11345611052E+03  0.46611694142E+01  0.25813524201E+03  0.29258935250E+03  0.77978910687E+02 0.  0.
          5    1    5    5  501    0 -0.83724086910E+02 -0.80004701566E+02  0.47908787032E+03  0.49290744819E+03  0.47000000000E+01 0. -1.
        -13    1    6    6    0    0 -0.12406510903E+03 -0.20334209923E+00  0.24724461221E+03  0.27662626573E+03  0.00000000000E+00 0.  1.
         14    1    6    6    0    0  0.10608998508E+02  0.48645115134E+01  0.10890629806E+02  0.15963086769E+02  0.00000000000E+00 0. -1.
         -5    1    3    3    0  503  0.15842531643E+03  0.76891678202E+02  0.84077677905E+03  0.85903352278E+03  0.47000000000E+01 0.  1.
         11    1    4    4    0    0 -0.34181054109E+01  0.15242856958E+02  0.51440034911E+03  0.51463749115E+03  0.00000000000E+00 0. -1.
        -12    1    4    4    0    0  0.42172986411E+02 -0.16791003007E+02  0.19714739349E+03  0.20230569277E+03  0.00000000000E+00 0.  1.
</event>
<event>
12    1  0.1046899E+000  0.1833304E+03  0.7818608E-02  0.1165963E+00
         21   -1    0    0  501  502  0.00000000000E+00  0.00000000000E+00  0.15014336844E+03  0.15014336844E+03  0.00000000000E+00 0.  1.
         21   -1    0    0  502  503 -0.00000000000E+00 -0.00000000000E+00 -0.22656439284E+03  0.22656439284E+03  0.00000000000E+00 0.  1.
         -6    2    1    2    0  503  0.45805589176E+02 -0.16060729742E+02 -0.22563282856E+00  0.18333052646E+03  0.17678781627E+03 0.  0.
        -24    2    3    3    0    0  0.83057320022E+02  0.33432014004E+02  0.60279151285E+01  0.12089319791E+03  0.81009947353E+02 0.  0.
          6    2    1    2  501    0 -0.45805589176E+02  0.16060729742E+02 -0.76195391563E+02  0.19337723482E+03  0.17097636741E+03 0.  0.
         24    2    5    5    0    0 -0.34584102874E+02 -0.21580926455E+02  0.21365699174E+02  0.88101062483E+02  0.75123282351E+02 0.  0.
          5    1    5    5  501    0 -0.11221486302E+02  0.37641656198E+02 -0.97561090737E+02  0.10527617234E+03  0.47000000000E+01 0. -1.
        -13    1    6    6    0    0  0.86169058206E+01 -0.26599820857E+02 -0.14710537000E+02  0.31594325984E+02  0.00000000000E+00 0.  1.
         14    1    6    6    0    0 -0.43201008694E+02  0.50188944016E+01  0.36076236174E+02  0.56506736499E+02  0.00000000000E+00 0. -1.
         -5    1    3    3    0  503 -0.37251730846E+02 -0.49492743746E+02 -0.62535479570E+01  0.62437328551E+02  0.47000000000E+01 0.  1.
         13    1    4    4    0    0  0.55078814388E+02  0.33778428540E+01  0.39545143839E+02  0.67888909389E+02  0.00000000000E+00 0. -1.
        -14    1    4    4    0    0  0.27978505634E+02  0.30054171150E+02 -0.33517228711E+02  0.53004288520E+02  0.00000000000E+00 0.  1.
</event>
<event>
12    1  0.1046899E+000  0.2428852E+03  0.7818608E-02  0.1117977E+00
         21   -1    0    0  503  502  0.00000000000E+00  0.00000000000E+00  0.26120819827E+03  0.26120819827E+03  0.00000000000E+00 0. -1.
         21   -1    0    0  501  503 -0.00000000000E+00 -0.00000000000E+00 -0.23352136763E+03  0.23352136763E+03  0.00000000000E+00 0. -1.
          6    2    1    2  501    0 -0.15961274466E+03 -0.59798941415E+02  0.60156005232E+02  0.24968376628E+03  0.17225300150E+03 0.  0.
         24    2    3    3    0    0 -0.86517908334E+02 -0.25216088242E+02 -0.34796626758E+02  0.12487622984E+03  0.79133229275E+02 0.  0.
         -6    2    1    2    0  502  0.15961274466E+03  0.59798941415E+02 -0.32469174599E+02  0.24504579962E+03  0.17303483742E+03 0.  0.
        -24    2    5    5    0    0  0.82079744164E+02  0.73210077122E+01 -0.80410783418E+02  0.13975673301E+03  0.79217225250E+02 0.  0.
          5    1    3    3  501    0 -0.73094836326E+02 -0.34582853173E+02  0.94952631990E+02  0.12480753644E+03  0.47000000000E+01 0. -1.
        -11    1    4    4    0    0 -0.93018851865E+02 -0.11843489451E+02 -0.78479108687E+01  0.94097634134E+02  0.00000000000E+00 0.  1.
         12    1    4    4    0    0  0.65009435314E+01 -0.13372598791E+02 -0.26948715890E+02  0.30778595701E+02  0.00000000000E+00 0. -1.
         -5    1    5    5    0  502  0.77533000496E+02  0.52477933702E+02  0.47941608819E+02  0.10528906661E+03  0.47000000000E+01 0.  1.
         11    1    6    6    0    0  0.14846037355E+02 -0.32092169794E+02 -0.16750001367E+02  0.39126394327E+02  0.00000000000E+00 0. -1.
        -12    1    6    6    0    0  0.67233706810E+02  0.39413177507E+02 -0.63660782051E+02  0.10063033869E+03  0.00000000000E+00 0.  1.
</event>
<event>
12    1  0.1046899E+000  0.3247959E+03  0.7818608E-02  0.1073481E+00
         21   -1    0    0  503  502  0.00000000000E+00  0.00000000000E+00  0.12253944814E+04  0.12253944814E+04  0.00000000000E+00 0.  1.
         21   -1    0    0  501  503 -0.00000000000E+00 -0.00000000000E+00 -0.87515463788E+02  0.87515463788E+02  0.00000000000E+00 0.  1.
          6    2    1    2  501    0  0.14989189175E+02 -0.27420574383E+03  0.48401690047E+03  0.58289341259E+03  0.17343270960E+03 0.  0.
         24    2    3    3    0    0  0.55230753733E+02 -0.10109940326E+03  0.27212914203E+03  0.30630038874E+03  0.80586181851E+02 0.  0.
         -6    2    1    2    0  502 -0.14989189175E+02  0.27420574383E+03  0.65386211712E+03  0.73001653258E+03  0.17313290817E+03 0.  0.
        -24    2    5    5    0    0 -0.35709268732E+02  0.25052140577E+03  0.44008702745E+03  0.51388659821E+03  0.79791713022E+02 0.  0.
          5    1    3    3  501    0 -0.40241564558E+02 -0.17310634057E+03  0.21188775845E+03  0.27659302385E+03  0.47000000000E+01 0. -1.
        -11    1    4    4    0    0  0.24592108570E+01 -0.11584620317E+02  0.12838689231E+03  0.12893194043E+03  0.00000000000E+00 0.  1.
         12    1    4    4    0    0  0.52771542876E+02 -0.89514782945E+02  0.14374224972E+03  0.17736844831E+03  0.00000000000E+00 0. -1.
         -5    1    5    5    0  502  0.20720079557E+02  0.23684338058E+02  0.21377508967E+03  0.21612993437E+03  0.47000000000E+01 0.  1.
         13    1    6    6    0    0  0.25372300575E+02  0.90442897088E+02  0.16129934193E+03  0.18665783931E+03  0.00000000000E+00 0. -1.
        -14    1    6    6    0    0 -0.61081569307E+02  0.16007850868E+03  0.27878768553E+03  0.32722875890E+03  0.00000000000E+00 0.  1.
</event>
<event>
12    1  0.1046899E+000  0.2976800E+03  0.7818608E-02  0.1086458E+00
         21   -1    0    0  503  502  0.00000000000E+00  0.00000000000E+00  0.89255087720E+03  0.89255087720E+03  0.00000000000E+00 0. -1.
         21   -1    0    0  501  503 -0.00000000000E+00 -0.00000000000E+00 -0.23609200702E+03  0.23609200702E+03  0.00000000000E+00 0. -1.
          6    2    1    2  501    0 -0.15700226580E+03 -0.18431202455E+03  0.75793213923E+03  0.81414291452E+03  0.17247296519E+03 0.  0.
         24    2    3    3    0    0 -0.17325489647E+03 -0.18463128102E+03  0.60846769668E+03  0.66372363545E+03  0.78677552507E+02 0.  0.
         -6    2    1    2    0  502  0.15700226580E+03  0.18431202455E+03 -0.10147326906E+03  0.31449996971E+03  0.17318421624E+03 0.  0.
        -24    2    5    5    0    0  0.33851081802E+02  0.21585963542E+02 -0.58635139849E+00  0.86802263954E+02  0.76957388588E+02 0.  0.
          5    1    3    3  501    0  0.16252630673E+02  0.31925647177E+00  0.14946444255E+03  0.15041927907E+03  0.47000000000E+01 0. -1.
        -13    1    4    4    0    0 -0.57676395849E+02 -0.94116401099E+02  0.34357367658E+03  0.36087024653E+03  0.00000000000E+00 0.  1.
         14    1    4    4    0    0 -0.11557850063E+03 -0.90514879921E+02  0.26489402010E+03  0.30285338892E+03  0.00000000000E+00 0. -1.
         -5    1    5    5    0  502  0.12315118400E+03  0.16272606100E+03 -0.10088691766E+03  0.22769770575E+03  0.47000000000E+01 0.  1.
         13    1    6    6    0    0  0.17443868464E+02  0.46499617954E+02 -0.17321278530E+02  0.52597810855E+02  0.00000000000E+00 0. -1.
        -14    1    6    6    0    0  0.16407213338E+02 -0.24913654412E+02  0.16734927131E+02  0.34204453098E+02  0.00000000000E+00 0.  1.
</event>
<event>
12    1  0.1046899E+000  0.2485366E+03  0.7818608E-02  0.1114393E+00
         21   -1    0    0  503  502  0.00000000000E+00  0.00000000000E+00  0.22836679283E+04  0.22836679283E+04  0.00000000000E+00 0.  1.
         21   -1    0    0  501  503 -0.00000000000E+00 -0.00000000000E+00 -0.26943681584E+02  0.26943681584E+02  0.00000000000E+00 0.  1.
          6    2    1    2  501    0  0.12085096589E+03  0.13147151761E+03  0.11449434901E+04  0.11716083123E+04  0.17286042360E+03 0.  0.
         24    2    3    3    0    0  0.12407167081E+03  0.15678588587E+03  0.10866685437E+04  0.11078176424E+04  0.80223510255E+02 0.  0.
         -6    2    1    2    0  502 -0.12085096589E+03 -0.13147151761E+03  0.11117807566E+04  0.11390032975E+04  0.17141279185E+03 0.  0.
        -24    2    5    5    0    0 -0.99084638680E+02 -0.10428986326E+03  0.49995831312E+03  0.52617264585E+03  0.78773073957E+02 0.  0.
          5    1    3    3  501    0 -0.32207049201E+01 -0.25314368263E+02  0.58274946466E+02  0.63790669900E+02  0.47000000000E+01 0. -1.
        -11    1    4    4    0    0  0.52120987274E+02  0.10083223782E+03  0.42481769022E+03  0.43972014670E+03  0.00000000000E+00 0.  1.
         12    1    4    4    0    0  0.71950683534E+02  0.55953648050E+02  0.66185085344E+03  0.66809749572E+03  0.00000000000E+00 0. -1.
         -5    1    5    5    0  502 -0.21766327208E+02 -0.27181654351E+02  0.61182244344E+03  0.61283065167E+03  0.47000000000E+01 0.  1.
         11    1    6    6    0    0 -0.49186229419E+02 -0.10049990828E+03  0.38171162707E+03  0.39777290377E+03  0.00000000000E+00 0. -1.
        -12    1    6    6    0    0 -0.49898409262E+02 -0.37899549793E+01  0.11824668605E+03  0.12839974209E+03  0.00000000000E+00 0.  1.
</event>
<event>
12    1  0.1046899E+000  0.2018051E+03  0.7818608E-02  0.1148335E+00
         21   -1    0    0  501  502  0.00000000000E+00  0.00000000000E+00  0.82903686284E+03  0.82903686284E+03  0.00000000000E+00 0. -1.
         21   -1    0    0  502  503 -0.00000000000E+00 -0.00000000000E+00 -0.60499257138E+02  0.60499257138E+02  0.00000000000E+00 0. -1.
         -6    2    1    2    0  503 -0.78961419060E+02  0.65800269695E+02  0.57780970391E+03  0.61186284711E+03  0.17305348463E+03 0.  0.
        -24    2    3    3    0    0 -0.11659015704E+03  0.24324130863E+02  0.44341224631E+03  0.46618869489E+03  0.80824198135E+02 0.  0.
          6    2    1    2  501    0  0.78961419060E+02 -0.65800269695E+02  0.19072790179E+03  0.27767327287E+03  0.17366845641E+03 0.  0.
         24    2    5    5    0    0 -0.24532686949E+02 -0.10532838650E+02  0.64834753713E+02  0.10552016182E+03  0.78855347577E+02 0.  0.
          5    1    5    5  501    0  0.10349410601E+03 -0.55267431045E+02  0.12589314807E+03  0.17215311105E+03  0.47000000000E+01 0. -1.
        -11    1    6    6    0    0 -0.27939006638E+01  0.32492247509E+02  0.38966392715E+02  0.50812712881E+02  0.00000000000E+00 0.  1.
         12    1    6    6    0    0 -0.21738786286E+02 -0.43025086159E+02  0.25868360997E+02  0.54707448934E+02  0.00000000000E+00 0. -1.
         -5    1    3    3    0  503  0.37628737979E+02  0.41476138832E+02  0.13439745760E+03  0.14567415222E+03  0.47000000000E+01 0.  1.
         11    1    4    4    0    0 -0.59020907316E+02  0.40349914855E+01  0.34750537374E+03  0.35250494101E+03  0.00000000000E+00 0. -1.
        -12    1    4    4    0    0 -0.57569249724E+02  0.20289139378E+02  0.95906872569E+02  0.11368375388E+03  0.00000000000E+00 0.  1.
</event>
<event>
12    1  0.1046899E+000  0.1908309E+03  0.7818608E-02  0.1157749E+00
         21   -1    0    0  501  502  0.00000000000E+00  0.00000000000E+00  0.39460642040E+03  0.39460642040E+03  0.00000000000E+00 0. -1.
         21   -1    0    0  502  503 -0.00000000000E+00 -0.00000000000E+00 -0.11855152743E+03  0.11855152743E+03  0.00000000000E+00 0. -1.
         -6    2    1    2    0  503  0.81185916531E+02 -0.14269283545E+02  0.25892865922E+03  0.32156010222E+03  0.17193627679E+03 0.  0.
        -24    2    3    3    0    0 -0.18423861545E+02 -0.14688999139E+02  0.72864885772E+02  0.11045798986E+03  0.79601950832E+02 0.  0.
          6    2    1    2  501    0 -0.81185916531E+02  0.14269283545E+02  0.17126233744E+02  0.19159784561E+03  0.17210944501E+03 0.  0.
         24    2    5    5    0    0 -0.51075663872E+02 -0.48863119157E+02  0.44542956089E+02  0.11632438248E+03  0.80937995834E+02 0.  0.
          5    1    5    5  501    0 -0.30110252659E+02  0.63132402702E+02 -0.27416722345E+02  0.75273463121E+02  0.47000000000E+01 0. -1.
        -13    1    6    6    0    0 -0.33708265488E+02 -0.94517532005E+01  0.60907572803E+02  0.70251798735E+02  0.00000000000E+00 0.  1.
         14    1    6    6    0    0 -0.17367398384E+02 -0.39411365957E+02 -0.16364616714E+02  0.46072583750E+02  0.00000000000E+00 0. -1.
         -5    1    3    3    0  503  0.99609778076E+02  0.41971559438E+00  0.18606377345E+03  0.21110211235E+03  0.47000000000E+01 0.  1.
         13    1    4    4    0    0 -0.11285423797E+02 -0.38250818900E+02  0.75812974779E+02  0.85662670292E+02  0.00000000000E+00 0. -1.
        -14    1    4    4    0    0 -0.71384377473E+01  0.23561819760E+02 -0.29480890069E+01  0.24795319572E+02  0.00000000000E+00 0.  1.
</event>
<event>
12    1  0.1046899E+000  0.2165408E+03  0.7818608E-02  0.1136647E+00
         21   -1    0    0  501  502  0.00000000000E+00  0.00000000000E+00  0.23172895456E+03  0.23172895456E+03  0.00000000000E+00 0. -1.
         21   -1    0    0  502  503 -0.00000000000E+00 -0.00000000000E+00 -0.25461187434E+03  0.25461187434E+03  0.00000000000E+00 0. -1.
         -6    2    1    2    0  503  0.13163448488E+03 -0.22227793123E+01 -0.12244591574E+03  0.24876280495E+03  0.17192251885E+03 0.  0.
        -24    2    3    3    0    0  0.10044219151E+03 -0.59227484973E+02 -0.45713120964E+02  0.14810244817E+03  0.79045030917E+02 0.  0.
          6    2    1    2  501    0 -0.13163448488E+03  0.22227793123E+01  0.99562995961E+02  0.23757802394E+03  0.17087407334E+03 0.  0.
         24    2    5    5    0    0 -0.15944031488E+03 -0.68616170052E+01  0.59161884752E+02  0.18747782210E+03  0.78609855440E+02 0.  0.
          5    1    5    5  501    0  0.27805830000E+02  0.90843963175E+01  0.40401111209E+02  0.50100201850E+02  0.47000000000E+01 0. -1.
        -13    1    6    6    0    0 -0.11973077993E+03 -0.24582832504E+02  0.72351664543E+02  0.14203710317E+03  0.00000000000E+00 0.  1.
         14    1    6    6    0    0 -0.39709534955E+02  0.17721215499E+02 -0.13189779791E+02  0.45440718920E+02  0.00000000000E+00 0. -1.
         -5    1    3    3    0  503  0.31192293369E+02  0.57004705661E+02 -0.76732794779E+02  0.10066035678E+03  0.47000000000E+01 0.  1.
         11    1    4    4    0    0  0.54225732627E+01  0.15601907743E+02 -0.17186361409E+02  0.23836837971E+02  0.00000000000E+00 0. -1.
        -12    1    4    4    0    0  0.95019618252E+02 -0.74829392716E+02 -0.28526759556E+02  0.12426561020E+03  0.00000000000E+00 0.  1.
</event>
<event>
12    1  0.1046899E+000  0.2315933E+03  0.7818608E-02  0.1125862E+00
         21   -1    0    0  503  502  0.00000000000E+00  0.00000000000E+00  0.65257608075E+02  0.65257608075E+02  0.00000000000E+00 0.  1.
         21   -1    0    0  501  503 -0.00000000000E+00 -0.00000000000E+00 -0.94241194231E+03  0.94241194231E+03  0.00000000000E+00 0.  1.
          6    2    1    2  501    0  0.61280218393E+02  0.14103539891E+03 -0.62537661080E+03  0.66688181949E+03  0.17317392101E+03 0.  0.
         24    2    3    3    0    0  0.45615631116E+02  0.19025737279E+02 -0.17150264607E+03  0.19661019299E+03  0.82459965433E+02 0.  0.
         -6    2    1    2    0  502 -0.61280218393E+02 -0.14103539891E+03 -0.25177772343E+03  0.34078773089E+03  0.17058137822E+03 0.  0.
        -24    2    5    5    0    0 -0.92392104774E+02 -0.85516401908E+02 -0.10843921862E+03  0.18388545091E+03  0.78774608224E+02 0.  0.
          5    1    3    3  501    0  0.15664587278E+02  0.12200966164E+03 -0.45387396474E+03  0.47027162650E+03  0.47000000000E+01 0. -1.
        -13    1    4    4    0    0  0.63350017484E+02  0.34852707082E+02 -0.12593698125E+03  0.14521728255E+03  0.00000000000E+00 0.  1.
         14    1    4    4    0    0 -0.17734386368E+02 -0.15826969803E+02 -0.45565664823E+02  0.51392910442E+02  0.00000000000E+00 0. -1.
         -5    1    5    5    0  502  0.31111886381E+02 -0.55518997006E+02 -0.14333850480E+03  0.15690227998E+03  0.47000000000E+01 0.  1.
         13    1    6    6    0    0 -0.49732432546E+02  0.68896241204E+00 -0.21324972288E+02  0.54116023128E+02  0.00000000000E+00 0. -1.
        -14    1    6    6    0    0 -0.42659672228E+02 -0.86205364320E+02 -0.87114246337E+02  0.12976942778E+03  0.00000000000E+00 0.  1.
</event>
<event>
12    1  0.1046899E+000  0.3129652E+03  0.7818608E-02  0.1079441E+00
         21   -1    0    0  501  502  0.00000000000E+00  0.00000000000E+00  0.80076795371E+02  0.80076795371E+02  0.00000000000E+00 0.  1.
         21   -1    0    0  502  503 -0.00000000000E+00 -0.00000000000E+00 -0.12651354966E+04  0.12651354966E+04  0.00000000000E+00 0.  1.
         -6    2    1    2    0  503  0.22469658182E+03 -0.12298372987E+03 -0.45171379183E+03  0.54953849320E+03  0.17981561134E+03 0.  0.
        -24    2    3    3    0    0  0.21344269419E+03 -0.15579692515E+03 -0.38167975817E+03  0.47124282510E+03  0.80993190014E+02 0.  0.
          6    2    1    2  501    0 -0.22469658182E+03  0.12298372987E+03 -0.73334490935E+03  0.79567379873E+03  0.17230347127E+03 0.  0.
         24    2    5    5    0    0 -0.35139531727E+02  0.16688198030E+02 -0.25619476631E+03  0.27134092322E+03  0.80478914545E+02 0.  0.
          5    1    5    5  501    0 -0.18955705010E+03  0.10629553184E+03 -0.47715014304E+03  0.52433287550E+03  0.47000000000E+01 0. -1.
        -13    1    6    6    0    0  0.23710536547E+02  0.13732238002E+02 -0.51519366959E+02  0.58352455610E+02  0.00000000000E+00 0.  1.
         14    1    6    6    0    0 -0.58850068274E+02  0.29559600281E+01 -0.20467539935E+03  0.21298846761E+03  0.00000000000E+00 0. -1.
         -5    1    3    3    0  503  0.11253887638E+02  0.32813195280E+02 -0.70034033663E+02  0.78295668096E+02  0.47000000000E+01 0.  1.
         13    1    4    4    0    0  0.16963992295E+03 -0.79891581535E+02 -0.28027675869E+03  0.33721718479E+03  0.00000000000E+00 0. -1.
        -14    1    4    4    0    0  0.43802771239E+02 -0.75905343614E+02 -0.10140299947E+03  0.13402564031E+03  0.00000000000E+00 0.  1.
</event>
<event>
12    1  0.1046899E+000  0.1905263E+03  0.7818608E-02  0.1158245E+00
         21   -1    0    0  503  502  0.00000000000E+00  0.00000000000E+00  0.12628345078E+03  0.12628345078E+03  0.00000000000E+00 0. -1.
         21   -1    0    0  501  503 -0.00000000000E+00 -0.00000000000E+00 -0.42156237903E+03  0.42156237903E+03  0.00000000000E+00 0.  1.
          6    2    1    2  501    0 -0.80585491163E+02  0.19925111560E+01  0.81484822705E+01  0.18956040354E+03  0.17137315233E+03 0.  0.
         24    2    3    3    0    0 -0.14422409286E+02 -0.46819278909E+02  0.39264912086E+02  0.10152366997E+03  0.79782651470E+02 0.  0.
         -6    2    1    2    0  502  0.80585491163E+02 -0.19925111560E+01 -0.30342741052E+03  0.35828542628E+03  0.17263331584E+03 0.  0.
        -24    2    5    5    0    0  0.69668806039E+02  0.62646645658E+02 -0.17633509291E+03  0.21520523266E+03  0.80255108419E+02 0.  0.
          5    1    3    3  501    0 -0.66163081877E+02  0.48811790065E+02 -0.31116429815E+02  0.88036733567E+02  0.47000000000E+01 0. -1.
        -11    1    4    4    0    0 -0.26165613409E+02  0.11493977556E+02 -0.27307383967E+01  0.28709019094E+02  0.00000000000E+00 0.  1.
         12    1    4    4    0    0  0.11743204123E+02 -0.58313256464E+02  0.41995650483E+02  0.72814650875E+02  0.00000000000E+00 0. -1.
         -5    1    5    5    0  502  0.10916685124E+02 -0.64639156814E+02 -0.12709231762E+03  0.14308019362E+03  0.47000000000E+01 0.  1.
         13    1    6    6    0    0  0.39097106186E+02  0.26432730176E+02 -0.18979199390E+02  0.50867307243E+02  0.00000000000E+00 0. -1.
        -14    1    6    6    0    0  0.30571699853E+02  0.36213915482E+02 -0.15735589352E+03  0.16433792542E+03  0.00000000000E+00 0.  1.
</event>
<event>
12    1  0.1046899E+000  0.2598493E+03  0.7818608E-02  0.1107336E+00
         21   -1    0    0  503  502  0.00000000000E+00  0.00000000000E+00  0.20354779877E+03  0.20354779877E+03  0.00000000000E+00 0. -1.
         21   -1    0    0  501  503 -0.00000000000E+00 -0.00000000000E+00 -0.62414131275E+03  0.62414131275E+03  0.00000000000E+00 0. -1.
          6    2    1    2  501    0 -0.55512821589E+01  0.19464793106E+03  0.73533442814E+02  0.26940322960E+03  0.17103303514E+03 0.  0.
         24    2    3    3    0    0  0.22682972359E+01  0.19458227163E+02  0.10810000017E+02  0.83099986340E+02  0.80031143017E+02 0.  0.
         -6    2    1    2    0  502  0.55512821589E+01 -0.19464793106E+03 -0.49412695679E+03  0.55828588192E+03  0.17205534786E+03 0.  0.
        -24    2    5    5    0    0  0.25069983467E+02 -0.41728880427E+02 -0.11131857271E+03  0.14557585700E+03  0.80191657785E+02 0.  0.
          5    1    3    3  501    0 -0.78195793948E+01  0.17518970389E+03  0.62723442797E+02  0.18630324326E+03  0.47000000000E+01 0. -1.
        -13    1    4    4    0    0 -0.10656322378E+02  0.40621204118E+02  0.30112064192E+02  0.51675679391E+02  0.00000000000E+00 0.  1.
         14    1    4    4    0    0  0.12924619614E+02 -0.21162976955E+02 -0.19302064175E+02  0.31424306949E+02  0.00000000000E+00 0. -1.
         -5    1    5    5    0  502 -0.19518701308E+02 -0.15291905063E+03 -0.38280838409E+03  0.41271002493E+03  0.47000000000E+01 0.  1.
         11    1    6    6    0    0  0.79960584135E+01 -0.61290538454E+02 -0.51819519244E+02  0.80658103305E+02  0.00000000000E+00 0. -1.
        -12    1    6    6    0    0  0.17073925053E+02  0.19561658027E+02 -0.59499053461E+02  0.64917753691E+02  0.00000000000E+00 0.  1.
</event>
<event>
12    1  0.1046899E+000  0.2596003E+03  0.7818608E-02  0.1107427E+00
         21   -1    0    0  503  502  0.00000000000E+00  0.00000000000E+00  0.42608759205E+03  0.42608759205E+03  0.00000000000E+00 0. -1.
         21   -1    0    0  501  503 -0.00000000000E+00 -0.00000000000E+00 -0.18161705505E+03  0.18161705505E+03  0.00000000000E+00 0.  1.
          6    2    1    2  501    0  0.15623174395E+03  0.11463634472E+03  0.12581287500E+02  0.25961709420E+03  0.17231627159E+03 0.  0.
         24    2    3    3    0    0  0.17058375507E+03  0.12856094256E+03 -0.10745536078E+02  0.22853485898E+03  0.80535593239E+02 0.  0.
         -6    2    1    2    0  502 -0.15623174395E+03 -0.11463634472E+03  0.23188924951E+03  0.34808755290E+03  0.17274973545E+03 0.  0.
        -24    2    5    5    0    0 -0.67100569741E+02 -0.18736514287E+02  0.15758498800E+03  0.19747428333E+03  0.96485857543E+02 0.  0.
          5    1    3    3  501    0 -0.14352011116E+02 -0.13924597836E+02  0.23326823578E+02  0.31082235219E+02  0.47000000000E+01 0. -1.
        -13    1    4    4    0    0  0.10438369122E+03  0.11060690060E+03  0.19950683837E+02  0.15338797619E+03  0.00000000000E+00 0.  1.
         14    1    4    4    0    0  0.66200063850E+02  0.17954041956E+02 -0.30696219915E+02  0.75146882792E+02  0.00000000000E+00 0. -1.
         -5    1    5    5    0  502 -0.89131174210E+02 -0.95899830435E+02  0.74304261504E+02  0.15061326957E+03  0.47000000000E+01 0.  1.
         13    1    6    6    0    0 -0.76612993155E+02  0.16298619066E+02  0.13041624693E+03  0.15213018493E+03  0.00000000000E+00 0. -1.
        -14    1    6    6    0    0  0.95124234141E+01 -0.35035133353E+02  0.27168741075E+02  0.45344098402E+02  0.00000000000E+00 0.  1.
</event>
<event>
12    1  0.1046899E+000  0.1782730E+03  0.7818608E-02  0.1169502E+00
         21   -1    0    0  503  502  0.00000000000E+00  0.00000000000E+00  0.83447658286E+02  0.83447658286E+02  0.00000000000E+00 0.  1.
         21   -1    0    0  501  503 -0.00000000000E+00 -0.00000000000E+00 -0.67470353200E+03  0.67470353200E+03  0.00000000000E+00 0.  1.
          6    2    1    2  501    0 -0.38734330513E+02 -0.18139322676E+02 -0.45428199082E+02  0.18397008636E+03  0.17306613770E+03 0.  0.
         24    2    3    3    0    0  0.21278968319E+02 -0.59315095105E+02 -0.10312569161E+02  0.10302419248E+03  0.80848995994E+02 0.  0.
         -6    2    1    2    0  502  0.38734330513E+02  0.18139322676E+02 -0.54582767463E+03  0.57418110392E+03  0.17299337074E+03 0.  0.
        -24    2    5    5    0    0  0.85068399111E+02 -0.10047034276E+02 -0.41100240574E+03  0.42878076086E+03  0.87134309743E+02 0.  0.
          5    1    3    3  501    0 -0.60013298832E+02  0.41175772428E+02 -0.35115629921E+02  0.80945893883E+02  0.47000000000E+01 0. -1.
        -11    1    4    4    0    0 -0.39914710822E+01  0.20767443582E+01 -0.32664593577E+02  0.32973025068E+02  0.00000000000E+00 0.  1.
         12    1    4    4    0    0  0.25270439401E+02 -0.61391839463E+02  0.22352024416E+02  0.70051167411E+02  0.00000000000E+00 0. -1.
         -5    1    5    5    0  502 -0.46334068598E+02  0.28186356953E+02 -0.13482526889E+03  0.14540034306E+03  0.47000000000E+01 0.  1.
         13    1    6    6    0    0 -0.25962347333E+00  0.27055366668E+02 -0.12961309835E+03  0.13240700712E+03  0.00000000000E+00 0. -1.
        -14    1    6    6    0    0  0.85328022585E+02 -0.37102400944E+02 -0.28138930739E+03  0.29637375374E+03  0.00000000000E+00 0.  1.
</event>
<event>
12    1  0.1046899E+000  0.4411772E+03  0.7818608E-02  0.1030401E+00
         21   -1    0    0  501  502  0.00000000000E+00  0.00000000000E+00  0.40419057939E+03  0.40419057939E+03  0.00000000000E+00 0. -1.
         21   -1    0    0  502  503 -0.00000000000E+00 -0.00000000000E+00 -0.73392926871E+03  0.73392926871E+03  0.00000000000E+00 0. -1.
         -6    2    1    2    0  503 -0.40561878903E+03 -0.66756325264E+01  0.16894474575E+03  0.47241890780E+03  0.17339588015E+03 0.  0.
        -24    2    3    3    0    0 -0.30474066470E+03  0.30548009535E+02  0.65908141184E+02  0.32342015822E+03  0.80353357505E+02 0.  0.
          6    2    1    2  501    0  0.40561878903E+03  0.66756325264E+01 -0.49868343506E+03  0.66570094030E+03  0.17292023429E+03 0.  0.
         24    2    5    5    0    0  0.36839609732E+03 -0.28546572002E+02 -0.47997284734E+03  0.61094412737E+03  0.79675600317E+02 0.  0.
          5    1    5    5  501    0  0.37222691700E+02  0.35222204528E+02 -0.18710587722E+02  0.54756812929E+02  0.47000000000E+01 0. -1.
        -13    1    6    6    0    0  0.23088015452E+03 -0.34440973221E+01 -0.35469833250E+03  0.42323564906E+03  0.00000000000E+00 0.  1.
         14    1    6    6    0    0  0.13751594281E+03 -0.25102474680E+02 -0.12527451484E+03  0.18770847831E+03  0.00000000000E+00 0. -1.
         -5    1    3    3    0  503 -0.10087812432E+03 -0.37223642061E+02  0.10303660456E+03  0.14899874957E+03  0.47000000000E+01 0.  1.
         11    1    4    4    0    0 -0.23549210995E+03 -0.93195913349E+01  0.37644909212E+02  0.23866404803E+03  0.00000000000E+00 0. -1.
        -12    1    4    4    0    0 -0.69248554754E+02  0.39867600870E+02  0.28263231972E+02  0.84756110200E+02  0.00000000000E+00 0.  1.
</event>
<event>
12    1  0.1046899E+000  0.1914391E+03  0.7818608E-02  0.1157474E+00
         21   -1    0    0  501  502  0.00000000000E+00  0.00000000000E+00  0.87111949251E+03  0.87111949251E+03  0.00000000000E+00 0. -1.
         21   -1    0    0  502  503 -0.00000000000E+00 -0.00000000000E+00 -0.67168882984E+02  0.67168882984E+02  0.00000000000E+00 0. -1.
         -6    2    1    2    0  503  0.69032696264E+02  0.39629192127E+02  0.11261643637E+03  0.22093779334E+03  0.17261245831E+03 0.  0.
        -24    2    3    3    0    0  0.82500461680E+02  0.27074870079E+02  0.14338694148E+03  0.18477281453E+03  0.77729037273E+02 0.  0.
          6    2    1    2  501    0 -0.69032696264E+02 -0.39629192127E+02  0.69133417316E+03  0.71735058215E+03  0.17410609615E+03 0.  0.
         24    2    5    5    0    0 -0.83357759782E+02 -0.76482594131E+02  0.39760217842E+03  0.42093203446E+03  0.79361086365E+02 0.  0.
          5    1    5    5  501    0  0.14325063517E+02  0.36853402003E+02  0.29373199474E+03  0.29641854769E+03  0.47000000000E+01 0. -1.
        -13    1    6    6    0    0 -0.47738907122E+02 -0.63123979503E+02  0.35544063753E+03  0.36414514530E+03  0.00000000000E+00 0.  1.
         14    1    6    6    0    0 -0.35618852660E+02 -0.13358614628E+02  0.42161540888E+02  0.56786889152E+02  0.00000000000E+00 0. -1.
         -5    1    3    3    0  503 -0.13467765415E+02  0.12554322049E+02 -0.30770505114E+02  0.36164978810E+02  0.47000000000E+01 0.  1.
         13    1    4    4    0    0  0.28297282027E+02 -0.67911163630E+01  0.14814775779E+01  0.29138466112E+02  0.00000000000E+00 0. -1.
        -14    1    4    4    0    0  0.54203179653E+02  0.33865986442E+02  0.14190546391E+03  0.15563434842E+03  0.00000000000E+00 0.  1.
</event>
<event>
12    1  0.1046899E+000  0.2992919E+03  0.7818608E-02  0.1085808E+00
         21   -1    0    0  503  502  0.00000000000E+00  0.00000000000E+00  0.52795595417E+02  0.52795595417E+02  0.00000000000E+00 0.  1.
         21   -1    0    0  501  503 -0.00000000000E+00 -0.00000000000E+00 -0.17004300873E+04  0.17004300873E+04  0.00000000000E+00 0.  1.
          6    2    1    2  501    0  0.14609843476E+03 -0.19365500708E+03 -0.90379945835E+03  0.95206570857E+03  0.17529585879E+03 0.  0.
         24    2    3    3    0    0  0.71053697945E+02 -0.49912840097E+02 -0.55311801120E+03  0.56568106800E+03  0.80719370528E+02 0.  0.
         -6    2    1    2    0  502 -0.14609843476E+03  0.19365500708E+03 -0.74383503354E+03  0.80115997415E+03  0.17239412016E+03 0.  0.
        -24    2    5    5    0    0 -0.37106631058E+02  0.77095369230E+02 -0.16793514157E+03  0.20354125120E+03  0.76852008067E+02 0.  0.
          5    1    3    3  501    0  0.75044736813E+02 -0.14374216698E+03 -0.35068144715E+03  0.38638464057E+03  0.47000000000E+01 0. -1.
        -11    1    4    4    0    0 -0.15183872868E+02 -0.22515148152E+02 -0.10033140041E+03  0.10394167499E+03  0.00000000000E+00 0.  1.
         12    1    4    4    0    0  0.86237570813E+02 -0.27397691945E+02 -0.45278661079E+03  0.46173939300E+03  0.00000000000E+00 0. -1.
         -5    1    5    5    0  502 -0.10899180370E+03  0.11655963785E+03 -0.57589989197E+03  0.59761872295E+03  0.47000000000E+01 0.  1.
         13    1    6    6    0    0 -0.49002182609E+02  0.80440234762E+02 -0.16623873879E+03  0.19106847868E+03  0.00000000000E+00 0. -1.
        -14    1    6    6    0    0  0.11895551551E+02 -0.33448655323E+01 -0.16964027746E+01  0.12472772527E+02  0.00000000000E+00 0.  1.
</event>
<event>
12    1  0.1046899E+000  0.2016871E+03  0.7818608E-02  0.1150807E+00
         21   -1    0    0  501  502  0.00000000000E+00  0.00000000000E+00  0.97041966088E+02  0.97041966088E+02  0.00000000000E+00 0.  1.
         21   -1    0    0  502  503 -0.00000000000E+00 -0.00000000000E+00 -0.40110974293E+03  0.40110974293E+03  0.00000000000E+00 0.  1.
         -6    2    1    2    0  503  0.10123856496E+03 -0.30083793003E+02 -0.17694207148E+03  0.25974316575E+03  0.15812569006E+03 0.  0.
        -24    2    3    3    0    0  0.24835237264E+01  0.12839026001E+02 -0.50040970919E+02  0.93247202182E+02  0.77588230200E+02 0.  0.
          6    2    1    2  501    0 -0.10123856496E+03  0.30083793003E+02 -0.12712570537E+03  0.23840854328E+03  0.17182376700E+03 0.  0.
         24    2    5    5    0    0 -0.59785526060E+02  0.85240981045E+02 -0.69950361047E+02  0.14867683302E+03  0.79821135616E+02 0.  0.
          5    1    5    5  501    0 -0.41453038899E+02 -0.55157188042E+02 -0.57175344323E+02  0.89731710254E+02  0.47000000000E+01 0. -1.
        -13    1    6    6    0    0 -0.89829502082E+01  0.68838198641E+02 -0.13020685752E+02  0.70632352673E+02  0.00000000000E+00 0.  1.
         14    1    6    6    0    0 -0.50802575852E+02  0.16402782404E+02 -0.56929675295E+02  0.78044480349E+02  0.00000000000E+00 0. -1.
         -5    1    3    3    0  503  0.98755041233E+02 -0.42922819004E+02 -0.12690110056E+03  0.16649596356E+03  0.47000000000E+01 0.  1.
         11    1    4    4    0    0  0.30886249834E+02  0.65717585828E+01  0.40457224441E+01  0.31835770916E+02  0.00000000000E+00 0. -1.
        -12    1    4    4    0    0 -0.28402726108E+02  0.62672674184E+01 -0.54086693363E+02  0.61411431267E+02  0.00000000000E+00 0.  1.
</event>
<event>
12    1  0.1046899E+000  0.2172510E+03  0.7818608E-02  0.1136051E+00
         21   -1    0    0  501  502  0.00000000000E+00  0.00000000000E+00  0.20153837262E+03  0.20153837262E+03  0.00000000000E+00 0.  1.
         21   -1    0    0  502  503 -0.00000000000E+00 -0.00000000000E+00 -0.70751246854E+03  0.70751246854E+03  0.00000000000E+00 0.  1.
         -6    2    1    2    0  503  0.12910502024E+03 -0.27143391690E+02 -0.62487717742E+03  0.66138990289E+03  0.17193093623E+03 0.  0.
        -24    2    3    3    0    0 -0.18690004944E+01 -0.26087767365E+02 -0.29606139192E+03  0.30741643038E+03  0.78539474894E+02 0.  0.
          6    2    1    2  501    0 -0.12910502024E+03  0.27143391690E+02  0.11890308150E+03  0.24766093826E+03  0.17260685847E+03 0.  0.
         24    2    5    5    0    0 -0.35725950818E+02 -0.31387230448E+02  0.12234091333E+02  0.94214374940E+02  0.80406303593E+02 0.  0.
          5    1    5    5  501    0 -0.93379069419E+02  0.58530622138E+02  0.10666899016E+03  0.15344656332E+03  0.47000000000E+01 0. -1.
        -13    1    6    6    0    0 -0.32654194789E+02 -0.42840148559E+02 -0.21848044606E+02  0.58128408020E+02  0.00000000000E+00 0.  1.
         14    1    6    6    0    0 -0.30717560286E+01  0.11452918110E+02  0.34082135939E+02  0.36085966920E+02  0.00000000000E+00 0. -1.
         -5    1    3    3    0  503  0.13097402073E+03 -0.10556243249E+01 -0.32881578550E+03  0.35397347251E+03  0.47000000000E+01 0.  1.
         11    1    4    4    0    0  0.27023747323E+02 -0.41887921097E+02 -0.17883772137E+03  0.18565508729E+03  0.00000000000E+00 0. -1.
        -12    1    4    4    0    0 -0.28892747818E+02  0.15800153731E+02 -0.11722367055E+03  0.12176134309E+03  0.00000000000E+00 0.  1.
</event>
<event>
12    1  0.1046899E+000  0.2499342E+03  0.7818608E-02  0.1113413E+00
         21   -1    0    0  503  502  0.00000000000E+00  0.00000000000E+00  0.93480746093E+03  0.93480746093E+03  0.00000000000E+00 0. -1.
         21   -1    0    0  501  503 -0.00000000000E+00 -0.00000000000E+00 -0.67239690284E+02  0.67239690284E+02  0.00000000000E+00 0. -1.
          6    2    1    2  501    0  0.44399723135E+02 -0.17541002918E+03  0.38969031430E+03  0.46295318463E+03  0.17241547595E+03 0.  0.
         24    2    3    3    0    0  0.23005654925E+02 -0.19142012717E+03  0.38003692932E+03  0.43415548969E+03  0.83018048252E+02 0.  0.
         -6    2    1    2    0  502 -0.44399723135E+02  0.17541002918E+03  0.47787745634E+03  0.53909396659E+03  0.17180054651E+03 0.  0.
        -24    2    5    5    0    0 -0.30452903669E+02  0.13063803471E+03  0.18285187488E+03  0.24032778881E+03  0.79554776573E+02 0.  0.
          5    1    3    3  501    0  0.21394068209E+02  0.16010097992E+02  0.96533849832E+01  0.28797694940E+02  0.47000000000E+01 0. -1.
        -11    1    4    4    0    0  0.11215283271E+02 -0.42593324222E+02  0.17541453602E+03  0.18085970611E+03  0.00000000000E+00 0.  1.
         12    1    4    4    0    0  0.11790371654E+02 -0.14882680294E+03  0.20462239330E+03  0.25329578358E+03  0.00000000000E+00 0. -1.
         -5    1    5    5    0  502 -0.13946819465E+02  0.44771994466E+02  0.29502558147E+03  0.29876617777E+03  0.47000000000E+01 0.  1.
         13    1    6    6    0    0 -0.33159461256E+02  0.19203667051E+02  0.79799658547E+02  0.88522969918E+02  0.00000000000E+00 0. -1.
        -14    1    6    6    0    0  0.27065575863E+01  0.11143436766E+03  0.10305221633E+03  0.15180481890E+03  0.00000000000E+00 0.  1.
</event>
<event>
12    1  0.1046899E+000  0.2269836E+03  0.7818608E-02  0.1128958E+00
         21   -1    0    0  503  502  0.00000000000E+00  0.00000000000E+00  0.16980855851E+03  0.16980855851E+03  0.00000000000E+00 0. -1.
         21   -1    0    0  501  503 -0.00000000000E+00 -0.00000000000E+00 -0.34495974350E+03  0.34495974350E+03  0.00000000000E+00 0. -1.
          6    2    1    2  501    0  0.88381376113E+02 -0.11797710607E+03 -0.17847555660E+03  0.28874740541E+03  0.17260264954E+03 0.  0.
         24    2    3    3    0    0  0.13459993640E+02  0.14159109928E+01 -0.37158443687E+02  0.89096403718E+02  0.79838856363E+02 0.  0.
         -6    2    1    2    0  502 -0.88381376113E+02  0.11797710607E+03  0.33243716077E+01  0.22602089660E+03  0.17130244906E+03 0.  0.
        -24    2    5    5    0    0 -0.31513522386E+02  0.35359051077E+02 -0.57694773812E+02  0.10852569710E+03  0.78776744154E+02 0.  0.
          5    1    3    3  501    0  0.74921382473E+02 -0.11939301706E+03 -0.14131711291E+03  0.19965100169E+03  0.47000000000E+01 0. -1.
        -11    1    4    4    0    0  0.15715616267E+02  0.25703945681E+02 -0.52321125083E+02  0.60375272655E+02  0.00000000000E+00 0.  1.
         12    1    4    4    0    0 -0.22556226271E+01 -0.24288034688E+02  0.15162681395E+02  0.28721131063E+02  0.00000000000E+00 0. -1.
         -5    1    5    5    0  502 -0.56867853728E+02  0.82618054989E+02  0.61019145419E+02  0.11749519950E+03  0.47000000000E+01 0.  1.
         11    1    6    6    0    0 -0.92138393044E+01 -0.11802327034E+02 -0.54212143215E+02  0.56241854789E+02  0.00000000000E+00 0. -1.
        -12    1    6    6    0    0 -0.22299683081E+02  0.47161378111E+02 -0.34826305968E+01  0.52283842310E+02  0.00000000000E+00 0.  1.
</event>
<event>
12    1  0.1046899E+000  0.2488007E+03  0.7818608E-02  0.1114274E+00
         21   -1    0    0  501  502  0.00000000000E+00  0.00000000000E+00  0.20410518429E+03  0.20410518429E+03  0.00000000000E+00 0.  1.
         21   -1    0    0  502  503 -0.00000000000E+00 -0.00000000000E+00 -0.37233228804E+03  0.37233228804E+03  0.00000000000E+00 0.  1.
         -6    2    1    2    0  503  0.45700764654E+02 -0.17392684079E+03  0.41246509444E+02  0.25219643847E+03  0.17193796322E+03 0.  0.
        -24    2    3    3    0    0  0.21921421360E+01 -0.17507099832E+03  0.63149303777E+02  0.20324613990E+03  0.81648630589E+02 0.  0.
          6    2    1    2  501    0 -0.45700764654E+02  0.17392684079E+03 -0.20947361319E+03  0.32424103386E+03  0.17004101734E+03 0.  0.
         24    2    5    5    0    0 -0.43429578965E+02  0.17728204040E+03 -0.11447311117E+03  0.22903808731E+03  0.77712946658E+02 0.  0.
          5    1    5    5  501    0 -0.22711856892E+01 -0.33551996082E+01 -0.95000502022E+02  0.95202946558E+02  0.47000000000E+01 0. -1.
        -11    1    6    6    0    0 -0.17572355049E+02  0.80294894856E+01  0.53632857786E+01  0.20050566020E+02  0.00000000000E+00 0.  1.
         12    1    6    6    0    0 -0.25857223916E+02  0.16925255091E+03 -0.11983639695E+03  0.20898752129E+03  0.00000000000E+00 0. -1.
         -5    1    3    3    0  503  0.43508622518E+02  0.11441575333E+01 -0.21902794333E+02  0.48950298564E+02  0.47000000000E+01 0.  1.
         13    1    4    4    0    0  0.24786332855E+02 -0.12127859000E+03  0.97754392003E+01  0.12417092212E+03  0.00000000000E+00 0. -1.
        -14    1    4    4    0    0 -0.22594190719E+02 -0.53792408324E+02  0.53373864577E+02  0.79075217783E+02  0.00000000000E+00 0.  1.
</event>
<event>
12    1  0.1046899E+000  0.3313199E+03  0.7818608E-02  0.1071127E+00
         21   -1    0    0  501  502  0.00000000000E+00  0.00000000000E+00  0.64230521433E+03  0.64230521433E+03  0.00000000000E+00 0. -1.
         21   -1    0    0  502  503 -0.00000000000E+00 -0.00000000000E+00 -0.28593709943E+03  0.28593709943E+03  0.00000000000E+00 0.  1.
         -6    2    1    2    0  503  0.27688618978E+03 -0.10345182618E+02 -0.12038838738E+03  0.34766531913E+03  0.17206052834E+03 0.  0.
        -24    2    3    3    0    0  0.29411591033E+03 -0.96951902595E+01 -0.11447858204E+03  0.32884241926E+03  0.91835861926E+02 0.  0.
          6    2    1    2  501    0 -0.27688618978E+03  0.10345182618E+02  0.47675650228E+03  0.58057699463E+03  0.18165874416E+03 0.  0.
         24    2    5    5    0    0 -0.12568841531E+03  0.33809551555E+02  0.35092329573E+03  0.38241688390E+03  0.78452852604E+02 0.  0.
          5    1    5    5  501    0 -0.15119777447E+03 -0.23464368937E+02  0.12583320655E+03  0.19816011073E+03  0.47000000000E+01 0. -1.
        -11    1    6    6    0    0 -0.11332357242E+03  0.47590236951E+01  0.21737449983E+03  0.24518677279E+03  0.00000000000E+00 0.  1.
         12    1    6    6    0    0 -0.12364842889E+02  0.29050527860E+02  0.13354879590E+03  0.13723011111E+03  0.00000000000E+00 0. -1.
         -5    1    3    3    0  503 -0.17229720548E+02 -0.64999235822E+00 -0.59098053383E+01  0.18822899866E+02  0.47000000000E+01 0.  1.
         11    1    4    4    0    0 -0.18438890128E+01 -0.61105663532E+00 -0.16999803053E+02  0.17110424330E+02  0.00000000000E+00 0. -1.
        -12    1    4    4    0    0  0.29595979934E+03 -0.90841336242E+01 -0.97478778991E+02  0.31173199493E+03  0.00000000000E+00 0.  1.
</event>
<event>
12    1  0.1046899E+000  0.2357760E+03  0.7818608E-02  0.1122698E+00
         21   -1    0    0  503  502  0.00000000000E+00  0.00000000000E+00  0.14488085706E+04  0.14488085706E+04  0.00000000000E+00 0.  1.
         21   -1    0    0  501  503 -0.00000000000E+00 -0.00000000000E+00 -0.62419209255E+02  0.62419209255E+02  0.00000000000E+00 0.  1.
          6    2    1    2  501    0 -0.43187660395E+02 -0.15504059280E+03  0.22393527775E+03  0.32517279062E+03  0.17230082911E+03 0.  0.
         24    2    3    3    0    0 -0.43998318400E+02 -0.22364097304E+02  0.13800846741E+03  0.16702976562E+03  0.80103686889E+02 0.  0.
         -6    2    1    2    0  502  0.43187660395E+02  0.15504059280E+03  0.11624540836E+04  0.11860549892E+04  0.17182602133E+03 0.  0.
        -24    2    5    5    0    0  0.69904871643E+02  0.16995302133E+03  0.10695400796E+04  0.10881198472E+04  0.79486473837E+02 0.  0.
          5    1    3    3  501    0  0.81065800547E+00 -0.13267649549E+03  0.85926810340E+02  0.15814302500E+03  0.47000000000E+01 0. -1.
        -13    1    4    4    0    0 -0.59249744772E+02  0.82787462206E+01  0.89944989405E+02  0.10802393722E+03  0.00000000000E+00 0.  1.
         14    1    4    4    0    0  0.15251426372E+02 -0.30642843525E+02  0.48063478009E+02  0.59005828390E+02  0.00000000000E+00 0. -1.
         -5    1    5    5    0  502 -0.26717211248E+02 -0.14912428536E+02  0.92914003946E+02  0.97935141962E+02  0.47000000000E+01 0.  1.
         13    1    6    6    0    0  0.47874299476E+02  0.11902063728E+03  0.91436388510E+03  0.92331964943E+03  0.00000000000E+00 0. -1.
        -14    1    6    6    0    0  0.22030572167E+02  0.50932384052E+02  0.15517619452E+03  0.16480019782E+03  0.00000000000E+00 0.  1.
</event>
<event>
12    1  0.1046899E+000  0.2072900E+03  0.7818608E-02  0.1143800E+00
         21   -1    0    0  503  502  0.00000000000E+00  0.00000000000E+00  0.19107236445E+03  0.19107236445E+03  0.00000000000E+00 0.  1.
         21   -1    0    0  501  503 -0.00000000000E+00 -0.00000000000E+00 -0.22508496028E+03  0.22508496028E+03  0.00000000000E+00 0.  1.
          6    2    1    2  501    0 -0.42495633576E+02  0.10580314965E+03 -0.27506337156E+02  0.20876521512E+03  0.17270243516E+03 0.  0.
         24    2    3    3    0    0  0.13224767816E+02  0.48616544069E+02 -0.69073094541E+02  0.11862667559E+03  0.82235837261E+02 0.  0.
         -6    2    1    2    0  502  0.42495633576E+02 -0.10580314965E+03 -0.65062586740E+01  0.20739210960E+03  0.17311548277E+03 0.  0.
        -24    2    5    5    0    0  0.30710370467E+02 -0.12906951589E+03 -0.44324316652E+02  0.16121298300E+03  0.80143084876E+02 0.  0.
          5    1    3    3  501    0 -0.55720401392E+02  0.57186605583E+02  0.41566757384E+02  0.90138539531E+02  0.47000000000E+01 0. -1.
        -13    1    4    4    0    0 -0.33675877281E+02  0.21854925091E+02 -0.42431488127E+02  0.58413471443E+02  0.00000000000E+00 0.  1.
         14    1    4    4    0    0  0.46900645096E+02  0.26761618978E+02 -0.26641606414E+02  0.60213204142E+02  0.00000000000E+00 0. -1.
         -5    1    5    5    0  502  0.11785263109E+02  0.23266366243E+02  0.37818057978E+02  0.46179126604E+02  0.47000000000E+01 0.  1.
         11    1    6    6    0    0 -0.24203056555E+02 -0.54154252764E+02 -0.25658440543E+01  0.59372170204E+02  0.00000000000E+00 0. -1.
        -12    1    6    6    0    0  0.54913427022E+02 -0.74915263131E+02 -0.41758472598E+02  0.10184081280E+03  0.00000000000E+00 0.  1.
</event>
<event>
12    1  0.1046899E+000  0.3893250E+03  0.7818608E-02  0.1047607E+00
         21   -1    0    0  503  502  0.00000000000E+00  0.00000000000E+00  0.56307179160E+03  0.56307179160E+03  0.00000000000E+00 0.  1.
         21   -1    0    0  501  503 -0.00000000000E+00 -0.00000000000E+00 -0.26919651248E+03  0.26919651248E+03  0.00000000000E+00 0.  1.
          6    2    1    2  501    0  0.19103470429E+03 -0.29258137197E+03  0.12871087097E+03  0.41004936208E+03  0.17168539124E+03 0.  0.
         24    2    3    3    0    0  0.18908744855E+03 -0.23413111925E+03  0.15246744737E+03  0.34675095159E+03  0.80115265222E+02 0.  0.
         -6    2    1    2    0  502 -0.19103470429E+03  0.29258137197E+03  0.16516440815E+03  0.42221894201E+03  0.16997480932E+03 0.  0.
        -24    2    5    5    0    0 -0.21148460216E+03  0.24044245565E+03  0.12478593357E+03  0.35301506837E+03  0.80683318279E+02 0.  0.
          5    1    3    3  501    0  0.19472557393E+01 -0.58450252719E+02 -0.23756576396E+02  0.63298410485E+02  0.47000000000E+01 0. -1.
        -11    1    4    4    0    0  0.50400873087E+01  0.14720215733E+01  0.18334182898E+02  0.19071224139E+02  0.00000000000E+00 0.  1.
         12    1    4    4    0    0  0.18404736125E+03 -0.23560314082E+03  0.13413326447E+03  0.32767972745E+03  0.00000000000E+00 0. -1.
         -5    1    5    5    0  502  0.20449897862E+02  0.52138916319E+02  0.40378474585E+02  0.69203873644E+02  0.47000000000E+01 0.  1.
         13    1    6    6    0    0 -0.24024611458E+02  0.79347869750E+02  0.26759728129E+02  0.87116872298E+02  0.00000000000E+00 0. -1.
        -14    1    6    6    0    0 -0.18745999070E+03  0.16109458590E+03  0.98026205439E+02  0.26589819607E+03  0.00000000000E+00 0.  1.
</event>
<event>
12    1  0.1046899E+000  0.2241678E+03  0.7818608E-02  0.1131033E+00
         21   -1    0    0  503  502  0.00000000000E+00  0.00000000000E+00  0.14606847588E+03  0.14606847588E+03  0.00000000000E+00 0. -1.
         21   -1    0    0  501  503 -0.00000000000E+00 -0.00000000000E+00 -0.34368819296E+03  0.34368819296E+03  0.00000000000E+00 0. -1.
          6    2    1    2  501    0 -0.11915846324E+03 -0.76810761893E+02 -0.82315620893E+02  0.23767291590E+03  0.17208695768E+03 0.  0.
         24    2    3    3    0    0 -0.93773650298E+02 -0.11994395328E+03 -0.72884339161E+02  0.18652704605E+03  0.79373563573E+02 0.  0.
         -6    2    1    2    0  502  0.11915846324E+03  0.76810761893E+02 -0.11530409619E+03  0.25208375295E+03  0.17364490029E+03 0.  0.
        -24    2    5    5    0    0  0.38215678724E+02 -0.17076539500E+02 -0.67287210943E+02  0.11906393864E+03  0.88862851786E+02 0.  0.
          5    1    3    3  501    0 -0.25384812946E+02  0.43133191386E+02 -0.94312817319E+01  0.51145869848E+02  0.47000000000E+01 0. -1.
        -13    1    4    4    0    0 -0.27971927889E+02 -0.83986553170E+02 -0.10805294400E+02  0.89179169374E+02  0.00000000000E+00 0.  1.
         14    1    4    4    0    0 -0.65801722409E+02 -0.35957400110E+02 -0.62079044761E+02  0.97347876675E+02  0.00000000000E+00 0. -1.
         -5    1    5    5    0  502  0.80942784520E+02  0.93887301393E+02 -0.48016885244E+02  0.13301981430E+03  0.47000000000E+01 0.  1.
         13    1    6    6    0    0  0.43832059362E+02 -0.62893322522E+01  0.60792214425E+01  0.44696331633E+02  0.00000000000E+00 0. -1.
        -14    1    6    6    0    0 -0.56163806385E+01 -0.10787207247E+02 -0.73366432385E+02  0.74367607011E+02  0.00000000000E+00 0.  1.
</event>
<event>
12    1  0.1046899E+000  0.1758335E+03  0.7818608E-02  0.1172826E+00
         21   -1    0    0  501  502  0.00000000000E+00  0.00000000000E+00  0.15581617928E+03  0.15581617928E+03  0.00000000000E+00 0.  1.
         21   -1    0    0  502  503 -0.00000000000E+00 -0.00000000000E+00 -0.20933078553E+03  0.20933078553E+03  0.00000000000E+00 0.  1.
         -6    2    1    2    0  503  0.22484139565E+02  0.30771278774E+02 -0.75431328643E+02  0.18795279973E+03  0.16788079538E+03 0.  0.
        -24    2    3    3    0    0 -0.24716477011E+02  0.69484802586E+02 -0.34324771117E+02  0.11420678829E+03  0.80162076782E+02 0.  0.
          6    2    1    2  501    0 -0.22484139565E+02 -0.30771278774E+02  0.21916722403E+02  0.17719416508E+03  0.17165378320E+03 0.  0.
         24    2    5    5    0    0  0.43400198837E+02 -0.53982999196E+02  0.23433624179E+02  0.10716616352E+03  0.78343540892E+02 0.  0.
          5    1    5    5  501    0 -0.65884338403E+02  0.23211720422E+02 -0.15169017768E+01  0.70028001561E+02  0.47000000000E+01 0. -1.
        -13    1    6    6    0    0  0.70910064808E+01 -0.38939056525E+02 -0.23436990871E+02  0.45998098190E+02  0.00000000000E+00 0.  1.
         14    1    6    6    0    0  0.36309192357E+02 -0.15043942671E+02  0.46870615051E+02  0.61168065327E+02  0.00000000000E+00 0. -1.
         -5    1    3    3    0  503  0.47200616577E+02 -0.38713523813E+02 -0.41106557526E+02  0.73746011437E+02  0.47000000000E+01 0.  1.
         13    1    4    4    0    0  0.26785522300E+02  0.21083282776E+02  0.31086858103E+01  0.34229124222E+02  0.00000000000E+00 0. -1.
        -14    1    4    4    0    0 -0.51501999312E+02  0.48401519810E+02 -0.37433456927E+02  0.79977664073E+02  0.00000000000E+00 0.  1.
</event>
<event>
12    1  0.1046899E+000  0.3009225E+03  0.7818608E-02  0.1084994E+00
         21   -1    0    0  503  502  0.00000000000E+00  0.00000000000E+00  0.91693298946E+03  0.91693298946E+03  0.00000000000E+00 0.  1.
         21   -1    0    0  501  503 -0.00000000000E+00 -0.00000000000E+00 -0.13271515406E+03  0.13271515406E+03  0.00000000000E+00 0.  1.
          6    2    1    2  501    0 -0.23988265931E+03 -0.48601661214E+02  0.12528397110E+03  0.32596075693E+03  0.17506721548E+03 0.  0.
         24    2    3    3    0    0 -0.25279539254E+03 -0.68942350281E+02  0.12591737333E+03  0.30140523800E+03  0.79569934251E+02 0.  0.
         -6    2    1    2    0  502  0.23988265931E+03  0.48601661214E+02  0.65893386430E+03  0.72368738659E+03  0.17211561309E+03 0.  0.
        -24    2    5    5    0    0  0.19893097877E+03  0.19713705544E+02  0.62968370612E+03  0.66547041419E+03  0.79919571488E+02 0.  0.
          5    1    3    3  501    0  0.12912733238E+02  0.20340689067E+02 -0.63340223038E+00  0.24555518928E+02  0.47000000000E+01 0. -1.
        -11    1    4    4    0    0 -0.13744442021E+03 -0.78176343390E+02  0.72284963241E+02  0.17386093645E+03  0.00000000000E+00 0.  1.
         12    1    4    4    0    0 -0.11535097233E+03  0.92339931085E+01  0.53632410085E+02  0.12754430155E+03  0.00000000000E+00 0. -1.
         -5    1    5    5    0  502  0.40951680535E+02  0.28887955670E+02  0.29250158185E+02  0.58216972399E+02  0.47000000000E+01 0.  1.
         13    1    6    6    0    0  0.24911735657E+02  0.30623029234E+02  0.88847157888E+02  0.97222332608E+02  0.00000000000E+00 0. -1.
        -14    1    6    6    0    0  0.17401924311E+03 -0.10909323690E+02  0.54083654823E+03  0.56824808158E+03  0.00000000000E+00 0.  1.
</event>
<event>
12    1  0.1046899E+000  0.2591175E+03  0.7818608E-02  0.1108478E+00
         21   -1    0    0  501  502  0.00000000000E+00  0.00000000000E+00  0.19603052784E+03  0.19603052784E+03  0.00000000000E+00 0. -1.
         21   -1    0    0  502  503 -0.00000000000E+00 -0.00000000000E+00 -0.65241536321E+03  0.65241536321E+03  0.00000000000E+00 0. -1.
         -6    2    1    2    0  503 -0.19411318793E+03  0.15666800660E+02 -0.52260896269E+03  0.58099961222E+03  0.16283440404E+03 0.  0.
        -24    2    3    3    0    0 -0.14422952728E+03  0.70446753762E+02 -0.38670520420E+03  0.42614114640E+03  0.79312420520E+02 0.  0.
          6    2    1    2  501    0  0.19411318793E+03 -0.15666800660E+02  0.66224127324E+02  0.26744627883E+03  0.17092834361E+03 0.  0.
         24    2    5    5    0    0  0.58747370626E+02  0.17641503641E+02  0.77993167073E+02  0.12746789505E+03  0.80016585482E+02 0.  0.
          5    1    5    5  501    0  0.13536581731E+03 -0.33308304301E+02 -0.11769039749E+02  0.13997838378E+03  0.47000000000E+01 0. -1.
        -13    1    6    6    0    0 -0.10637709519E+02 -0.98759269464E+01  0.42317812226E+02  0.44738037826E+02  0.00000000000E+00 0.  1.
         14    1    6    6    0    0  0.69385080145E+02  0.27517430588E+02  0.35675354847E+02  0.82729857224E+02  0.00000000000E+00 0. -1.
         -5    1    3    3    0  503 -0.49883660653E+02 -0.54779953102E+02 -0.13590375849E+03  0.15485846581E+03  0.47000000000E+01 0.  1.
         13    1    4    4    0    0 -0.10964514278E+02 -0.10029669605E+02 -0.88561524323E+02  0.89799545857E+02  0.00000000000E+00 0. -1.
        -14    1    4    4    0    0 -0.13326501300E+03  0.80476423367E+02 -0.29814367988E+03  0.33634160055E+03  0.00000000000E+00 0.  1.
</event>
<event>
12    1  0.1046899E+000  0.1926156E+03  0.7818608E-02  0.1156541E+00
         21   -1    0    0  503  502  0.00000000000E+00  0.00000000000E+00  0.29871492713E+02  0.29871492713E+02  0.00000000000E+00 0. -1.
         21   -1    0    0  501  503 -0.00000000000E+00 -0.00000000000E+00 -0.12350346091E+04  0.12350346091E+04  0.00000000000E+00 0. -1.
          6    2    1    2  501    0 -0.55815739711E+01  0.82836853948E+02 -0.55904346569E+03  0.59068701951E+03  0.17172204328E+03 0.  0.
         24    2    3    3    0    0 -0.83421660673E+01  0.11312790141E+03 -0.30637997474E+03  0.33615588569E+03  0.79149079288E+02 0.  0.
         -6    2    1    2    0  502  0.55815739711E+01 -0.82836853948E+02 -0.64611965070E+03  0.67421908231E+03  0.17380353731E+03 0.  0.
        -24    2    5    5    0    0 -0.62537681482E+02 -0.46777670874E+02 -0.33831794141E+03  0.35687939067E+03  0.82490956499E+02 0.  0.
          5    1    3    3  501    0  0.27605920962E+01 -0.30291047460E+02 -0.25266349094E+03  0.25453113381E+03  0.47000000000E+01 0. -1.
        -13    1    4    4    0    0 -0.55515430764E+01  0.10488084047E+03 -0.17225647460E+03  0.20175010129E+03  0.00000000000E+00 0.  1.
         14    1    4    4    0    0 -0.27906229909E+01  0.82470609336E+01 -0.13412350014E+03  0.13440578440E+03  0.00000000000E+00 0. -1.
         -5    1    5    5    0  502  0.68119255453E+02 -0.36059183074E+02 -0.30780170929E+03  0.31733969164E+03  0.47000000000E+01 0.  1.
         13    1    6    6    0    0 -0.29212671535E+02 -0.61146984015E+02 -0.14332782170E+03  0.15854084113E+03  0.00000000000E+00 0. -1.
        -14    1    6    6    0    0 -0.33325009947E+02  0.14369313140E+02 -0.19499011971E+03  0.19833854954E+03  0.00000000000E+00 0.  1.
</event>
<event>
12    1  0.1046899E+000  0.2294996E+03  0.7818608E-02  0.1127216E+00
         21   -1    0    0  501  502  0.00000000000E+00  0.00000000000E+00  0.10801143772E+04  0.10801143772E+04  0.00000000000E+00 0. -1.
         21   -1    0    0  502  503 -0.00000000000E+00 -0.00000000000E+00 -0.65910428310E+02  0.65910428310E+02  0.00000000000E+00 0.  1.
         -6    2    1    2    0  503  0.53105692686E+02 -0.14139934843E+03  0.21153399934E+03  0.31119001299E+03  0.17110990905E+03 0.  0.
        -24    2    3    3    0    0  0.49333962862E+02 -0.14462610050E+03  0.23234845846E+03  0.28928180486E+03  0.79671874787E+02 0.  0.
          6    2    1    2  501    0 -0.53105692686E+02  0.14139934843E+03  0.80266994960E+03  0.83483479256E+03  0.17278915636E+03 0.  0.
         24    2    5    5    0    0  0.27533840905E+02  0.11883014675E+03  0.52515909761E+03  0.54492710689E+03  0.79213369132E+02 0.  0.
          5    1    5    5  501    0 -0.80639533591E+02  0.22569201689E+02  0.27751085199E+03  0.28990768568E+03  0.47000000000E+01 0. -1.
        -13    1    6    6    0    0  0.15708637369E+02 -0.36326000588E+01  0.24185109879E+02  0.29066761276E+02  0.00000000000E+00 0.  1.
         14    1    6    6    0    0  0.11825203536E+02  0.12246274680E+03  0.50097398773E+03  0.51586034561E+03  0.00000000000E+00 0. -1.
         -5    1    3    3    0  503  0.37717298238E+01  0.32267520698E+01 -0.20814459128E+02  0.21908208132E+02  0.47000000000E+01 0.  1.
         11    1    4    4    0    0  0.50649958052E+02 -0.99772837692E+02  0.21261749698E+03  0.24026285067E+03  0.00000000000E+00 0. -1.
        -12    1    4    4    0    0 -0.13159951892E+01 -0.44853262813E+02  0.19730961486E+02  0.49018954186E+02  0.00000000000E+00 0.  1.
</event>
<event>
12    1  0.1046899E+000  0.1724096E+03  0.7818608E-02  0.1175503E+00
         21   -1    0    0  501  502  0.00000000000E+00  0.00000000000E+00  0.22559052531E+02  0.22559052531E+02  0.00000000000E+00 0.  1.
         21   -1    0    0  502  503 -0.00000000000E+00 -0.00000000000E+00 -0.13470287438E+04  0.13470287438E+04  0.00000000000E+00 0.  1.
         -6    2    1    2    0  503 -0.77689681012E+01  0.88813871282E-01 -0.55498431399E+03  0.58114769679E+03  0.17223440991E+03 0.  0.
        -24    2    3    3    0    0  0.37166342464E+02  0.89699081818E+01 -0.50709547816E+03  0.51471361993E+03  0.79514088712E+02 0.  0.
          6    2    1    2  501    0  0.77689681012E+01 -0.88813871282E-01 -0.76948537729E+03  0.78844009955E+03  0.17166735264E+03 0.  0.
         24    2    5    5    0    0 -0.40406774037E+02 -0.15719180255E+02 -0.67441932377E+03  0.68062147864E+03  0.80773590304E+02 0.  0.
          5    1    5    5  501    0  0.48175742138E+02  0.15630366384E+02 -0.95066053516E+02  0.10781862091E+03  0.47000000000E+01 0. -1.
        -11    1    6    6    0    0  0.72247752717E+01 -0.21922759761E+01 -0.43267023428E+01  0.87019425903E+01  0.00000000000E+00 0.  1.
         12    1    6    6    0    0 -0.47631549309E+02 -0.13526904279E+02 -0.67009262143E+03  0.67191953605E+03  0.00000000000E+00 0. -1.
         -5    1    3    3    0  503 -0.44935310565E+02 -0.88810943106E+01 -0.47888835834E+02  0.66434076868E+02  0.47000000000E+01 0.  1.
         11    1    4    4    0    0  0.46463018586E+02  0.33016488407E+02 -0.25444403576E+03  0.26075020218E+03  0.00000000000E+00 0. -1.
        -12    1    4    4    0    0 -0.92966761223E+01 -0.24046580225E+02 -0.25265144240E+03  0.25396341775E+03  0.00000000000E+00 0.  1.
</event>
<event>
12    1  0.1046899E+000  0.8097403E+03  0.7818608E-02  0.9546137E-01
         21   -1    0    0  501  502  0.00000000000E+00  0.00000000000E+00  0.11657435659E+04  0.11657435659E+04  0.00000000000E+00 0.  1.
         21   -1    0    0  502  503 -0.00000000000E+00 -0.00000000000E+00 -0.72731246006E+03  0.72731246006E+03  0.00000000000E+00 0.  1.
         -6    2    1    2    0  503 -0.65587295466E+03  0.44209116773E+03  0.67011814480E+03  0.10508219193E+04  0.17191406265E+03 0.  0.
        -24    2    3    3    0    0 -0.61579500379E+03  0.36167334527E+03  0.61190433977E+03  0.94365753435E+03  0.77791553084E+02 0.  0.
          6    2    1    2  501    0  0.65587295466E+03 -0.44209116773E+03 -0.23168703900E+03  0.84223410658E+03  0.17339398201E+03 0.  0.
         24    2    5    5    0    0  0.29366750939E+03 -0.26338078279E+03 -0.78667005174E+02  0.41029961268E+03  0.80914965514E+02 0.  0.
          5    1    5    5  501    0  0.36220544527E+03 -0.17871038495E+03 -0.15302003382E+03  0.43193449390E+03  0.47000000000E+01 0. -1.
        -11    1    6    6    0    0  0.19766256420E+02 -0.33906680624E+02 -0.30580581068E+02  0.49754796978E+02  0.00000000000E+00 0.  1.
         12    1    6    6    0    0  0.27390125297E+03 -0.22947410216E+03 -0.48086424106E+02  0.36054481570E+03  0.00000000000E+00 0. -1.
         -5    1    3    3    0  503 -0.40077950873E+02  0.80417822458E+02  0.58213805031E+02  0.10716438499E+03  0.47000000000E+01 0.  1.
         13    1    4    4    0    0 -0.22627361445E+03  0.12184692784E+03  0.26849603965E+03  0.37166725135E+03  0.00000000000E+00 0. -1.
        -14    1    4    4    0    0 -0.38952138934E+03  0.23982641743E+03  0.34340830012E+03  0.57199028300E+03  0.00000000000E+00 0.  1.
</event>
<event>
12    1  0.1046899E+000  0.2939352E+03  0.7818608E-02  0.1088425E+00
         21   -1    0    0  501  502  0.00000000000E+00  0.00000000000E+00  0.10558904611E+04  0.10558904611E+04  0.00000000000E+00 0.  1.
         21   -1    0    0  502  503 -0.00000000000E+00 -0.00000000000E+00 -0.17962092223E+03  0.17962092223E+03  0.00000000000E+00 0.  1.
         -6    2    1    2    0  503  0.23723311274E+03  0.11356074941E+02  0.89483027574E+03  0.94187002029E+03  0.17317448576E+03 0.  0.
        -24    2    3    3    0    0  0.10808309456E+03 -0.57586419417E+02  0.49988762270E+03  0.52064017339E+03  0.78615544212E+02 0.  0.
          6    2    1    2  501    0 -0.23723311274E+03 -0.11356074941E+02 -0.18560736872E+02  0.29364136304E+03  0.17167480571E+03 0.  0.
         24    2    5    5    0    0 -0.15062487872E+03  0.23578002521E+02 -0.70886860674E+02  0.18648965190E+03  0.80682507133E+02 0.  0.
          5    1    5    5  501    0 -0.86608234013E+02 -0.34934077462E+02  0.52326123802E+02  0.10715171113E+03  0.47000000000E+01 0. -1.
        -11    1    6    6    0    0 -0.25557736587E+02 -0.11033986456E+02 -0.46875936132E+02  0.54518805424E+02  0.00000000000E+00 0.  1.
         12    1    6    6    0    0 -0.12506714214E+03  0.34611988976E+02 -0.24010924541E+02  0.13197084648E+03  0.00000000000E+00 0. -1.
         -5    1    3    3    0  503  0.12915001818E+03  0.68942494358E+02  0.39494265305E+03  0.42122984690E+03  0.47000000000E+01 0.  1.
         13    1    4    4    0    0 -0.32229535724E+00 -0.26707585659E+02  0.48251766908E+02  0.55150992881E+02  0.00000000000E+00 0. -1.
        -14    1    4    4    0    0  0.10840538991E+03 -0.30878833758E+02  0.45163585579E+03  0.46548918051E+03  0.00000000000E+00 0.  1.
</event>
<event>
12    1  0.1046899E+000  0.1726667E+03  0.7818608E-02  0.1175494E+00
         21   -1    0    0  501  502  0.00000000000E+00  0.00000000000E+00  0.81804646392E+03  0.81804646392E+03  0.00000000000E+00 0. -1.
         21   -1    0    0  502  503 -0.00000000000E+00 -0.00000000000E+00 -0.36151339454E+02  0.36151339454E+02  0.00000000000E+00 0. -1.
         -6    2    1    2    0  503  0.15498610769E+02 -0.34659006932E+00  0.40579052682E+03  0.44099858880E+03  0.17196940604E+03 0.  0.
        -24    2    3    3    0    0 -0.52077441931E+02 -0.63185924561E+01  0.30173948780E+03  0.31669695393E+03  0.80611770627E+02 0.  0.
          6    2    1    2  501    0 -0.15498610769E+02  0.34659006932E+00  0.37610459766E+03  0.41319921458E+03  0.17040714624E+03 0.  0.
         24    2    5    5    0    0 -0.12612874963E+02 -0.55128779855E+02  0.14711836938E+03  0.17752438164E+03  0.81687358171E+02 0.  0.
          5    1    5    5  501    0 -0.28857358065E+01  0.55475369924E+02  0.22898622827E+03  0.23567483293E+03  0.47000000000E+01 0. -1.
        -13    1    6    6    0    0  0.25361659502E+02 -0.70655764176E+01  0.89997051829E+02  0.93768893994E+02  0.00000000000E+00 0.  1.
         14    1    6    6    0    0 -0.37974534465E+02 -0.48063203437E+02  0.57121317554E+02  0.83755487650E+02  0.00000000000E+00 0. -1.
         -5    1    3    3    0  503  0.67576052700E+02  0.59720023868E+01  0.10405103901E+03  0.12430163487E+03  0.47000000000E+01 0.  1.
         11    1    4    4    0    0 -0.43198020492E+02  0.24781885101E+02  0.93267630473E+02  0.10573108198E+03  0.00000000000E+00 0. -1.
        -12    1    4    4    0    0 -0.88794214393E+01 -0.31100477557E+02  0.20847185733E+03  0.21096587195E+03  0.00000000000E+00 0.  1.
</event>
<event>
12    1  0.1046899E+000  0.1892868E+03  0.7818608E-02  0.1159112E+00
         21   -1    0    0  503  502  0.00000000000E+00  0.00000000000E+00  0.41093401471E+02  0.41093401471E+02  0.00000000000E+00 0. -1.
         21   -1    0    0  501  503 -0.00000000000E+00 -0.00000000000E+00 -0.88066009479E+03  0.88066009479E+03  0.00000000000E+00 0. -1.
          6    2    1    2  501    0  0.31693571179E+02  0.72613356609E+02 -0.37352539329E+03  0.41874896896E+03  0.17190781704E+03 0.  0.
         24    2    3    3    0    0  0.15351793633E+02 -0.29063693290E+02 -0.13271327442E+03  0.15679889210E+03  0.76763946760E+02 0.  0.
         -6    2    1    2    0  502 -0.31693571179E+02 -0.72613356609E+02 -0.46604130003E+03  0.50300452730E+03  0.17187751203E+03 0.  0.
        -24    2    5    5    0    0 -0.53656536944E+02 -0.49534608385E+02 -0.16851877469E+03  0.20374419988E+03  0.88206690091E+02 0.  0.
          5    1    3    3  501    0  0.16341777546E+02  0.10167704990E+03 -0.24081211887E+03  0.26195007686E+03  0.47000000000E+01 0. -1.
        -11    1    4    4    0    0  0.38282372005E+02  0.85226992560E+01 -0.56417547091E+02  0.68710377882E+02  0.00000000000E+00 0.  1.
         12    1    4    4    0    0 -0.22930578372E+02 -0.37586392546E+02 -0.76295727329E+02  0.88088514222E+02  0.00000000000E+00 0. -1.
         -5    1    5    5    0  502  0.21962965765E+02 -0.23078748224E+02 -0.29752252534E+03  0.29926032742E+03  0.47000000000E+01 0.  1.
         11    1    6    6    0    0  0.20050189419E+02  0.66392414643E+01 -0.23041169376E+02  0.31256761016E+02  0.00000000000E+00 0. -1.
        -12    1    6    6    0    0 -0.73706726362E+02 -0.56173849850E+02 -0.14547760531E+03  0.17248743886E+03  0.00000000000E+00 0.  1.
</event>
<event>
12    1  0.1046899E+000  0.1874461E+03  0.7818608E-02  0.1161245E+00
         21   -1    0    0  501  502  0.00000000000E+00  0.00000000000E+00  0.17950428615E+04  0.17950428615E+04  0.00000000000E+00 0.  1.
         21   -1    0    0  502  503 -0.00000000000E+00 -0.00000000000E+00 -0.19368851004E+02  0.19368851004E+02  0.00000000000E+00 0.  1.
         -6    2    1    2    0  503 -0.38801304218E+02  0.57875766236E+02  0.90304549714E+03  0.92229452601E+03  0.17401401463E+03 0.  0.
        -24    2    3    3    0    0  0.43279702363E+02  0.46588950306E+02  0.58318103637E+03  0.59184022189E+03  0.78301111942E+02 0.  0.
          6    2    1    2  501    0  0.38801304218E+02 -0.57875766236E+02  0.87262851333E+03  0.89211718646E+03  0.17186450063E+03 0.  0.
         24    2    5    5    0    0 -0.41624364008E+02 -0.36669493662E+02  0.40138197900E+03  0.41356376183E+03  0.82766252730E+02 0.  0.
          5    1    5    5  501    0  0.80425668226E+02 -0.21206272574E+02  0.47124653433E+03  0.47855342463E+03  0.47000000000E+01 0. -1.
        -11    1    6    6    0    0 -0.42818439687E+02 -0.56455625168E+02  0.36784109180E+03  0.37460342392E+03  0.00000000000E+00 0.  1.
         12    1    6    6    0    0  0.11940756788E+01  0.19786131506E+02  0.33540887197E+02  0.38960337917E+02  0.00000000000E+00 0. -1.
         -5    1    3    3    0  503 -0.82081006581E+02  0.11286815930E+02  0.31986446076E+03  0.33045430412E+03  0.47000000000E+01 0.  1.
         13    1    4    4    0    0  0.58160527292E+02  0.51026544143E+02  0.36516091582E+03  0.37326779875E+03  0.00000000000E+00 0. -1.
        -14    1    4    4    0    0 -0.14880824930E+02 -0.44375938363E+01  0.21802012056E+03  0.21857242314E+03  0.00000000000E+00 0.  1.
</event>
<event>
12    1  0.1046899E+000  0.1787503E+03  0.7818608E-02  0.1169303E+00
         21   -1    0    0  503  502  0.00000000000E+00  0.00000000000E+00  0.59938304319E+03  0.59938304319E+03  0.00000000000E+00 0. -1.
         21   -1    0    0  501  503 -0.00000000000E+00 -0.00000000000E+00 -0.54345678652E+02  0.54345678652E+02  0.00000000000E+00 0. -1.
          6    2    1    2  501    0  0.53380408479E+01 -0.43584435796E+02  0.32555956135E+03  0.37140367896E+03  0.17327309957E+03 0.  0.
         24    2    3    3    0    0 -0.63361799752E+02 -0.11357242398E+02  0.19460442781E+03  0.21997845949E+03  0.79849450168E+02 0.  0.
         -6    2    1    2    0  502 -0.53380408479E+01  0.43584435796E+02  0.21947780319E+03  0.28232504288E+03  0.17207215353E+03 0.  0.
        -24    2    5    5    0    0  0.33538760597E+01  0.86160981525E+02  0.20509702782E+03  0.23631191034E+03  0.79646499777E+02 0.  0.
          5    1    3    3  501    0  0.68699840599E+02 -0.32227193398E+02  0.13095513354E+03  0.15142521948E+03  0.47000000000E+01 0. -1.
        -13    1    4    4    0    0 -0.27171269691E+02 -0.40515622578E+02  0.58574909586E+02  0.76228692777E+02  0.00000000000E+00 0.  1.
         14    1    4    4    0    0 -0.36190530061E+02  0.29158380180E+02  0.13602951822E+03  0.14374976671E+03  0.00000000000E+00 0. -1.
         -5    1    5    5    0  502 -0.86919169076E+01 -0.42576545728E+02  0.14380775366E+02  0.46013132536E+02  0.47000000000E+01 0.  1.
         13    1    6    6    0    0 -0.30696956073E+02  0.13404073094E+02  0.36407979827E+02  0.49472348668E+02  0.00000000000E+00 0. -1.
        -14    1    6    6    0    0  0.34050832133E+02  0.72756908431E+02  0.16868904800E+03  0.18683956168E+03  0.00000000000E+00 0.  1.
</event>
<event>
12    1  0.1046899E+000  0.1860576E+03  0.7818608E-02  0.1162359E+00
         21   -1    0    0  503  502  0.00000000000E+00  0.00000000000E+00  0.77916572714E+03  0.77916572714E+03  0.00000000000E+00 0.  1.
         21   -1    0    0  501  503 -0.00000000000E+00 -0.00000000000E+00 -0.44770446647E+02  0.44770446647E+02  0.00000000000E+00 0.  1.
          6    2    1    2  501    0  0.30255370816E+02  0.60661777205E+02  0.41777016123E+03  0.45732847463E+03  0.17326911847E+03 0.  0.
         24    2    3    3    0    0  0.27285575640E+02  0.12974878389E+02  0.39434528598E+03  0.40390867696E+03  0.81982709425E+02 0.  0.
         -6    2    1    2    0  502 -0.30255370816E+02 -0.60661777205E+02  0.31662511926E+03  0.36660769916E+03  0.17191422354E+03 0.  0.
        -24    2    5    5    0    0 -0.30305366343E+02 -0.10449052767E+03  0.17741249514E+03  0.22058302117E+03  0.73109439850E+02 0.  0.
          5    1    3    3  501    0  0.29697951765E+01  0.47686898816E+02  0.23424875249E+02  0.53419797665E+02  0.47000000000E+01 0. -1.
        -13    1    4    4    0    0  0.14780275155E+02 -0.29151715387E+02  0.78669853821E+02  0.85189347596E+02  0.00000000000E+00 0.  1.
         14    1    4    4    0    0  0.12505300484E+02  0.42126593777E+02  0.31567543216E+03  0.31871932937E+03  0.00000000000E+00 0. -1.
         -5    1    5    5    0  502  0.49995526334E-01  0.43828750462E+02  0.13921262412E+03  0.14602467798E+03  0.47000000000E+01 0.  1.
         11    1    6    6    0    0  0.20954484260E+02 -0.52492608006E+02  0.60939378485E+02  0.83115414672E+02  0.00000000000E+00 0. -1.
        -12    1    6    6    0    0 -0.51259850603E+02 -0.51997919661E+02  0.11647311666E+03  0.13746760650E+03  0.00000000000E+00 0.  1.
</event>
<event>
12    1  0.1046899E+000  0.2892705E+03  0.7818608E-02  0.1091371E+00
         21   -1    0    0  501  502  0.00000000000E+00  0.00000000000E+00  0.14751553752E+03  0.14751553752E+03  0.00000000000E+00 0. -1.
         21   -1    0    0  502  503 -0.00000000000E+00 -0.00000000000E+00 -0.55845911306E+03  0.55845911306E+03  0.00000000000E+00 0. -1.
         -6    2    1    2    0  503  0.22087109806E+03 -0.72793501132E+02 -0.19144625782E+03  0.34285418576E+03  0.16375099174E+03 0.  0.
        -24    2    3    3    0    0  0.10690401813E+03 -0.60401860890E+02 -0.38572985765E+02  0.15171451075E+03  0.80327851018E+02 0.  0.
          6    2    1    2  501    0 -0.22087109806E+03  0.72793501132E+02 -0.21949731772E+03  0.36312046482E+03  0.17203041510E+03 0.  0.
         24    2    5    5    0    0 -0.26644999680E+02  0.34251121101E+02 -0.50770527214E+02  0.10292801261E+03  0.78316243797E+02 0.  0.
          5    1    5    5  501    0 -0.19422609838E+03  0.38542380031E+02 -0.16872679051E+03  0.26019245221E+03  0.47000000000E+01 0. -1.
        -13    1    6    6    0    0 -0.39050083747E+02  0.31320908552E+02  0.53592242994E+00  0.50061917323E+02  0.00000000000E+00 0.  1.
         14    1    6    6    0    0  0.12405084067E+02  0.29302125491E+01 -0.51306449644E+02  0.52866095291E+02  0.00000000000E+00 0. -1.
         -5    1    3    3    0  503  0.11396707993E+03 -0.12391640242E+02 -0.15287327205E+03  0.19113967501E+03  0.47000000000E+01 0.  1.
         13    1    4    4    0    0 -0.10166394280E+02  0.20653902858E+00  0.68714861427E+01  0.12272552825E+02  0.00000000000E+00 0. -1.
        -14    1    4    4    0    0  0.11707041241E+03 -0.60608399918E+02 -0.45444471908E+02  0.13944195792E+03  0.00000000000E+00 0.  1.
</event>
<event>
12    1  0.1046899E+000  0.2842629E+03  0.7818608E-02  0.1093406E+00
         21   -1    0    0  501  502  0.00000000000E+00  0.00000000000E+00  0.13641378764E+03  0.13641378764E+03  0.00000000000E+00 0.  1.
         21   -1    0    0  502  503 -0.00000000000E+00 -0.00000000000E+00 -0.60267399796E+03  0.60267399796E+03  0.00000000000E+00 0.  1.
         -6    2    1    2    0  503  0.21995225657E+03  0.53408667986E+02 -0.28237761713E+03  0.40067756159E+03  0.17197066239E+03 0.  0.
        -24    2    3    3    0    0  0.12851286174E+03  0.90850993682E+02 -0.13114508223E+03  0.21996657606E+03  0.80104951810E+02 0.  0.
          6    2    1    2  501    0 -0.21995225657E+03 -0.53408667986E+02 -0.18388259319E+03  0.33841022401E+03  0.17168922694E+03 0.  0.
         24    2    5    5    0    0 -0.23717153836E+03 -0.43823579288E+02 -0.18982031574E+03  0.31729804411E+03  0.80470192116E+02 0.  0.
          5    1    5    5  501    0  0.17219281791E+02 -0.95850886982E+01  0.59377225519E+01  0.21112179894E+02  0.47000000000E+01 0. -1.
        -13    1    6    6    0    0 -0.15042820986E+02 -0.50138533966E+01 -0.48865981063E+02  0.51374208454E+02  0.00000000000E+00 0.  1.
         14    1    6    6    0    0 -0.22212871737E+03 -0.38809725892E+02 -0.14095433468E+03  0.26592383566E+03  0.00000000000E+00 0. -1.
         -5    1    3    3    0  503  0.91439394828E+02 -0.37442325696E+02 -0.15123253490E+03  0.18071098553E+03  0.47000000000E+01 0.  1.
         13    1    4    4    0    0  0.13662244470E+03  0.72881553398E+02 -0.10445148595E+03  0.18678202842E+03  0.00000000000E+00 0. -1.
        -14    1    4    4    0    0 -0.81095829620E+01  0.17969440283E+02 -0.26693596280E+02  0.33184547643E+02  0.00000000000E+00 0.  1.
</event>
<event>
12    1  0.1046899E+000  0.1973602E+03  0.7818608E-02  0.1152209E+00
         21   -1    0    0  501  502  0.00000000000E+00  0.00000000000E+00  0.12872319797E+04  0.12872319797E+04  0.00000000000E+00 0.  1.
         21   -1    0    0  502  503 -0.00000000000E+00 -0.00000000000E+00 -0.46732489580E+02  0.46732489580E+02  0.00000000000E+00 0.  1.
         -6    2    1    2    0  503  0.44252420152E+02  0.83464601237E+02  0.10192083063E+04  0.10381409373E+04  0.17328132517E+03 0.  0.
        -24    2    3    3    0    0 -0.17397938224E+02  0.91704273708E+02  0.82712411163E+03  0.83618280613E+03  0.79718424223E+02 0.  0.
          6    2    1    2  501    0 -0.44252420152E+02 -0.83464601237E+02  0.22129118381E+03  0.29582353200E+03  0.17209636168E+03 0.  0.
         24    2    5    5    0    0 -0.61632516560E+02 -0.39602070877E+02  0.51655468026E+02  0.11968621230E+03  0.79307067298E+02 0.  0.
          5    1    5    5  501    0  0.17380096408E+02 -0.43862530360E+02  0.16963571579E+03  0.17613731970E+03  0.47000000000E+01 0. -1.
        -13    1    6    6    0    0 -0.30049680102E+02 -0.49540186061E+02 -0.45928427005E+00  0.57943284781E+02  0.00000000000E+00 0.  1.
         14    1    6    6    0    0 -0.31582836457E+02  0.99381151842E+01  0.52114752296E+02  0.61742927522E+02  0.00000000000E+00 0. -1.
         -5    1    3    3    0  503  0.61650358376E+02 -0.82396724707E+01  0.19208419467E+03  0.20195813114E+03  0.47000000000E+01 0.  1.
         13    1    4    4    0    0 -0.67229076426E+01  0.45464886421E+02  0.13851861562E+03  0.14594403125E+03  0.00000000000E+00 0. -1.
        -14    1    4    4    0    0 -0.10675030582E+02  0.46239387286E+02  0.68860549600E+03  0.69023877488E+03  0.00000000000E+00 0.  1.
</event>
<event>
12    1  0.1046899E+000  0.2347683E+03  0.7818608E-02  0.1123362E+00
         21   -1    0    0  501  502  0.00000000000E+00  0.00000000000E+00  0.25643310366E+03  0.25643310366E+03  0.00000000000E+00 0.  1.
         21   -1    0    0  502  503 -0.00000000000E+00 -0.00000000000E+00 -0.30530982526E+03  0.30530982526E+03  0.00000000000E+00 0.  1.
         -6    2    1    2    0  503  0.83849111183E+01  0.16033888993E+03  0.12853877740E+03  0.26747703570E+03  0.17100549982E+03 0.  0.
        -24    2    3    3    0    0  0.60116242988E+00  0.12892971664E+02  0.74284375136E+02  0.11010322681E+03  0.80236912020E+02 0.  0.
          6    2    1    2  501    0 -0.83849111183E+01 -0.16033888993E+03 -0.17741549900E+03  0.29426589323E+03  0.17128131909E+03 0.  0.
         24    2    5    5    0    0 -0.31658265643E+02 -0.19404274970E+02 -0.48149951159E+02  0.10155915597E+03  0.81345391349E+02 0.  0.
          5    1    5    5  501    0  0.23273354524E+02 -0.14093461496E+03 -0.12926554784E+03  0.19270673726E+03  0.47000000000E+01 0. -1.
        -11    1    6    6    0    0 -0.39852832705E+02 -0.44013058871E+02 -0.18554893283E+02  0.62206765633E+02  0.00000000000E+00 0.  1.
         12    1    6    6    0    0  0.81945670620E+01  0.24608783901E+02 -0.29595057876E+02  0.39352390335E+02  0.00000000000E+00 0. -1.
         -5    1    3    3    0  503  0.77837486885E+01  0.14744591827E+03  0.54254402264E+02  0.15737380888E+03  0.47000000000E+01 0.  1.
         13    1    4    4    0    0 -0.75509366100E+01  0.25781217013E+02  0.86492604035E+02  0.90568528458E+02  0.00000000000E+00 0. -1.
        -14    1    4    4    0    0  0.81520990399E+01 -0.12888245349E+02 -0.12208228899E+02  0.19534698354E+02  0.00000000000E+00 0.  1.
</event>
<event>
12    1  0.1046899E+000  0.1952994E+03  0.7818608E-02  0.1153968E+00
         21   -1    0    0  503  502  0.00000000000E+00  0.00000000000E+00  0.18210381183E+04  0.18210381183E+04  0.00000000000E+00 0.  1.
         21   -1    0    0  501  503 -0.00000000000E+00 -0.00000000000E+00 -0.21488891428E+02  0.21488891428E+02  0.00000000000E+00 0.  1.
          6    2    1    2  501    0 -0.22140592578E+02  0.90422627054E+02  0.10570059232E+04  0.10747298909E+04  0.17063516464E+03 0.  0.
         24    2    3    3    0    0 -0.64291253880E+02  0.93970978347E+02  0.61812063009E+03  0.63378583601E+03  0.81531972156E+02 0.  0.
         -6    2    1    2    0  502  0.22140592578E+02 -0.90422627054E+02  0.74254330371E+03  0.76779711886E+03  0.17168401357E+03 0.  0.
        -24    2    5    5    0    0  0.74002579133E+02 -0.34544130170E+02  0.52439138761E+03  0.53665988568E+03  0.79673250519E+02 0.  0.
          5    1    3    3  501    0  0.42150661302E+02 -0.35483512934E+01  0.43888529309E+03  0.44094405489E+03  0.47000000000E+01 0. -1.
        -11    1    4    4    0    0  0.16404335163E+01  0.44755767620E+02  0.10561618213E+03  0.11471943029E+03  0.00000000000E+00 0.  1.
         12    1    4    4    0    0 -0.65931687396E+02  0.49215210727E+02  0.51250444796E+03  0.51906640572E+03  0.00000000000E+00 0. -1.
         -5    1    5    5    0  502 -0.51861986555E+02 -0.55878496884E+02  0.21815191610E+03  0.23113723318E+03  0.47000000000E+01 0.  1.
         11    1    6    6    0    0  0.29974030517E+02 -0.20741452668E+02  0.61619494435E+02  0.71593382785E+02  0.00000000000E+00 0. -1.
        -12    1    6    6    0    0  0.44028548616E+02 -0.13802677502E+02  0.46277189318E+03  0.46506650289E+03  0.00000000000E+00 0.  1.
</event>
<event>
12    1  0.1046899E+000  0.2298875E+03  0.7818608E-02  0.1127121E+00
         21   -1    0    0  501  502  0.00000000000E+00  0.00000000000E+00  0.28599368146E+03  0.28599368146E+03  0.00000000000E+00 0.  1.
         21   -1    0    0  502  503 -0.00000000000E+00 -0.00000000000E+00 -0.24035076625E+03  0.24035076625E+03  0.00000000000E+00 0.  1.
         -6    2    1    2    0  503  0.14689522827E+03  0.15502514104E+02 -0.10568244221E+03  0.25301586983E+03  0.17615253550E+03 0.  0.
        -24    2    3    3    0    0  0.79713018883E+02  0.32471671328E+02  0.11777661981E+02  0.11655940193E+03  0.77709755110E+02 0.  0.
          6    2    1    2  501    0 -0.14689522827E+03 -0.15502514104E+02  0.15132535742E+03  0.27332857788E+03  0.17317797682E+03 0.  0.
         24    2    5    5    0    0 -0.12975765376E+02 -0.33146419550E+02  0.32595506988E+02  0.93426945525E+02  0.79994196404E+02 0.  0.
          5    1    5    5  501    0 -0.13391946289E+03  0.17643905446E+02  0.11872985043E+03  0.17990163236E+03  0.47000000000E+01 0. -1.
        -13    1    6    6    0    0  0.14467403347E+02  0.19800826690E+02 -0.17882605222E+01  0.24588134799E+02  0.00000000000E+00 0.  1.
         14    1    6    6    0    0 -0.27443168723E+02 -0.52947246240E+02  0.34383767510E+02  0.68838810726E+02  0.00000000000E+00 0. -1.
         -5    1    3    3    0  503  0.67182209385E+02 -0.16969157225E+02 -0.11746010419E+03  0.13645646790E+03  0.47000000000E+01 0.  1.
         13    1    4    4    0    0  0.72767694894E+02 -0.80389193493E+01  0.16911774008E+02  0.75138337382E+02  0.00000000000E+00 0. -1.
        -14    1    4    4    0    0  0.69453239899E+01  0.40510590678E+02 -0.51341120274E+01  0.41421064553E+02  0.00000000000E+00 0.  1.
</event>
<event>
12    1  0.1046899E+000  0.1721959E+03  0.7818608E-02  0.1175655E+00
         21   -1    0    0  501  502  0.00000000000E+00  0.00000000000E+00  0.38423030145E+03  0.38423030145E+03  0.00000000000E+00 0.  1.
         21   -1    0    0  502  503 -0.00000000000E+00 -0.00000000000E+00 -0.95995031360E+02  0.95995031360E+02  0.00000000000E+00 0.  1.
         -6    2    1    2    0  503  0.44760872465E+00  0.77715073174E+01  0.25072610095E+03  0.30399149449E+03  0.17171678527E+03 0.  0.
        -24    2    3    3    0    0 -0.14065281966E+02 -0.62323227482E+02  0.14027424450E+03  0.17228880494E+03  0.76971110128E+02 0.  0.
          6    2    1    2  501    0 -0.44760872465E+00 -0.77715073174E+01  0.37509169135E+02  0.17623383832E+03  0.17201985734E+03 0.  0.
         24    2    5    5    0    0  0.37951979612E+02  0.46784253729E+02  0.34133699213E+01  0.10116405098E+03  0.81199722672E+02 0.  0.
          5    1    5    5  501    0 -0.38399588337E+02 -0.54555761046E+02  0.34095799214E+02  0.75069787343E+02  0.47000000000E+01 0. -1.
        -13    1    6    6    0    0 -0.13513328975E+02 -0.13359976368E+02 -0.90212250673E+01  0.21035244954E+02  0.00000000000E+00 0.  1.
         14    1    6    6    0    0  0.51465308588E+02  0.60144230097E+02  0.12434594989E+02  0.80128806022E+02  0.00000000000E+00 0. -1.
         -5    1    3    3    0  503  0.14512890691E+02  0.70094734799E+02  0.11045185645E+03  0.13170268956E+03  0.47000000000E+01 0.  1.
         11    1    4    4    0    0 -0.73646222873E+01  0.31325887837E+01  0.87705340753E+02  0.88069731296E+02  0.00000000000E+00 0. -1.
        -12    1    4    4    0    0 -0.67006596787E+01 -0.65455816266E+02  0.52568903751E+02  0.84219073640E+02  0.00000000000E+00 0.  1.
</event>
<event>
12    1  0.1046899E+000  0.3761404E+03  0.7818608E-02  0.1052963E+00
         21   -1    0    0  501  502  0.00000000000E+00  0.00000000000E+00  0.86728364688E+02  0.86728364688E+02  0.00000000000E+00 0.  1.
         21   -1    0    0  502  503 -0.00000000000E+00 -0.00000000000E+00 -0.16043377398E+04  0.16043377398E+04  0.00000000000E+00 0.  1.
         -6    2    1    2    0  503  0.20057182021E+03  0.25832649474E+03 -0.77357569709E+03  0.86017496675E+03  0.18579553640E+03 0.  0.
        -24    2    3    3    0    0  0.18022260751E+02  0.11841250264E+03 -0.33514429970E+03  0.36505432785E+03  0.81219689719E+02 0.  0.
          6    2    1    2  501    0 -0.20057182021E+03 -0.25832649474E+03 -0.74403367805E+03  0.83089113777E+03  0.17272039777E+03 0.  0.
         24    2    5    5    0    0 -0.13330316422E+03 -0.24269639519E+03 -0.50432976880E+03  0.58139278868E+03  0.83652765615E+02 0.  0.
          5    1    5    5  501    0 -0.67268655985E+02 -0.15630099543E+02 -0.23970390925E+03  0.24949834909E+03  0.47000000000E+01 0. -1.
        -13    1    6    6    0    0 -0.29151208584E+01 -0.62192225077E+01  0.23371715680E+01  0.72552759532E+01  0.00000000000E+00 0.  1.
         14    1    6    6    0    0 -0.13038804337E+03 -0.23647717269E+03 -0.50666694037E+03  0.57413751272E+03  0.00000000000E+00 0. -1.
         -5    1    3    3    0  503  0.18254955946E+03  0.13991399210E+03 -0.43843139740E+03  0.49512063890E+03  0.47000000000E+01 0.  1.
         13    1    4    4    0    0  0.35302032392E+02  0.56353371346E+02 -0.91970297281E+02  0.11349216508E+03  0.00000000000E+00 0. -1.
        -14    1    4    4    0    0 -0.17279771641E+02  0.62059131291E+02 -0.24317400242E+03  0.25156216277E+03  0.00000000000E+00 0.  1.
</event>
<event>
12    1  0.1046899E+000  0.3574395E+03  0.7818608E-02  0.1059619E+00
         21   -1    0    0  503  502  0.00000000000E+00  0.00000000000E+00  0.62995355545E+03  0.62995355545E+03  0.00000000000E+00 0. -1.
         21   -1    0    0  501  503 -0.00000000000E+00 -0.00000000000E+00 -0.25059666560E+03  0.25059666560E+03  0.00000000000E+00 0.  1.
          6    2    1    2  501    0 -0.66722468487E+02  0.30517122125E+03  0.38208454728E+03  0.52310026637E+03  0.17338951907E+03 0.  0.
         24    2    3    3    0    0 -0.14534030486E+02  0.62185885316E+02  0.15967822619E+03  0.18955541451E+03  0.79723251788E+02 0.  0.
         -6    2    1    2    0  502  0.66722468487E+02 -0.30517122125E+03 -0.27276574370E+01  0.35744995469E+03  0.17372871931E+03 0.  0.
        -24    2    5    5    0    0  0.10067335013E+03 -0.28450306628E+03 -0.21581274562E+02  0.31320762346E+03  0.80970030449E+02 0.  0.
          5    1    3    3  501    0 -0.52188438001E+02  0.24298533593E+03  0.22240632109E+03  0.33354485186E+03  0.47000000000E+01 0. -1.
        -13    1    4    4    0    0  0.27374759938E+02  0.41078131211E+02  0.50007048495E+02  0.70267312775E+02  0.00000000000E+00 0.  1.
         14    1    4    4    0    0 -0.41908790424E+02  0.21107754105E+02  0.10967117770E+03  0.11928810174E+03  0.00000000000E+00 0. -1.
         -5    1    5    5    0  502 -0.33950881644E+02 -0.20668154968E+02  0.18853617125E+02  0.44242331233E+02  0.47000000000E+01 0.  1.
         11    1    6    6    0    0  0.35997690735E+02 -0.23808742289E+02 -0.10313933301E+02  0.44374172306E+02  0.00000000000E+00 0. -1.
        -12    1    6    6    0    0  0.64675659397E+02 -0.26069432399E+03 -0.11267341261E+02  0.26883345115E+03  0.00000000000E+00 0.  1.
</event>
<event>
12    1  0.1046899E+000  0.1812767E+03  0.7818608E-02  0.1167425E+00
         21   -1    0    0  501  502  0.00000000000E+00  0.00000000000E+00  0.47017565103E+02  0.47017565103E+02  0.00000000000E+00 0.  1.
         21   -1    0    0  502  503 -0.00000000000E+00 -0.00000000000E+00 -0.82899725820E+03  0.82899725820E+03  0.00000000000E+00 0.  1.
         -6    2    1    2    0  503 -0.44713863320E+02  0.30679501804E+02 -0.20554751672E+03  0.27175055260E+03  0.16928679749E+03 0.  0.
        -24    2    3    3    0    0 -0.90441159421E+02  0.45575273534E+02 -0.14353583759E+03  0.19313498179E+03  0.80261296058E+02 0.  0.
          6    2    1    2  501    0  0.44713863320E+02 -0.30679501804E+02 -0.57643217638E+03  0.60426427071E+03  0.17297599107E+03 0.  0.
         24    2    5    5    0    0 -0.28884756680E+02 -0.58431067021E+02 -0.29345242076E+03  0.31051856720E+03  0.77839184003E+02 0.  0.
          5    1    5    5  501    0  0.73598620000E+02  0.27751565218E+02 -0.28297975562E+03  0.29374570351E+03  0.47000000000E+01 0. -1.
        -13    1    6    6    0    0 -0.24985071494E+02 -0.59614271366E+02 -0.29769745455E+03  0.30463402567E+03  0.00000000000E+00 0.  1.
         14    1    6    6    0    0 -0.38996851863E+01  0.11832043444E+01  0.42450337975E+01  0.58845415297E+01  0.00000000000E+00 0. -1.
         -5    1    3    3    0  503  0.45727296101E+02 -0.14895771730E+02 -0.62011679137E+02  0.78615570809E+02  0.47000000000E+01 0.  1.
         11    1    4    4    0    0 -0.92008235398E+02  0.99217207064E+01 -0.92368572146E+02  0.13075132521E+03  0.00000000000E+00 0. -1.
        -12    1    4    4    0    0  0.15670759774E+01  0.35653552827E+02 -0.51167265439E+02  0.62383656584E+02  0.00000000000E+00 0.  1.
</event>
<event>
12    1  0.1046899E+000  0.2232464E+03  0.7818608E-02  0.1131569E+00
         21   -1    0    0  503  502  0.00000000000E+00  0.00000000000E+00  0.85702217995E+02  0.85702217995E+02  0.00000000000E+00 0.  1.
         21   -1    0    0  501  503 -0.00000000000E+00 -0.00000000000E+00 -0.16080569607E+04  0.16080569607E+04  0.00000000000E+00 0.  1.
          6    2    1    2  501    0  0.14129108133E+03  0.14430163080E+02 -0.83873297022E+02  0.23805734795E+03  0.17165422130E+03 0.  0.
         24    2    3    3    0    0  0.50509277321E+02  0.71555764526E+01  0.26710257233E+02  0.94721839364E+02  0.75209039625E+02 0.  0.
         -6    2    1    2    0  502 -0.14129108133E+03 -0.14430163080E+02 -0.14384814456E+04  0.14557018307E+04  0.17224271010E+03 0.  0.
        -24    2    5    5    0    0 -0.17117079533E+03 -0.24647845446E+02 -0.12067291904E+04  0.12217608207E+04  0.81223190176E+02 0.  0.
          5    1    3    3  501    0  0.90781804012E+02  0.72745866273E+01 -0.11058355425E+03  0.14333550859E+03  0.47000000000E+01 0. -1.
        -13    1    4    4    0    0  0.58105158145E+02 -0.15949707069E+02  0.23528382203E+01  0.60300401378E+02  0.00000000000E+00 0.  1.
         14    1    4    4    0    0 -0.75958808243E+01  0.23105283522E+02  0.24357419012E+02  0.34421437986E+02  0.00000000000E+00 0. -1.
         -5    1    5    5    0  502  0.29879714002E+02  0.10217682367E+02 -0.23175225523E+03  0.23394100997E+03  0.47000000000E+01 0.  1.
         11    1    6    6    0    0 -0.14132058830E+03 -0.35739507879E+02 -0.11185384238E+04  0.11279969090E+04  0.00000000000E+00 0. -1.
        -12    1    6    6    0    0 -0.29850207030E+02  0.11091662432E+02 -0.88190766588E+02  0.93763911750E+02  0.00000000000E+00 0.  1.
</event>
<event>
12    1  0.1046899E+000  0.2685167E+03  0.7818608E-02  0.1102240E+00
         21   -1    0    0  503  502  0.00000000000E+00  0.00000000000E+00  0.69248685697E+03  0.69248685697E+03  0.00000000000E+00 0. -1.
         21   -1    0    0  501  503 -0.00000000000E+00 -0.00000000000E+00 -0.11884410712E+03  0.11884410712E+03  0.00000000000E+00 0. -1.
          6    2    1    2  501    0  0.69850252414E+02  0.19435699994E+03  0.14297578604E+03  0.30420926775E+03  0.17160274475E+03 0.  0.
         24    2    3    3    0    0  0.71413278098E+02  0.18553947101E+03  0.63236019755E+02  0.22383071220E+03  0.81096497688E+02 0.  0.
         -6    2    1    2    0  502 -0.69850252414E+02 -0.19435699994E+03  0.43066696381E+03  0.50712169634E+03  0.17042499815E+03 0.  0.
        -24    2    5    5    0    0 -0.18428238120E+02 -0.98268832409E+02  0.98545684282E+02  0.15754510415E+03  0.71504157692E+02 0.  0.
          5    1    3    3  501    0 -0.15630256841E+01  0.88175289255E+01  0.79739766287E+02  0.80378555555E+02  0.47000000000E+01 0. -1.
        -13    1    4    4    0    0  0.40706309421E+02  0.20402586643E+02  0.23443494561E+02  0.51213929801E+02  0.00000000000E+00 0.  1.
         14    1    4    4    0    0  0.30706968677E+02  0.16513688437E+03  0.39792525194E+02  0.17261678240E+03  0.00000000000E+00 0. -1.
         -5    1    5    5    0  502 -0.51422014294E+02 -0.96088167527E+02  0.33212127952E+03  0.34957659219E+03  0.47000000000E+01 0.  1.
         13    1    6    6    0    0 -0.26928489889E+02 -0.17258936277E+02  0.32017454244E+01  0.32144449332E+02  0.00000000000E+00 0. -1.
        -14    1    6    6    0    0  0.85002517688E+01 -0.81009896131E+02  0.95343938857E+02  0.12540065482E+03  0.00000000000E+00 0.  1.
</event>
<event>
12    1  0.1046899E+000  0.2177772E+03  0.7818608E-02  0.1135811E+00
         21   -1    0    0  501  502  0.00000000000E+00  0.00000000000E+00  0.31805803618E+03  0.31805803618E+03  0.00000000000E+00 0.  1.
         21   -1    0    0  502  503 -0.00000000000E+00 -0.00000000000E+00 -0.15008556028E+03  0.15008556028E+03  0.00000000000E+00 0.  1.
         -6    2    1    2    0  503  0.12447152481E+03 -0.47699390897E+02  0.11064451362E+03  0.24427267280E+03  0.17221654364E+03 0.  0.
        -24    2    3    3    0    0  0.14529527725E+03 -0.73177653143E+02  0.76423721655E+02  0.19656603683E+03  0.79573457198E+02 0.  0.
          6    2    1    2  501    0 -0.12447152481E+03  0.47699390897E+02  0.57327962281E+02  0.22387092367E+03  0.17047962584E+03 0.  0.
         24    2    5    5    0    0 -0.77917795060E+02 -0.34152463541E+02  0.57042408127E+02  0.12958864872E+03  0.79383927840E+02 0.  0.
          5    1    5    5  501    0 -0.46553729745E+02  0.81851854438E+02  0.28555415414E+00  0.94282274947E+02  0.47000000000E+01 0. -1.
        -13    1    6    6    0    0 -0.48805347797E+02 -0.59915818868E+02  0.34281974392E+02  0.84540647575E+02  0.00000000000E+00 0.  1.
         14    1    6    6    0    0 -0.29112447263E+02  0.25763355327E+02  0.22760433735E+02  0.45048001145E+02  0.00000000000E+00 0. -1.
         -5    1    3    3    0  503 -0.20823752447E+02  0.25478262246E+02  0.34220791967E+02  0.47706635973E+02  0.47000000000E+01 0.  1.
         13    1    4    4    0    0  0.26117667433E+02 -0.36347122313E+02  0.53474649663E+02  0.69733664820E+02  0.00000000000E+00 0. -1.
        -14    1    4    4    0    0  0.11917760982E+03 -0.36830530830E+02  0.22949071992E+02  0.12683237201E+03  0.00000000000E+00 0.  1.
</event>
<event>
12    1  0.1046899E+000  0.3772495E+03  0.7818608E-02  0.1051983E+00
         21   -1    0    0  501  502  0.00000000000E+00  0.00000000000E+00  0.22575163912E+03  0.22575163912E+03  0.00000000000E+00 0.  1.
         21   -1    0    0  502  503 -0.00000000000E+00 -0.00000000000E+00 -0.68106413750E+03  0.68106413750E+03  0.00000000000E+00 0.  1.
         -6    2    1    2    0  503 -0.25542523381E+03 -0.21810969321E+03 -0.35183041142E+03  0.51563070047E+03  0.17110374784E+03 0.  0.
        -24    2    3    3    0    0 -0.47262194343E+02 -0.10157700249E+03 -0.14213687435E+03  0.19797493002E+03  0.80246990091E+02 0.  0.
          6    2    1    2  501    0  0.25542523381E+03  0.21810969321E+03 -0.10348208697E+03  0.39118507615E+03  0.17176534324E+03 0.  0.
         24    2    5    5    0    0  0.15379993576E+03  0.68154699156E+02 -0.98830250258E+02  0.20991750864E+03  0.77449717957E+02 0.  0.
          5    1    5    5  501    0  0.10162529805E+03  0.14995499405E+03 -0.46518367081E+01  0.18126756751E+03  0.47000000000E+01 0. -1.
        -13    1    6    6    0    0  0.13503618166E+02  0.12830902702E+02  0.12528529060E+02  0.22448692794E+02  0.00000000000E+00 0.  1.
         14    1    6    6    0    0  0.14029631759E+03  0.55323796453E+02 -0.11135877932E+03  0.18746881585E+03  0.00000000000E+00 0. -1.
         -5    1    3    3    0  503 -0.20816303947E+03 -0.11653269072E+03 -0.20969353707E+03  0.31765577044E+03  0.47000000000E+01 0.  1.
         13    1    4    4    0    0 -0.54666052602E+02 -0.98482020636E+02 -0.87176582567E+02  0.14243188633E+03  0.00000000000E+00 0. -1.
        -14    1    4    4    0    0  0.74038582592E+01 -0.30949818555E+01 -0.54960291784E+02  0.55543043694E+02  0.00000000000E+00 0.  1.
</event>
<event>
12    1  0.1046899E+000  0.2281258E+03  0.7818608E-02  0.1128111E+00
         21   -1    0    0  501  502  0.00000000000E+00  0.00000000000E+00  0.31062453277E+03  0.31062453277E+03  0.00000000000E+00 0. -1.
         21   -1    0    0  502  503 -0.00000000000E+00 -0.00000000000E+00 -0.23883021866E+03  0.23883021866E+03  0.00000000000E+00 0. -1.
         -6    2    1    2    0  503 -0.10090835204E+03 -0.10940435784E+03  0.18658085289E+03  0.29407789554E+03  0.17180682452E+03 0.  0.
        -24    2    3    3    0    0 -0.19610900104E+02  0.10309395653E+02  0.72217697930E+02  0.10957402110E+03  0.79373793944E+02 0.  0.
          6    2    1    2  501    0  0.10090835204E+03  0.10940435784E+03 -0.11478653879E+03  0.25537685590E+03  0.17288603187E+03 0.  0.
         24    2    5    5    0    0  0.65160721072E+02  0.12292746190E+03 -0.23567147146E+02  0.15636253938E+03  0.67355421747E+02 0.  0.
          5    1    5    5  501    0  0.35747630969E+02 -0.13523104056E+02 -0.91219391640E+02  0.99014316512E+02  0.47000000000E+01 0. -1.
        -13    1    6    6    0    0 -0.10283987127E+02  0.25525864026E+02  0.89539201072E+01  0.28939640820E+02  0.00000000000E+00 0.  1.
         14    1    6    6    0    0  0.75444708198E+02  0.97401597872E+02 -0.32521067254E+02  0.12742289856E+03  0.00000000000E+00 0. -1.
         -5    1    3    3    0  503 -0.81297451937E+02 -0.11971375349E+03  0.11436315496E+03  0.18450387443E+03  0.47000000000E+01 0.  1.
         11    1    4    4    0    0 -0.22645096820E+02 -0.61149964942E+01  0.85231545084E+02  0.88400282067E+02  0.00000000000E+00 0. -1.
        -12    1    4    4    0    0  0.30341967152E+01  0.16424392147E+02 -0.13013847154E+02  0.21173739038E+02  0.00000000000E+00 0.  1.
</event>
<event>
12    1  0.1046899E+000  0.2353989E+03  0.7818608E-02  0.1123504E+00
         21   -1    0    0  501  502  0.00000000000E+00  0.00000000000E+00  0.11171957900E+03  0.11171957900E+03  0.00000000000E+00 0.  1.
         21   -1    0    0  502  503 -0.00000000000E+00 -0.00000000000E+00 -0.71440348950E+03  0.71440348950E+03  0.00000000000E+00 0.  1.
         -6    2    1    2    0  503 -0.15838289979E+03  0.83879120421E+01 -0.70671351128E+02  0.24577857001E+03  0.17394586972E+03 0.  0.
        -24    2    3    3    0    0 -0.16293624327E+03  0.33958491162E+02 -0.96833977839E+02  0.20861460238E+03  0.80261040167E+02 0.  0.
          6    2    1    2  501    0  0.15838289979E+03 -0.83879120421E+01 -0.53201255937E+03  0.58034449849E+03  0.16913566623E+03 0.  0.
         24    2    5    5    0    0  0.26096809411E+02 -0.26666869375E+02 -0.13679536139E+03  0.16314855703E+03  0.80698918097E+02 0.  0.
          5    1    5    5  501    0  0.13228609037E+03  0.18278957333E+02 -0.39521719798E+03  0.41719594146E+03  0.47000000000E+01 0. -1.
        -13    1    6    6    0    0 -0.17879462608E+02  0.80507005661E+00 -0.11545832996E+01  0.17934781391E+02  0.00000000000E+00 0.  1.
         14    1    6    6    0    0  0.43976272019E+02 -0.27471939432E+02 -0.13564077809E+03  0.14521377564E+03  0.00000000000E+00 0. -1.
         -5    1    3    3    0  503  0.45533434892E+01 -0.25570579120E+02  0.26162626711E+02  0.37163967629E+02  0.47000000000E+01 0.  1.
         11    1    4    4    0    0 -0.14452528922E+02 -0.18035555028E+02 -0.29529386121E+02  0.37498553067E+02  0.00000000000E+00 0. -1.
        -12    1    4    4    0    0 -0.14848371435E+03  0.51994046190E+02 -0.67304591717E+02  0.17111604932E+03  0.00000000000E+00 0.  1.
</event>
<event>
12    1  0.1046899E+000  0.1766558E+03  0.7818608E-02  0.1171280E+00
         21   -1    0    0  503  502  0.00000000000E+00  0.00000000000E+00  0.11296277856E+04  0.11296277856E+04  0.00000000000E+00 0. -1.
         21   -1    0    0  501  503 -0.00000000000E+00 -0.00000000000E+00 -0.41403258743E+02  0.41403258743E+02  0.00000000000E+00 0. -1.
          6    2    1    2  501    0  0.11229594231E+02  0.32896370327E+02  0.88423255861E+03  0.90170643475E+03  0.17320219917E+03 0.  0.
         24    2    3    3    0    0 -0.14290785542E+02  0.77207831521E+02  0.42443033865E+03  0.43904568770E+03  0.80341320162E+02 0.  0.
         -6    2    1    2    0  502 -0.11229594231E+02 -0.32896370327E+02  0.20399196822E+03  0.26932460957E+03  0.17237966020E+03 0.  0.
        -24    2    5    5    0    0 -0.49467057431E+02 -0.69520897490E+01  0.20131111939E+03  0.22280057022E+03  0.81354815331E+02 0.  0.
          5    1    3    3  501    0  0.25520379773E+02 -0.44311461195E+02  0.45980221996E+03  0.46266074705E+03  0.47000000000E+01 0. -1.
        -11    1    4    4    0    0 -0.39246172921E+02  0.57052775392E+02  0.36499978550E+03  0.37151059834E+03  0.00000000000E+00 0.  1.
         12    1    4    4    0    0  0.24955387379E+02  0.20155056129E+02  0.59430553151E+02  0.67535089359E+02  0.00000000000E+00 0. -1.
         -5    1    5    5    0  502  0.38237463200E+02 -0.25944280578E+02  0.26808488315E+01  0.46524039347E+02  0.47000000000E+01 0.  1.
         13    1    6    6    0    0 -0.23936931975E+02  0.37175452465E+02  0.10190880742E+03  0.11108733504E+03  0.00000000000E+00 0. -1.
        -14    1    6    6    0    0 -0.25530125456E+02 -0.44127542214E+02  0.99402311973E+02  0.11171323517E+03  0.00000000000E+00 0.  1.
</event>
<event>
12    1  0.1046899E+000  0.3241621E+03  0.7818608E-02  0.1073752E+00
         21   -1    0    0  501  502  0.00000000000E+00  0.00000000000E+00  0.31889474737E+03  0.31889474737E+03  0.00000000000E+00 0. -1.
         21   -1    0    0  502  503 -0.00000000000E+00 -0.00000000000E+00 -0.44272091446E+03  0.44272091446E+03  0.00000000000E+00 0. -1.
         -6    2    1    2    0  503 -0.27443312049E+03 -0.32536653107E+01  0.13067352146E+03  0.34948563324E+03  0.17245438430E+03 0.  0.
        -24    2    3    3    0    0 -0.89200362538E+02 -0.53538178280E+02  0.64806639925E+02  0.14650720348E+03  0.80258450533E+02 0.  0.
          6    2    1    2  501    0  0.27443312049E+03  0.32536653107E+01 -0.25449968855E+03  0.41213002859E+03  0.17250201458E+03 0.  0.
         24    2    5    5    0    0  0.19652631681E+03  0.24576860824E+01 -0.25743735211E+03  0.33402226003E+03  0.81659332067E+02 0.  0.
          5    1    5    5  501    0  0.77906803683E+02  0.79597922830E+00  0.29376635564E+01  0.78107768565E+02  0.47000000000E+01 0. -1.
        -11    1    6    6    0    0  0.45559142257E+02  0.20314435676E+02 -0.23771120837E+02  0.55257378927E+02  0.00000000000E+00 0.  1.
         12    1    6    6    0    0  0.15096717455E+03 -0.17856749593E+02 -0.23366623127E+03  0.27876488110E+03  0.00000000000E+00 0. -1.
         -5    1    3    3    0  503 -0.18523275795E+03  0.50284512969E+02  0.65866881539E+02  0.20297842976E+03  0.47000000000E+01 0.  1.
         11    1    4    4    0    0 -0.65555327314E+02 -0.57716157693E+01  0.65989395557E+02  0.93195562200E+02  0.00000000000E+00 0. -1.
        -12    1    4    4    0    0 -0.23645035224E+02 -0.47766562510E+02 -0.11827556313E+01  0.53311641277E+02  0.00000000000E+00 0.  1.
</event>
<event>
12    1  0.1046899E+000  0.3346935E+03  0.7818608E-02  0.1069469E+00
         21   -1    0    0  503  502  0.00000000000E+00  0.00000000000E+00  0.86172578288E+02  0.86172578288E+02  0.00000000000E+00 0.  1.
         21   -1    0    0  501  503 -0.00000000000E+00 -0.00000000000E+00 -0.13435940958E+04  0.13435940958E+04  0.00000000000E+00 0.  1.
          6    2    1    2  501    0 -0.28625207394E+03  0.27862380367E+01 -0.47760329151E+03  0.58115827779E+03  0.16640921496E+03 0.  0.
         24    2    3    3    0    0 -0.55780829268E+02  0.20565196638E+02 -0.13675686130E+03  0.16929487207E+03  0.80149150760E+02 0.  0.
         -6    2    1    2    0  502  0.28625207394E+03 -0.27862380367E+01 -0.77981822599E+03  0.84860839628E+03  0.17341202870E+03 0.  0.
        -24    2    5    5    0    0  0.65689264356E+02  0.32197449198E+02 -0.19954501122E+03  0.22682796468E+03  0.79252500731E+02 0.  0.
          5    1    3    3  501    0 -0.23047124467E+03 -0.17778958602E+02 -0.34084643020E+03  0.41186340572E+03  0.47000000000E+01 0. -1.
        -13    1    4    4    0    0 -0.59403710578E+02  0.20314312599E+02 -0.14623657712E+03  0.15914335869E+03  0.00000000000E+00 0.  1.
         14    1    4    4    0    0  0.36228813094E+01  0.25088403922E+00  0.94797158194E+01  0.10151513375E+02  0.00000000000E+00 0. -1.
         -5    1    5    5    0  502  0.22056280959E+03 -0.34983687235E+02 -0.58027321476E+03  0.62178043160E+03  0.47000000000E+01 0.  1.
         13    1    6    6    0    0  0.32931776273E+02  0.53001056282E+01 -0.13446852633E+02  0.35964021659E+02  0.00000000000E+00 0. -1.
        -14    1    6    6    0    0  0.32757488084E+02  0.26897343570E+02 -0.18609815859E+03  0.19086394302E+03  0.00000000000E+00 0.  1.
</event>
<event>
12    1  0.1046899E+000  0.2753026E+03  0.7818608E-02  0.1098350E+00
         21   -1    0    0  503  502  0.00000000000E+00  0.00000000000E+00  0.19800300097E+03  0.19800300097E+03  0.00000000000E+00 0.  1.
         21   -1    0    0  501  503 -0.00000000000E+00 -0.00000000000E+00 -0.53741723062E+03  0.53741723062E+03  0.00000000000E+00 0.  1.
          6    2    1    2  501    0 -0.17768005255E+03 -0.11936956096E+03 -0.36727435718E+03  0.45871148958E+03  0.17235569057E+03 0.  0.
         24    2    3    3    0    0 -0.90660160922E+02 -0.41477445463E+02 -0.29474901593E+03  0.32115547074E+03  0.79524906382E+02 0.  0.
         -6    2    1    2    0  502  0.17768005255E+03  0.11936956096E+03  0.27860127528E+02  0.27670874200E+03  0.17312494921E+03 0.  0.
        -24    2    5    5    0    0  0.71929814403E+02  0.13373119889E+03  0.21723671706E+02  0.16970820181E+03  0.72601818801E+02 0.  0.
          5    1    3    3  501    0 -0.87019891626E+02 -0.77892115498E+02 -0.72525341252E+02  0.13755601884E+03  0.47000000000E+01 0. -1.
        -13    1    4    4    0    0 -0.10472696084E+03 -0.28859493457E+02 -0.25036128325E+03  0.27291276782E+03  0.00000000000E+00 0.  1.
         14    1    4    4    0    0  0.14066799916E+02 -0.12617952006E+02 -0.44387732672E+02  0.48242702914E+02  0.00000000000E+00 0. -1.
         -5    1    5    5    0  502  0.10575023814E+03 -0.14361637926E+02  0.61364558217E+01  0.10700054019E+03  0.47000000000E+01 0.  1.
         13    1    6    6    0    0  0.64420678493E+02  0.48180225188E+02  0.23509863123E+02  0.83809734404E+02  0.00000000000E+00 0. -1.
        -14    1    6    6    0    0  0.75091359099E+01  0.85550973699E+02 -0.17861914168E+01  0.85898467406E+02  0.00000000000E+00 0.  1.
</event>
<event>
12    1  0.1046899E+000  0.1927388E+03  0.7818608E-02  0.1156089E+00
         21   -1    0    0  503  502  0.00000000000E+00  0.00000000000E+00  0.41469395752E+03  0.41469395752E+03  0.00000000000E+00 0.  1.
         21   -1    0    0  501  503 -0.00000000000E+00 -0.00000000000E+00 -0.11697783940E+03  0.11697783940E+03  0.00000000000E+00 0.  1.
          6    2    1    2  501    0 -0.30174913137E+02 -0.82400992048E+02  0.27778053792E+03  0.33790476667E+03  0.17122253129E+03 0.  0.
         24    2    3    3    0    0  0.16404303814E+02 -0.13242304080E+02  0.22258776866E+03  0.23780042435E+03  0.80989303397E+02 0.  0.
         -6    2    1    2    0  502  0.30174913137E+02  0.82400992048E+02  0.19935580204E+02  0.19376703024E+03  0.17160357158E+03 0.  0.
        -24    2    5    5    0    0  0.45328731718E+02  0.11808091930E+03  0.29986648647E+02  0.15344570334E+03  0.81538870205E+02 0.  0.
          5    1    3    3  501    0 -0.46579216951E+02 -0.69158687968E+02  0.55192769258E+02  0.10010434232E+03  0.47000000000E+01 0. -1.
        -11    1    4    4    0    0  0.12031192542E+02  0.33419949653E+02  0.75740194457E+02  0.83655362561E+02  0.00000000000E+00 0.  1.
         12    1    4    4    0    0  0.43731112715E+01 -0.46662253734E+02  0.14684757420E+03  0.15414506179E+03  0.00000000000E+00 0. -1.
         -5    1    5    5    0  502 -0.15153818581E+02 -0.35679927252E+02 -0.10051068444E+02  0.40321326902E+02  0.47000000000E+01 0.  1.
         13    1    6    6    0    0  0.55048854523E+02  0.10294125756E+03 -0.19925429977E+01  0.11675294052E+03  0.00000000000E+00 0. -1.
        -14    1    6    6    0    0 -0.97201228048E+01  0.15139661736E+02  0.31979191645E+02  0.36692762816E+02  0.00000000000E+00 0.  1.
</event>
<event>
12    1  0.1046899E+000  0.1719346E+03  0.7818608E-02  0.1176165E+00
         21   -1    0    0  503  502  0.00000000000E+00  0.00000000000E+00  0.99229871543E+02  0.99229871543E+02  0.00000000000E+00 0.  1.
         21   -1    0    0  501  503 -0.00000000000E+00 -0.00000000000E+00 -0.36260811874E+03  0.36260811874E+03  0.00000000000E+00 0.  1.
          6    2    1    2  501    0 -0.11759855315E+02  0.79459943560E+01 -0.32153600631E+02  0.17369507727E+03  0.17010200708E+03 0.  0.
         24    2    3    3    0    0  0.38721157919E+02  0.14683087907E+02  0.31081038066E+02  0.92365927163E+02  0.76488642506E+02 0.  0.
         -6    2    1    2    0  502  0.11759855315E+02 -0.79459943560E+01 -0.23122464657E+03  0.28814291301E+03  0.17134779869E+03 0.  0.
        -24    2    5    5    0    0 -0.37672497412E+02  0.37376836215E+02 -0.12614417164E+03  0.16339631916E+03  0.89273513031E+02 0.  0.
          5    1    3    3  501    0 -0.50481013234E+02 -0.67370935509E+01 -0.63234638697E+02  0.81329150111E+02  0.47000000000E+01 0. -1.
        -13    1    4    4    0    0 -0.60616330057E+00 -0.35687492082E+01 -0.22868819357E+02  0.23153537605E+02  0.00000000000E+00 0.  1.
         14    1    4    4    0    0  0.39327321220E+02  0.18251837115E+02  0.53949857423E+02  0.69212389558E+02  0.00000000000E+00 0. -1.
         -5    1    5    5    0  502  0.49432352727E+02 -0.45322830571E+02 -0.10508047493E+03  0.12474659386E+03  0.47000000000E+01 0.  1.
         13    1    6    6    0    0 -0.30329487705E+02  0.26986764540E+02 -0.13929962886E+03  0.14509496851E+03  0.00000000000E+00 0. -1.
        -14    1    6    6    0    0 -0.73430097067E+01  0.10390071675E+02  0.13155457222E+02  0.18301350652E+02  0.00000000000E+00 0.  1.
</event>
<event>
12    1  0.1046899E+000  0.2075905E+03  0.7818608E-02  0.1143919E+00
         21   -1    0    0  501  502  0.00000000000E+00  0.00000000000E+00  0.18190724837E+03  0.18190724837E+03  0.00000000000E+00 0.  1.
         21   -1    0    0  502  503 -0.00000000000E+00 -0.00000000000E+00 -0.25035306031E+03  0.25035306031E+03  0.00000000000E+00 0.  1.
         -6    2    1    2    0  503  0.37912497814E+01  0.11302897705E+03  0.20044604742E+02  0.20855601770E+03  0.17408016290E+03 0.  0.
        -24    2    3    3    0    0  0.36019818295E+02  0.37371398116E+02  0.53942250203E+02  0.11948363003E+03  0.93126380692E+02 0.  0.
          6    2    1    2  501    0 -0.37912497814E+01 -0.11302897705E+03 -0.88490416680E+02  0.22370429097E+03  0.17153172513E+03 0.  0.
         24    2    5    5    0    0  0.27924558911E+02 -0.12760487734E+03 -0.42930323044E+02  0.16611816831E+03  0.93217206010E+02 0.  0.
          5    1    5    5  501    0 -0.31715808692E+02  0.14575900295E+02 -0.45560093635E+02  0.57586122655E+02  0.47000000000E+01 0. -1.
        -11    1    6    6    0    0  0.21265343032E+02  0.84775768772E+01  0.11437534737E+01  0.22921437476E+02  0.00000000000E+00 0.  1.
         12    1    6    6    0    0  0.66592158789E+01 -0.13608245422E+03 -0.44074076518E+02  0.14319673084E+03  0.00000000000E+00 0. -1.
         -5    1    3    3    0  503 -0.32228568514E+02  0.75657578930E+02 -0.33897645461E+02  0.89072387673E+02  0.47000000000E+01 0.  1.
         11    1    4    4    0    0  0.64332000921E+02  0.34560675105E+02  0.21065337609E+02  0.76005230443E+02  0.00000000000E+00 0. -1.
        -12    1    4    4    0    0 -0.28312182625E+02  0.28107230106E+01  0.32876912594E+02  0.43478399586E+02  0.00000000000E+00 0.  1.
</event>
<event>
12    1  0.1046899E+000  0.3370125E+03  0.7818608E-02  0.1068112E+00
         21   -1    0    0  503  502  0.00000000000E+00  0.00000000000E+00  0.43113016650E+03  0.43113016650E+03  0.00000000000E+00 0.  1.
         21   -1    0    0  501  503 -0.00000000000E+00 -0.00000000000E+00 -0.31241001571E+03  0.31241001571E+03  0.00000000000E+00 0. -1.
          6    2    1    2  501    0  0.19669688659E+02  0.28902198685E+03  0.20692097165E+03  0.39517710170E+03  0.17154605117E+03 0.  0.
         24    2    3    3    0    0  0.47724256217E+00  0.41185869727E+02  0.26528081078E+02  0.88004876553E+02  0.73106877828E+02 0.  0.
         -6    2    1    2    0  502 -0.19669688659E+02 -0.28902198685E+03 -0.88200820871E+02  0.34836308050E+03  0.17221163005E+03 0.  0.
        -24    2    5    5    0    0  0.28266468741E+01 -0.21140682225E+03  0.30475604174E+01  0.22638539412E+03  0.80871655235E+02 0.  0.
          5    1    3    3  501    0  0.19192446097E+02  0.24783611712E+03  0.18039289057E+03  0.30717222515E+03  0.47000000000E+01 0. -1.
        -13    1    4    4    0    0 -0.24840807496E+02  0.35821572395E+02  0.39704535789E+02  0.58963555932E+02  0.00000000000E+00 0.  1.
         14    1    4    4    0    0  0.25318050059E+02  0.53642973323E+01 -0.13176454711E+02  0.29041320621E+02  0.00000000000E+00 0. -1.
         -5    1    5    5    0  502 -0.22496335533E+02 -0.77615164594E+02 -0.91248381289E+02  0.12197768638E+03  0.47000000000E+01 0.  1.
         13    1    6    6    0    0 -0.11092316974E+02 -0.15160035948E+03 -0.32489109396E+02  0.15543889706E+03  0.00000000000E+00 0. -1.
        -14    1    6    6    0    0  0.13918963848E+02 -0.59806462774E+02  0.35536669813E+02  0.70946497064E+02  0.00000000000E+00 0.  1.
</event>
<event>
12    1  0.1046899E+000  0.4465130E+03  0.7818608E-02  0.1028884E+00
         21   -1    0    0  503  502  0.00000000000E+00  0.00000000000E+00  0.35547851885E+03  0.35547851885E+03  0.00000000000E+00 0.  1.
         21   -1    0    0  501  503 -0.00000000000E+00 -0.00000000000E+00 -0.83171647530E+03  0.83171647530E+03  0.00000000000E+00 0.  1.
          6    2    1    2  501    0 -0.54771982905E+02 -0.40678631088E+03  0.10212209304E+03  0.45652805520E+03  0.17179601410E+03 0.  0.
         24    2    3    3    0    0 -0.56400962313E+02 -0.41581834921E+03  0.11320612608E+03  0.44138945954E+03  0.76961418389E+02 0.  0.
         -6    2    1    2    0  502  0.54771982905E+02  0.40678631088E+03 -0.57836004949E+03  0.73066693896E+03  0.17578041984E+03 0.  0.
        -24    2    5    5    0    0 -0.12697171772E+02  0.15138357557E+03 -0.30906208977E+03  0.35340559035E+03  0.79359503752E+02 0.  0.
          5    1    3    3  501    0  0.16289794074E+01  0.90320383224E+01 -0.11084033039E+02  0.15138595661E+02  0.47000000000E+01 0. -1.
        -13    1    4    4    0    0  0.15663657995E+02 -0.36592994898E+02  0.28194460947E+01  0.39904219498E+02  0.00000000000E+00 0.  1.
         14    1    4    4    0    0 -0.72064620308E+02 -0.37922535431E+03  0.11038667999E+03  0.40148524004E+03  0.00000000000E+00 0. -1.
         -5    1    5    5    0  502  0.67469154677E+02  0.25540273531E+03 -0.26929795973E+03  0.37726134860E+03  0.47000000000E+01 0.  1.
         13    1    6    6    0    0  0.17303900248E+02  0.11701730055E+03 -0.17041100787E+03  0.20744248648E+03  0.00000000000E+00 0. -1.
        -14    1    6    6    0    0 -0.30001072020E+02  0.34366275017E+02 -0.13865108190E+03  0.14596310387E+03  0.00000000000E+00 0.  1.
</event>
<event>
12    1  0.1046899E+000  0.2351947E+03  0.7818608E-02  0.1123228E+00
         21   -1    0    0  501  502  0.00000000000E+00  0.00000000000E+00  0.56476747570E+02  0.56476747570E+02  0.00000000000E+00 0. -1.
         21   -1    0    0  502  503 -0.00000000000E+00 -0.00000000000E+00 -0.18678898796E+04  0.18678898796E+04  0.00000000000E+00 0.  1.
         -6    2    1    2    0  503  0.10806471626E+03  0.11738359851E+03 -0.23925566671E+03  0.33471394332E+03  0.17126954693E+03 0.  0.
        -24    2    3    3    0    0  0.33333458977E+02  0.99426453457E+02 -0.70858543706E+02  0.14954671915E+03  0.79665229918E+02 0.  0.
          6    2    1    2  501    0 -0.10806471626E+03 -0.11738359851E+03 -0.15721574653E+04  0.15896526838E+04  0.17279950056E+03 0.  0.
         24    2    5    5    0    0 -0.99275367605E+02 -0.13694644633E+03 -0.15366698652E+04  0.15479223900E+04  0.78099442853E+02 0.  0.
          5    1    5    5  501    0 -0.87893486509E+01  0.19562847821E+02 -0.35487600105E+02  0.41730293862E+02  0.47000000000E+01 0. -1.
        -11    1    6    6    0    0 -0.13388316443E+02 -0.17851159785E+02 -0.54340500272E+03  0.54386294956E+03  0.00000000000E+00 0.  1.
         12    1    6    6    0    0 -0.85887051162E+02 -0.11909528654E+03 -0.99326486248E+03  0.10040594404E+04  0.00000000000E+00 0. -1.
         -5    1    3    3    0  503  0.74731257279E+02  0.17957145051E+02 -0.16839712300E+03  0.18516722417E+03  0.47000000000E+01 0.  1.
         13    1    4    4    0    0  0.49589780181E+02  0.26951044903E+02 -0.39675980639E+02  0.68990496153E+02  0.00000000000E+00 0. -1.
        -14    1    4    4    0    0 -0.16256321203E+02  0.72475408554E+02 -0.31182563066E+02  0.80556222996E+02  0.00000000000E+00 0.  1.
</event>
<event>
12    1  0.1046899E+000  0.1936481E+03  0.7818608E-02  0.1155803E+00
         21   -1    0    0  501  502  0.00000000000E+00  0.00000000000E+00  0.51111751454E+02  0.51111751454E+02  0.00000000000E+00 0.  1.
         21   -1    0    0  502  503 -0.00000000000E+00 -0.00000000000E+00 -0.78682302764E+03  0.78682302764E+03  0.00000000000E+00 0.  1.
         -6    2    1    2    0  503 -0.31642870022E+02  0.79571616436E+02 -0.24674936778E+03  0.31202287187E+03  0.17070474130E+03 0.  0.
        -24    2    3    3    0    0 -0.84071877565E+02  0.59580238796E+02 -0.19684827916E+03  0.23678548317E+03  0.81854960634E+02 0.  0.
          6    2    1    2  501    0  0.31642870022E+02 -0.79571616436E+02 -0.48896190841E+03  0.52591190723E+03  0.17368555763E+03 0.  0.
         24    2    5    5    0    0  0.47393479772E+01 -0.14313424866E+02 -0.41773675802E+03  0.42552494039E+03  0.79624998180E+02 0.  0.
          5    1    5    5  501    0  0.26903522045E+02 -0.65258191570E+02 -0.71225150382E+02  0.10038696685E+03  0.47000000000E+01 0. -1.
        -11    1    6    6    0    0  0.31439966430E+01  0.30063995526E+02 -0.93585818812E+02  0.98346499808E+02  0.00000000000E+00 0.  1.
         12    1    6    6    0    0  0.15953513342E+01 -0.44377420392E+02 -0.32415093921E+03  0.32717844058E+03  0.00000000000E+00 0. -1.
         -5    1    3    3    0  503  0.52429007542E+02  0.19991377640E+02 -0.49901088620E+02  0.75237388693E+02  0.47000000000E+01 0.  1.
         13    1    4    4    0    0  0.10698812565E+01  0.44815636060E+02 -0.59133745347E+02  0.74205024899E+02  0.00000000000E+00 0. -1.
        -14    1    4    4    0    0 -0.85141758821E+02  0.14764602736E+02 -0.13771453382E+03  0.16258045828E+03  0.00000000000E+00 0.  1.
</event>
<event>
12    1  0.1046899E+000  0.1902562E+03  0.7818608E-02  0.1158352E+00
         21   -1    0    0  501  502  0.00000000000E+00  0.00000000000E+00  0.12840573292E+03  0.12840573292E+03  0.00000000000E+00 0. -1.
         21   -1    0    0  502  503 -0.00000000000E+00 -0.00000000000E+00 -0.30244329204E+03  0.30244329204E+03  0.00000000000E+00 0. -1.
         -6    2    1    2    0  503 -0.77294625360E+02  0.10731604904E+02 -0.14436406724E+03  0.23882717857E+03  0.17351602479E+03 0.  0.
        -24    2    3    3    0    0 -0.11541126539E+03 -0.17339677198E+02 -0.11166961806E+03  0.18110463416E+03  0.81904580647E+02 0.  0.
          6    2    1    2  501    0  0.77294625360E+02 -0.10731604904E+02 -0.29673491882E+02  0.19202184639E+03  0.17292266166E+03 0.  0.
         24    2    5    5    0    0  0.76774278644E+02  0.52261775857E+02 -0.38714986573E+02  0.12820746395E+03  0.79452630853E+02 0.  0.
          5    1    5    5  501    0  0.52034671661E+00 -0.62993380761E+02  0.90414946909E+01  0.63814382443E+02  0.47000000000E+01 0. -1.
        -13    1    6    6    0    0  0.54630754481E+02 -0.10368847010E+02 -0.14120597546E+02  0.57370929908E+02  0.00000000000E+00 0.  1.
         14    1    6    6    0    0  0.22143524163E+02  0.62630622867E+02 -0.24594389027E+02  0.70836534039E+02  0.00000000000E+00 0. -1.
         -5    1    3    3    0  503  0.38116640031E+02  0.28071282102E+02 -0.32694449180E+02  0.57722544411E+02  0.47000000000E+01 0.  1.
         11    1    4    4    0    0 -0.10041909343E+01 -0.15688151543E+02  0.61399208880E+01  0.16876762923E+02  0.00000000000E+00 0. -1.
        -12    1    4    4    0    0 -0.11440707446E+03 -0.16515256552E+01 -0.11780953895E+03  0.16422787124E+03  0.00000000000E+00 0.  1.
</event>
<event>
12    1  0.1046899E+000  0.2264915E+03  0.7818608E-02  0.1132037E+00
         21   -1    0    0  501  502  0.00000000000E+00  0.00000000000E+00  0.46967957527E+03  0.46967957527E+03  0.00000000000E+00 0.  1.
         21   -1    0    0  502  503 -0.00000000000E+00 -0.00000000000E+00 -0.10224413387E+03  0.10224413387E+03  0.00000000000E+00 0.  1.
         -6    2    1    2    0  503  0.95414106490E+02 -0.76661298480E+02  0.19516525814E+03  0.28736190452E+03  0.17177479380E+03 0.  0.
        -24    2    3    3    0    0  0.11781086681E+02 -0.48506374960E+02  0.17243607201E+03  0.19611560256E+03  0.78964980969E+02 0.  0.
          6    2    1    2  501    0 -0.95414106490E+02  0.76661298480E+02  0.17227018326E+03  0.28456180462E+03  0.19057176655E+03 0.  0.
         24    2    5    5    0    0 -0.26119047023E+01 -0.28336842166E+02  0.52753674551E+02  0.10032515232E+03  0.80451148778E+02 0.  0.
          5    1    5    5  501    0 -0.92802201788E+02  0.10499814065E+03  0.11951650871E+03  0.18423665230E+03  0.47000000000E+01 0. -1.
        -11    1    6    6    0    0 -0.12051412938E+02 -0.18885473029E+01  0.67509070674E+02  0.68602316200E+02  0.00000000000E+00 0.  1.
         12    1    6    6    0    0  0.94395082357E+01 -0.26448294863E+02 -0.14755396123E+02  0.31722836122E+02  0.00000000000E+00 0. -1.
         -5    1    3    3    0  503  0.83633019809E+02 -0.28154923520E+02  0.22729186125E+02  0.91246301967E+02  0.47000000000E+01 0.  1.
         13    1    4    4    0    0  0.40485157010E+02 -0.21944717338E+02  0.51854473133E+02  0.69350594381E+02  0.00000000000E+00 0. -1.
        -14    1    4    4    0    0 -0.28704070329E+02 -0.26561657622E+02  0.12058159888E+03  0.12676500818E+03  0.00000000000E+00 0.  1.
</event>
<event>
12    1  0.1046899E+000  0.2420304E+03  0.7818608E-02  0.1118461E+00
         21   -1    0    0  501  502  0.00000000000E+00  0.00000000000E+00  0.37076688951E+03  0.37076688951E+03  0.00000000000E+00 0.  1.
         21   -1    0    0  502  503 -0.00000000000E+00 -0.00000000000E+00 -0.17117672938E+03  0.17117672938E+03  0.00000000000E+00 0.  1.
         -6    2    1    2    0  503 -0.16991533748E+03  0.22631132358E+01  0.17516405081E+03  0.29876605188E+03  0.17234374217E+03 0.  0.
        -24    2    3    3    0    0 -0.31129909072E+02 -0.34720098994E+02  0.10367110473E+03  0.13825909108E+03  0.78697660683E+02 0.  0.
          6    2    1    2  501    0  0.16991533748E+03 -0.22631132358E+01  0.24426109316E+02  0.24317756701E+03  0.17222761302E+03 0.  0.
         24    2    5    5    0    0  0.62980141826E+02  0.21148461519E+02 -0.45740205347E+02  0.11306746127E+03  0.79235905522E+02 0.  0.
          5    1    5    5  501    0  0.10693519565E+03 -0.23411574755E+02  0.70166314663E+02  0.13011010574E+03  0.47000000000E+01 0. -1.
        -11    1    6    6    0    0  0.16172983828E+01  0.30205801940E+02 -0.40873316941E+02  0.50849131386E+02  0.00000000000E+00 0.  1.
         12    1    6    6    0    0  0.61362843443E+02 -0.90573404203E+01 -0.48668884059E+01  0.62218329885E+02  0.00000000000E+00 0. -1.
         -5    1    3    3    0  503 -0.13878542841E+03  0.36983212230E+02  0.71492946080E+02  0.16050696080E+03  0.47000000000E+01 0.  1.
         11    1    4    4    0    0 -0.52768285518E+02 -0.10494639769E+02  0.85557190174E+02  0.10106761208E+03  0.00000000000E+00 0. -1.
        -12    1    4    4    0    0  0.21638376446E+02 -0.24225459225E+02  0.18113914559E+02  0.37191479005E+02  0.00000000000E+00 0.  1.
</event>
<event>
12    1  0.1046899E+000  0.1754990E+03  0.7818608E-02  0.1172365E+00
         21   -1    0    0  503  502  0.00000000000E+00  0.00000000000E+00  0.22827279792E+03  0.22827279792E+03  0.00000000000E+00 0. -1.
         21   -1    0    0  501  503 -0.00000000000E+00 -0.00000000000E+00 -0.13451652422E+03  0.13451652422E+03  0.00000000000E+00 0. -1.
          6    2    1    2  501    0 -0.33342107716E+02 -0.16100283290E+02  0.47354702592E+02  0.18125973058E+03  0.17100206667E+03 0.  0.
         24    2    3    3    0    0 -0.80901328849E+02 -0.62141621268E+01  0.63212705577E+02  0.12994519887E+03  0.79412012581E+02 0.  0.
         -6    2    1    2    0  502  0.33342107716E+02  0.16100283290E+02  0.46401571105E+02  0.18152959156E+03  0.17154874392E+03 0.  0.
        -24    2    5    5    0    0  0.63374723651E+02  0.39110903906E+02 -0.12951187838E+02  0.11098679125E+03  0.81266943857E+02 0.  0.
          5    1    3    3  501    0  0.47559221132E+02 -0.98861211631E+01 -0.15858002985E+02  0.51314531714E+02  0.47000000000E+01 0. -1.
        -11    1    4    4    0    0 -0.47628760869E+02  0.45252695510E+01  0.78384891313E+02  0.91832282519E+02  0.00000000000E+00 0.  1.
         12    1    4    4    0    0 -0.33272567979E+02 -0.10739431678E+02 -0.15172185736E+02  0.38112916350E+02  0.00000000000E+00 0. -1.
         -5    1    5    5    0  502 -0.30032615935E+02 -0.23010620616E+02  0.59352758943E+02  0.70542800307E+02  0.47000000000E+01 0.  1.
         11    1    6    6    0    0  0.70062250108E+01  0.49222559570E+02 -0.19372733083E+02  0.53359632182E+02  0.00000000000E+00 0. -1.
        -12    1    6    6    0    0  0.56368498640E+02 -0.10111655663E+02  0.64215452450E+01  0.57627159070E+02  0.00000000000E+00 0.  1.
</event>
<event>
12    1  0.1046899E+000  0.2167173E+03  0.7818608E-02  0.1136509E+00
         21   -1    0    0  501  502  0.00000000000E+00  0.00000000000E+00  0.72032325853E+03  0.72032325853E+03  0.00000000000E+00 0.  1.
         21   -1    0    0  502  503 -0.00000000000E+00 -0.00000000000E+00 -0.10634191716E+03  0.10634191716E+03  0.00000000000E+00 0.  1.
         -6    2    1    2    0  503  0.56849431527E+02  0.11642299822E+03  0.56448655393E+03  0.60436777001E+03  0.17271120256E+03 0.  0.
        -24    2    3    3    0    0  0.25285442220E+02  0.13371454399E+03  0.35731850191E+03  0.39404426977E+03  0.95265113618E+02 0.  0.
          6    2    1    2  501    0 -0.56849431527E+02 -0.11642299822E+03  0.49494787443E+02  0.22229740567E+03  0.17372458146E+03 0.  0.
         24    2    5    5    0    0 -0.28994257608E+02 -0.14586750523E+03  0.63219852496E+02  0.17924677132E+03  0.77554234070E+02 0.  0.
          5    1    5    5  501    0 -0.27855173919E+02  0.29444507012E+02 -0.13725065053E+02  0.43050634350E+02  0.47000000000E+01 0. -1.
        -13    1    6    6    0    0  0.81743584762E+01 -0.65011194081E+02  0.62061412512E+02  0.90249068779E+02  0.00000000000E+00 0.  1.
         14    1    6    6    0    0 -0.37168616084E+02 -0.80856311148E+02  0.11584399835E+01  0.88997702539E+02  0.00000000000E+00 0. -1.
         -5    1    3    3    0  503  0.31563989307E+02 -0.17291545775E+02  0.20716805202E+03  0.21032350024E+03  0.47000000000E+01 0.  1.
         11    1    4    4    0    0  0.15313537062E+02  0.14017763977E+03  0.35494055056E+03  0.38192547643E+03  0.00000000000E+00 0. -1.
        -12    1    4    4    0    0  0.99719051573E+01 -0.64630957820E+01  0.23779513429E+01  0.12118793345E+02  0.00000000000E+00 0.  1.
</event>
<event>
12    1  0.1046899E+000  0.1841033E+03  0.7818608E-02  0.1164132E+00
         21   -1    0    0  503  502  0.00000000000E+00  0.00000000000E+00  0.11807387727E+03  0.11807387727E+03  0.00000000000E+00 0. -1.
         21   -1    0    0  501  503 -0.00000000000E+00 -0.00000000000E+00 -0.29498437716E+03  0.29498437716E+03  0.00000000000E+00 0. -1.
          6    2    1    2  501    0  0.62872956672E+02  0.46283870755E+01 -0.51576215465E+02  0.19119137751E+03  0.17297284811E+03 0.  0.
         24    2    3    3    0    0  0.22549024528E+02 -0.92210259929E+01 -0.96983537085E+02  0.12872746310E+03  0.81064588220E+02 0.  0.
         -6    2    1    2    0  502 -0.62872956672E+02 -0.46283870755E+01 -0.12533428442E+03  0.22186687692E+03  0.17187727475E+03 0.  0.
        -24    2    5    5    0    0 -0.86119559871E+02 -0.13666395357E+02 -0.29628459082E+02  0.12285281147E+03  0.81311861025E+02 0.  0.
          5    1    3    3  501    0  0.40323932144E+02  0.13849413068E+02  0.45407321620E+02  0.62463914404E+02  0.47000000000E+01 0. -1.
        -13    1    4    4    0    0 -0.19614887941E+02 -0.25617292640E+02 -0.67256102790E+02  0.74594724167E+02  0.00000000000E+00 0.  1.
         14    1    4    4    0    0  0.42163912469E+02  0.16396266647E+02 -0.29727434296E+02  0.54132738934E+02  0.00000000000E+00 0. -1.
         -5    1    5    5    0  502  0.23246603198E+02  0.90380082813E+01 -0.95705825340E+02  0.99014065455E+02  0.47000000000E+01 0.  1.
         13    1    6    6    0    0 -0.28669870673E+01  0.15889786494E+01 -0.37688851402E+02  0.37831124593E+02  0.00000000000E+00 0. -1.
        -14    1    6    6    0    0 -0.83252572803E+02 -0.15255374006E+02  0.80603923201E+01  0.85021686873E+02  0.00000000000E+00 0.  1.
</event>
<event>
12    1  0.1046899E+000  0.5697332E+03  0.7818608E-02  0.9970542E-01
         21   -1    0    0  503  502  0.00000000000E+00  0.00000000000E+00  0.14426869501E+04  0.14426869501E+04  0.00000000000E+00 0. -1.
         21   -1    0    0  501  503 -0.00000000000E+00 -0.00000000000E+00 -0.24962621569E+03  0.24962621569E+03  0.00000000000E+00 0.  1.
          6    2    1    2  501    0  0.35572747743E+03  0.41061581352E+03  0.32944685389E+03  0.65769977345E+03  0.16995993041E+03 0.  0.
         24    2    3    3    0    0  0.22450795501E+03  0.17153161439E+03  0.20367441698E+03  0.35733230980E+03  0.79851079465E+02 0.  0.
         -6    2    1    2    0  502 -0.35572747743E+03 -0.41061581352E+03  0.86361388055E+03  0.10346133924E+04  0.17160580549E+03 0.  0.
        -24    2    5    5    0    0 -0.32884133472E+03 -0.36483332800E+03  0.67091433317E+03  0.83467813732E+03  0.72949090667E+02 0.  0.
          5    1    3    3  501    0  0.13121952242E+03  0.23908419912E+03  0.12577243691E+03  0.30036746365E+03  0.47000000000E+01 0. -1.
        -11    1    4    4    0    0  0.52015082660E+02  0.87352043951E+02  0.70271066018E+02  0.12358790849E+03  0.00000000000E+00 0.  1.
         12    1    4    4    0    0  0.17249287235E+03  0.84179570443E+02  0.13340335096E+03  0.23374440131E+03  0.00000000000E+00 0. -1.
         -5    1    5    5    0  502 -0.26886142714E+02 -0.45782485514E+02  0.19269954738E+03  0.19993525504E+03  0.47000000000E+01 0.  1.
         13    1    6    6    0    0 -0.27038779663E+03 -0.33433938502E+03  0.56681645378E+03  0.71145855622E+03  0.00000000000E+00 0. -1.
        -14    1    6    6    0    0 -0.58453538088E+02 -0.30493942984E+02  0.10409787939E+03  0.12321958110E+03  0.00000000000E+00 0.  1.
</event>
<event>
12    1  0.1046899E+000  0.2138481E+03  0.7818608E-02  0.1139234E+00
         21   -1    0    0  503  502  0.00000000000E+00  0.00000000000E+00  0.43185064912E+02  0.43185064912E+02  0.00000000000E+00 0.  1.
         21   -1    0    0  501  503 -0.00000000000E+00 -0.00000000000E+00 -0.10466891959E+04  0.10466891959E+04  0.00000000000E+00 0. -1.
          6    2    1    2  501    0  0.56592268740E+02  0.11328834996E+03 -0.46029845640E+03  0.50609056876E+03  0.16797636650E+03 0.  0.
         24    2    3    3    0    0  0.99172207184E+02  0.58476835503E+02 -0.31926994530E+03  0.34883763805E+03  0.80620920208E+02 0.  0.
         -6    2    1    2    0  502 -0.56592268740E+02 -0.11328834996E+03 -0.54320567456E+03  0.58378369202E+03  0.17231964219E+03 0.  0.
        -24    2    5    5    0    0 -0.83852752161E+02 -0.45176405538E+02 -0.23143949177E+03  0.26346726463E+03  0.82332068595E+02 0.  0.
          5    1    3    3  501    0 -0.42579938444E+02  0.54811514455E+02 -0.14102851110E+03  0.15725293071E+03  0.47000000000E+01 0. -1.
        -11    1    4    4    0    0  0.10647567277E+03  0.56810953557E+02 -0.31930064130E+03  0.34134652902E+03  0.00000000000E+00 0.  1.
         12    1    4    4    0    0 -0.73034655892E+01  0.16658819469E+01  0.30695995467E-01  0.74911090312E+01  0.00000000000E+00 0. -1.
         -5    1    5    5    0  502  0.27260483420E+02 -0.68111944421E+02 -0.31176618278E+03  0.32031642739E+03  0.47000000000E+01 0.  1.
         13    1    6    6    0    0 -0.59312274041E+02 -0.48691737109E+02 -0.22518215597E+03  0.23789879042E+03  0.00000000000E+00 0. -1.
        -14    1    6    6    0    0 -0.24540478120E+02  0.35153315705E+01 -0.62573358025E+01  0.25568474216E+02  0.00000000000E+00 0.  1.
</event>
<event>
12    1  0.1046899E+000  0.3916062E+03  0.7818608E-02  0.1046797E+00
         21   -1    0    0  503  502  0.00000000000E+00  0.00000000000E+00  0.62307828312E+03  0.62307828312E+03  0.00000000000E+00 0. -1.
         21   -1    0    0  501  503 -0.00000000000E+00 -0.00000000000E+00 -0.24842212957E+03  0.24842212957E+03  0.00000000000E+00 0. -1.
          6    2    1    2  501    0  0.30480087665E+03  0.17435352390E+03  0.14125210415E+03  0.41630222848E+03  0.17335703852E+03 0.  0.
         24    2    3    3    0    0  0.13572883091E+03  0.14107513196E+03  0.36685696938E+02  0.21468617867E+03  0.80123695340E+02 0.  0.
         -6    2    1    2    0  502 -0.30480087665E+03 -0.17435352390E+03  0.23340404939E+03  0.45519818421E+03  0.17153778281E+03 0.  0.
        -24    2    5    5    0    0 -0.18638204704E+03 -0.48417743326E+02  0.17440184624E+03  0.27247930174E+03  0.82136597060E+02 0.  0.
          5    1    3    3  501    0  0.16907204575E+03  0.33278391939E+02  0.10456640722E+03  0.20161604981E+03  0.47000000000E+01 0. -1.
        -11    1    4    4    0    0  0.67416408057E+02  0.21699721683E+02  0.30203459187E+02  0.76994148760E+02  0.00000000000E+00 0.  1.
         12    1    4    4    0    0  0.68312422850E+02  0.11937541027E+03  0.64822377512E+01  0.13769202991E+03  0.00000000000E+00 0. -1.
         -5    1    5    5    0  502 -0.11841882962E+03 -0.12593578057E+03  0.59002203147E+02  0.18271888247E+03  0.47000000000E+01 0.  1.
         13    1    6    6    0    0 -0.62962781400E+02 -0.39667854399E+02  0.11050266692E+03  0.13322420917E+03  0.00000000000E+00 0. -1.
        -14    1    6    6    0    0 -0.12341926564E+03 -0.87498889276E+01  0.63899179325E+02  0.13925509257E+03  0.00000000000E+00 0.  1.
</event>
<event>
12    1  0.1046899E+000  0.1948393E+03  0.7818608E-02  0.1154198E+00
         21   -1    0    0  501  502  0.00000000000E+00  0.00000000000E+00  0.35179950797E+03  0.35179950797E+03  0.00000000000E+00 0.  1.
         21   -1    0    0  502  503 -0.00000000000E+00 -0.00000000000E+00 -0.19973915216E+03  0.19973915216E+03  0.00000000000E+00 0.  1.
         -6    2    1    2    0  503 -0.23647348743E+02 -0.87704078449E+02 -0.11101798153E+03  0.22424838791E+03  0.17236921064E+03 0.  0.
        -24    2    3    3    0    0 -0.58577458964E+02 -0.10264662681E+03 -0.47894913400E+02  0.15042424496E+03  0.79786477857E+02 0.  0.
          6    2    1    2  501    0  0.23647348743E+02  0.87704078449E+02  0.26307833734E+03  0.32729027222E+03  0.17221355414E+03 0.  0.
         24    2    5    5    0    0  0.60915410328E+02  0.16772300422E+02  0.16244137861E+03  0.19856532121E+03  0.95126168988E+02 0.  0.
          5    1    5    5  501    0 -0.37268061585E+02  0.70931778027E+02  0.10063695873E+03  0.12872495101E+03  0.47000000000E+01 0. -1.
        -13    1    6    6    0    0  0.47668721427E+02  0.40365274254E+02  0.42356959774E+02  0.75470354507E+02  0.00000000000E+00 0.  1.
         14    1    6    6    0    0  0.13246688901E+02 -0.23592973832E+02  0.12008441883E+03  0.12309496670E+03  0.00000000000E+00 0. -1.
         -5    1    3    3    0  503  0.34930110220E+02  0.14942548358E+02 -0.63123068133E+02  0.73824142948E+02  0.47000000000E+01 0.  1.
         13    1    4    4    0    0 -0.91329131144E+01 -0.90651305573E+02 -0.37324246838E+02  0.98458969658E+02  0.00000000000E+00 0. -1.
        -14    1    4    4    0    0 -0.49444545849E+02 -0.11995321234E+02 -0.10570666562E+02  0.51965275303E+02  0.00000000000E+00 0.  1.
</event>
<event>
12    1  0.1046899E+000  0.1769768E+03  0.7818608E-02  0.1171381E+00
         21   -1    0    0  501  502  0.00000000000E+00  0.00000000000E+00  0.91518471315E+02  0.91518471315E+02  0.00000000000E+00 0. -1.
         21   -1    0    0  502  503 -0.00000000000E+00 -0.00000000000E+00 -0.33870510106E+03  0.33870510106E+03  0.00000000000E+00 0. -1.
         -6    2    1    2    0  503 -0.36793701697E+01  0.37444959632E+02 -0.10960915561E+03  0.20606216347E+03  0.17038716340E+03 0.  0.
        -24    2    3    3    0    0  0.18426822398E+02 -0.41886544111E+02 -0.49063316682E+02  0.10373885309E+03  0.79123386142E+02 0.  0.
          6    2    1    2  501    0  0.36793701697E+01 -0.37444959632E+02 -0.13757747413E+03  0.22416140890E+03  0.17293094890E+03 0.  0.
         24    2    5    5    0    0 -0.27652654159E+02  0.40184786094E+02 -0.64027651856E+02  0.11262782864E+03  0.78778177601E+02 0.  0.
          5    1    5    5  501    0  0.31332024329E+02 -0.77629745726E+02 -0.73549822276E+02  0.11153358027E+03  0.47000000000E+01 0. -1.
        -11    1    6    6    0    0 -0.15138389827E+01  0.47633212127E+02 -0.53443453043E+01  0.47955986412E+02  0.00000000000E+00 0.  1.
         12    1    6    6    0    0 -0.26138815176E+02 -0.74484260326E+01 -0.58683306552E+02  0.64671842227E+02  0.00000000000E+00 0. -1.
         -5    1    3    3    0  503 -0.22106192568E+02  0.79331503743E+02 -0.60545838931E+02  0.10232331038E+03  0.47000000000E+01 0.  1.
         11    1    4    4    0    0  0.16599017063E+02  0.66447488332E+01  0.15006479706E+02  0.23342546727E+02  0.00000000000E+00 0. -1.
        -12    1    4    4    0    0  0.18278053351E+01 -0.48531292944E+02 -0.64069796387E+02  0.80396306360E+02  0.00000000000E+00 0.  1.
</event>
<event>
12    1  0.1046899E+000  0.3951494E+03  0.7818608E-02  0.1045492E+00
         21   -1    0    0  501  502  0.00000000000E+00  0.00000000000E+00  0.15627098908E+03  0.15627098908E+03  0.00000000000E+00 0.  1.
         21   -1    0    0  502  503 -0.00000000000E+00 -0.00000000000E+00 -0.10264860424E+04  0.10264860424E+04  0.00000000000E+00 0.  1.
         -6    2    1    2    0  503  0.15895506504E+03 -0.31832890176E+03 -0.33753884429E+03  0.51951728653E+03  0.17136434051E+03 0.  0.
        -24    2    3    3    0    0  0.18376684145E+03 -0.27811317579E+03 -0.31182096871E+03  0.46551332383E+03  0.91395555510E+02 0.  0.
          6    2    1    2  501    0 -0.15895506504E+03  0.31832890176E+03 -0.53267620908E+03  0.66323974499E+03  0.17188081109E+03 0.  0.
         24    2    5    5    0    0 -0.15578063977E+03  0.28722049006E+03 -0.37763229636E+03  0.50500411334E+03  0.75231546535E+02 0.  0.
          5    1    5    5  501    0 -0.31744252698E+01  0.31108411694E+02 -0.15504391272E+03  0.15823563165E+03  0.47000000000E+01 0. -1.
        -13    1    6    6    0    0 -0.95869799975E+02  0.14249225727E+03 -0.14617799947E+03  0.22552842273E+03  0.00000000000E+00 0.  1.
         14    1    6    6    0    0 -0.59910839799E+02  0.14472823279E+03 -0.23145429689E+03  0.27947569061E+03  0.00000000000E+00 0. -1.
         -5    1    3    3    0  503 -0.24811776402E+02 -0.40215725967E+02 -0.25717875573E+02  0.54003962699E+02  0.47000000000E+01 0.  1.
         13    1    4    4    0    0  0.14883870313E+03 -0.23808819673E+03 -0.20985642894E+03  0.35054053937E+03  0.00000000000E+00 0. -1.
        -14    1    4    4    0    0  0.34928138316E+02 -0.40024979060E+02 -0.10196453978E+03  0.11497278446E+03  0.00000000000E+00 0.  1.
</event>
<event>
12    1  0.1046899E+000  0.2665326E+03  0.7818608E-02  0.1103390E+00
         21   -1    0    0  503  502  0.00000000000E+00  0.00000000000E+00  0.16152699539E+04  0.16152699539E+04  0.00000000000E+00 0.  1.
         21   -1    0    0  501  503 -0.00000000000E+00 -0.00000000000E+00 -0.69278706345E+02  0.69278706345E+02  0.00000000000E+00 0.  1.
          6    2    1    2  501    0  0.15773754153E+03 -0.12798251175E+03  0.12839181881E+04  0.13112915511E+04  0.17256582183E+03 0.  0.
         24    2    3    3    0    0  0.12238364749E+03 -0.34124005763E+02  0.54622257874E+03  0.56679425824E+03  0.82185282780E+02 0.  0.
         -6    2    1    2    0  502 -0.15773754153E+03  0.12798251175E+03  0.26207305941E+03  0.37325710912E+03  0.17139990001E+03 0.  0.
        -24    2    5    5    0    0 -0.11583056767E+02  0.54232423705E+02  0.13505090156E+03  0.16599657866E+03  0.78998703347E+02 0.  0.
          5    1    3    3  501    0  0.35353894039E+02 -0.93858505992E+02  0.73769560937E+03  0.74449729285E+03  0.47000000000E+01 0. -1.
        -13    1    4    4    0    0  0.47113613049E+02  0.24893128062E+02  0.24594186462E+03  0.25164808986E+03  0.00000000000E+00 0.  1.
         14    1    4    4    0    0  0.75270034439E+02 -0.59017133825E+02  0.30028071412E+03  0.31514616838E+03  0.00000000000E+00 0. -1.
         -5    1    5    5    0  502 -0.14615448476E+03  0.73750088050E+02  0.12702215785E+03  0.20726053046E+03  0.47000000000E+01 0.  1.
         11    1    6    6    0    0  0.10972089537E+01 -0.16417020292E+02  0.59716463949E+02  0.61941734633E+02  0.00000000000E+00 0. -1.
        -12    1    6    6    0    0 -0.12680265720E+02  0.70649443997E+02  0.75334437609E+02  0.10405484403E+03  0.00000000000E+00 0.  1.
</event>
<event>
12    1  0.1046899E+000  0.1811348E+03  0.7818608E-02  0.1166892E+00
         21   -1    0    0  501  502  0.00000000000E+00  0.00000000000E+00  0.10823836497E+03  0.10823836497E+03  0.00000000000E+00 0. -1.
         21   -1    0    0  502  503 -0.00000000000E+00 -0.00000000000E+00 -0.30232623389E+03  0.30232623389E+03  0.00000000000E+00 0. -1.
         -6    2    1    2    0  503 -0.27408516130E+02  0.49342605882E+02 -0.10496242609E+03  0.20869046107E+03  0.17131455904E+03 0.  0.
        -24    2    3    3    0    0 -0.33846063729E+02 -0.36724613231E+02 -0.60773316346E+02  0.11161432783E+03  0.79184019534E+02 0.  0.
          6    2    1    2  501    0  0.27408516130E+02 -0.49342605882E+02 -0.89125442837E+02  0.20187413779E+03  0.17211595927E+03 0.  0.
         24    2    5    5    0    0  0.69303709178E+02  0.10456249332E+01 -0.22079561641E+02  0.10800496718E+03  0.79834005642E+02 0.  0.
          5    1    5    5  501    0 -0.41895193048E+02 -0.50388230815E+02 -0.67045881195E+02  0.93869170607E+02  0.47000000000E+01 0. -1.
        -13    1    6    6    0    0  0.30886712282E+02  0.25161739677E+02  0.21357145608E+02  0.45202099594E+02  0.00000000000E+00 0.  1.
         14    1    6    6    0    0  0.38416996895E+02 -0.24116114744E+02 -0.43436707250E+02  0.62802867590E+02  0.00000000000E+00 0. -1.
         -5    1    3    3    0  503  0.64375475990E+01  0.86067219113E+02 -0.44189109743E+02  0.97076133240E+02  0.47000000000E+01 0.  1.
         11    1    4    4    0    0 -0.28585475960E+02 -0.23854778520E+02  0.10749895391E+02  0.38752292126E+02  0.00000000000E+00 0. -1.
        -12    1    4    4    0    0 -0.52605877692E+01 -0.12869834711E+02 -0.71523211737E+02  0.72862035700E+02  0.00000000000E+00 0.  1.
</event>
<event>
12    1  0.1046899E+000  0.1908817E+03  0.7818608E-02  0.1158108E+00
         21   -1    0    0  501  502  0.00000000000E+00  0.00000000000E+00  0.42373642333E+02  0.42373642333E+02  0.00000000000E+00 0. -1.
         21   -1    0    0  502  503 -0.00000000000E+00 -0.00000000000E+00 -0.88276437415E+03  0.88276437415E+03  0.00000000000E+00 0. -1.
         -6    2    1    2    0  503 -0.77642830206E+02 -0.26346782913E+02 -0.50570558450E+03  0.53984594353E+03  0.17021440154E+03 0.  0.
        -24    2    3    3    0    0 -0.78673531886E+02 -0.61639684701E+02 -0.48565509360E+03  0.49897097015E+03  0.55876504648E+02 0.  0.
          6    2    1    2  501    0  0.77642830206E+02  0.26346782913E+02 -0.33468514731E+03  0.38529207295E+03  0.17237537991E+03 0.  0.
         24    2    5    5    0    0  0.63744315548E+02  0.78426988063E-01 -0.33884408649E+03  0.35491803786E+03  0.84191179660E+02 0.  0.
          5    1    5    5  501    0  0.13898514658E+02  0.26268355925E+02  0.41589391816E+01  0.30374035093E+02  0.47000000000E+01 0. -1.
        -11    1    6    6    0    0  0.71417518536E+02  0.26349299596E+02 -0.21477841990E+03  0.22786951793E+03  0.00000000000E+00 0.  1.
         12    1    6    6    0    0 -0.76732029883E+01 -0.26270872608E+02 -0.12406566659E+03  0.12704851993E+03  0.00000000000E+00 0. -1.
         -5    1    3    3    0  503  0.10307016793E+01  0.35292901788E+02 -0.20050490907E+02  0.40874973372E+02  0.47000000000E+01 0.  1.
         13    1    4    4    0    0 -0.24378009626E+02  0.84583550949E+01 -0.11462214888E+03  0.11749071512E+03  0.00000000000E+00 0. -1.
        -14    1    4    4    0    0 -0.54295522259E+02 -0.70098039796E+02 -0.37103294471E+03  0.38148025504E+03  0.00000000000E+00 0.  1.
</event>
<event>
12    1  0.1046899E+000  0.1879342E+03  0.7818608E-02  0.1160628E+00
         21   -1    0    0  503  502  0.00000000000E+00  0.00000000000E+00  0.26169969376E+03  0.26169969376E+03  0.00000000000E+00 0.  1.
         21   -1    0    0  501  503 -0.00000000000E+00 -0.00000000000E+00 -0.14003653351E+03  0.14003653351E+03  0.00000000000E+00 0.  1.
          6    2    1    2  501    0 -0.37566630000E+02  0.61736850657E+02  0.19512326065E+02  0.18894446574E+03  0.17348368755E+03 0.  0.
         24    2    3    3    0    0  0.19053757546E+02  0.42629553512E+02 -0.44208473460E+02  0.10146082509E+03  0.78483026142E+02 0.  0.
         -6    2    1    2    0  502  0.37566630000E+02 -0.61736850657E+02  0.10215083418E+03  0.21279176152E+03  0.17211290024E+03 0.  0.
        -24    2    5    5    0    0  0.79793389483E+02 -0.55124411183E+02  0.11227833992E+03  0.16861620330E+03  0.80120613360E+02 0.  0.
          5    1    3    3  501    0 -0.56620387546E+02  0.19107297146E+02  0.63720799525E+02  0.87483640655E+02  0.47000000000E+01 0. -1.
        -13    1    4    4    0    0 -0.60085037540E+01 -0.91842805095E+01 -0.42483379545E+02  0.43878134229E+02  0.00000000000E+00 0.  1.
         14    1    4    4    0    0  0.25062261300E+02  0.51813834021E+02 -0.17250939154E+01  0.57582690858E+02  0.00000000000E+00 0. -1.
         -5    1    5    5    0  502 -0.42226759482E+02 -0.66124394746E+01 -0.10127505741E+02  0.44175558228E+02  0.47000000000E+01 0.  1.
         11    1    6    6    0    0  0.40501090453E+01 -0.39302918831E+02  0.10720847548E+02  0.40939704250E+02  0.00000000000E+00 0. -1.
        -12    1    6    6    0    0  0.75743280437E+02 -0.15821492352E+02  0.10155749237E+03  0.12767649905E+03  0.00000000000E+00 0.  1.
</event>
<event>
12    1  0.1046899E+000  0.2698069E+03  0.7818608E-02  0.1101401E+00
         21   -1    0    0  503  502  0.00000000000E+00  0.00000000000E+00  0.16118012157E+04  0.16118012157E+04  0.00000000000E+00 0. -1.
         21   -1    0    0  501  503 -0.00000000000E+00 -0.00000000000E+00 -0.62377526990E+02  0.62377526990E+02  0.00000000000E+00 0. -1.
          6    2    1    2  501    0  0.20750650273E+03  0.63912424541E+01  0.33474055081E+03  0.42989144340E+03  0.17220807210E+03 0.  0.
         24    2    3    3    0    0  0.11283074977E+03 -0.55826777800E+02  0.23462287584E+03  0.27862935600E+03  0.82091515668E+02 0.  0.
         -6    2    1    2    0  502 -0.20750650273E+03 -0.63912424541E+01  0.12146831379E+04  0.12442872993E+04  0.17232516073E+03 0.  0.
        -24    2    5    5    0    0 -0.10501321578E+03  0.33155064421E+02  0.91955187752E+03  0.92933756503E+03  0.77237429670E+02 0.  0.
          5    1    3    3  501    0  0.94675752962E+02  0.62218020254E+02  0.10011767497E+03  0.15126208740E+03  0.47000000000E+01 0. -1.
        -11    1    4    4    0    0  0.11277092877E+03 -0.33627378417E+02  0.14733171718E+03  0.18855958698E+03  0.00000000000E+00 0.  1.
         12    1    4    4    0    0  0.59821004002E-01 -0.22199399383E+02  0.87291158663E+02  0.90069769025E+02  0.00000000000E+00 0. -1.
         -5    1    5    5    0  502 -0.10249328695E+03 -0.39546306875E+02  0.29513126043E+03  0.31494973430E+03  0.47000000000E+01 0.  1.
         11    1    6    6    0    0 -0.56762272133E+02  0.43229856785E+02  0.32469199950E+03  0.33243897273E+03  0.00000000000E+00 0. -1.
        -12    1    6    6    0    0 -0.48250943645E+02 -0.10074792364E+02  0.59485987802E+03  0.59689859229E+03  0.00000000000E+00 0.  1.
</event>
<event>
12    1  0.1046899E+000  0.2032822E+03  0.7818608E-02  0.1149067E+00
         21   -1    0    0  501  502  0.00000000000E+00  0.00000000000E+00  0.23396102397E+03  0.23396102397E+03  0.00000000000E+00 0.  1.
         21   -1    0    0  502  503 -0.00000000000E+00 -0.00000000000E+00 -0.16829743609E+03  0.16829743609E+03  0.00000000000E+00 0.  1.
         -6    2    1    2    0  503  0.69463107175E+02  0.52816891113E+02  0.36904060729E+02  0.20660480580E+03  0.18359980620E+03 0.  0.
        -24    2    3    3    0    0  0.47555823051E+02  0.98883437890E+02 -0.10279466806E+02  0.13695976936E+03  0.81319249822E+02 0.  0.
          6    2    1    2  501    0 -0.69463107175E+02 -0.52816891113E+02  0.28759527146E+02  0.19565365426E+03  0.17273822616E+03 0.  0.
         24    2    5    5    0    0 -0.21331743597E+02 -0.92459155131E+02 -0.77462934132E+01  0.12324576663E+03  0.78267332125E+02 0.  0.
          5    1    5    5  501    0 -0.48131363579E+02  0.39642264018E+02  0.36505820559E+02  0.72407887631E+02  0.47000000000E+01 0. -1.
        -11    1    6    6    0    0 -0.11507643256E+02 -0.37367185537E+02 -0.42200077438E+02  0.57528940056E+02  0.00000000000E+00 0.  1.
         12    1    6    6    0    0 -0.98241003406E+01 -0.55091969594E+02  0.34453784024E+02  0.65716826573E+02  0.00000000000E+00 0. -1.
         -5    1    3    3    0  503  0.21907284125E+02 -0.46066546777E+02  0.47183527535E+02  0.69645036437E+02  0.47000000000E+01 0.  1.
         11    1    4    4    0    0 -0.15854218397E+02  0.34047257026E+02 -0.24952555615E+02  0.45091041059E+02  0.00000000000E+00 0. -1.
        -12    1    4    4    0    0  0.63410041448E+02  0.64836180863E+02  0.14673088809E+02  0.91868728306E+02  0.00000000000E+00 0.  1.
</event>
<event>
12    1  0.1046899E+000  0.1789271E+03  0.7818608E-02  0.1169016E+00
         21   -1    0    0  501  502  0.00000000000E+00  0.00000000000E+00  0.44979312135E+02  0.44979312135E+02  0.00000000000E+00 0. -1.
         21   -1    0    0  502  503 -0.00000000000E+00 -0.00000000000E+00 -0.70969997956E+03  0.70969997956E+03  0.00000000000E+00 0. -1.
         -6    2    1    2    0  503 -0.30293401609E+02  0.41219866643E+02 -0.32116313432E+03  0.36764204278E+03  0.17145887316E+03 0.  0.
        -24    2    3    3    0    0  0.14463714572E+02 -0.35106399191E+02 -0.12280469993E+03  0.15039320665E+03  0.78073452462E+02 0.  0.
          6    2    1    2  501    0  0.30293401609E+02 -0.41219866643E+02 -0.34355753310E+03  0.38703724891E+03  0.17073161953E+03 0.  0.
         24    2    5    5    0    0  0.53052007831E+02 -0.64574017267E+02 -0.33329828334E+03  0.35253054356E+03  0.78776387460E+02 0.  0.
          5    1    5    5  501    0 -0.22758606222E+02  0.23354150625E+02 -0.10259249756E+02  0.34506705350E+02  0.47000000000E+01 0. -1.
        -13    1    6    6    0    0 -0.35174092200E+01 -0.47037547247E+02 -0.21645068569E+03  0.22153059011E+03  0.00000000000E+00 0.  1.
         14    1    6    6    0    0  0.56569417051E+02 -0.17536470020E+02 -0.11684759765E+03  0.13099995345E+03  0.00000000000E+00 0. -1.
         -5    1    3    3    0  503 -0.44757116180E+02  0.76326265833E+02 -0.19835843439E+03  0.21724883613E+03  0.47000000000E+01 0.  1.
         11    1    4    4    0    0  0.46210570091E+02 -0.17605839435E+02 -0.58745853426E+02  0.76788395381E+02  0.00000000000E+00 0. -1.
        -12    1    4    4    0    0 -0.31746855520E+02 -0.17500559756E+02 -0.64058846503E+02  0.73604811273E+02  0.00000000000E+00 0.  1.
</event>
<event>
12    1  0.1634178E+000  0.4637890E+03  0.7818608E-02  0.1023707E+00
         21   -1    0    0  501  502  0.00000000000E+00  0.00000000000E+00  0.16662024638E+04  0.16662024638E+04  0.00000000000E+00 0. -1.
         21   -1    0    0  502  503 -0.00000000000E+00 -0.00000000000E+00 -0.40728666752E+03  0.40728666752E+03  0.00000000000E+00 0.  1.
         -6    2    1    2    0  503  0.15390345197E+03  0.40197473669E+03  0.14864550865E+04  0.15571284331E+04  0.17271442222E+03 0.  0.
        -24    2    3    3    0    0  0.10379783274E+03  0.15350353401E+03  0.51616866157E+03  0.55426934630E+03  0.80293810673E+02 0.  0.
          6    2    1    2  501    0 -0.15390345197E+03 -0.40197473669E+03 -0.22753929018E+03  0.51636069822E+03  0.17200081577E+03 0.  0.
         24    2    5    5    0    0 -0.16601759790E+03 -0.30121555357E+03 -0.13300522303E+03  0.37758769880E+03  0.81175294334E+02 0.  0.
          5    1    5    5  501    0  0.12114145930E+02 -0.10075918312E+03 -0.94534067154E+02  0.13877299942E+03  0.47000000000E+01 0. -1.
        -13    1    6    6    0    0 -0.61564719557E+02 -0.11620540207E+03 -0.93824180177E+02  0.16154530928E+03  0.00000000000E+00 0.  1.
         14    1    6    6    0    0 -0.10445287835E+03 -0.18501015150E+03 -0.39181042851E+02  0.21604238953E+03  0.00000000000E+00 0. -1.
         -5    1    3    3    0  503  0.50105619230E+02  0.24847120268E+03  0.97028642493E+03  0.10028590868E+04  0.47000000000E+01 0.  1.
         11    1    4    4    0    0  0.60624925111E+02  0.44702112966E+02  0.28978036474E+03  0.29940995347E+03  0.00000000000E+00 0. -1.
        -12    1    4    4    0    0  0.43172907633E+02  0.10880142105E+03  0.22638829682E+03  0.25485939283E+03  0.00000000000E+00 0.  1.
</event>
<event>
12    1  0.1046899E+000  0.2782806E+03  0.7818608E-02  0.1096734E+00
         21   -1    0    0  501  502  0.00000000000E+00  0.00000000000E+00  0.36538284544E+02  0.36538284544E+02  0.00000000000E+00 0. -1.
         21   -1    0    0  502  503 -0.00000000000E+00 -0.00000000000E+00 -0.22192060771E+04  0.22192060771E+04  0.00000000000E+00 0.  1.
         -6    2    1    2    0  503  0.21788168120E+03  0.16579792564E+02 -0.13385444169E+04  0.13671654161E+04  0.17231599598E+03 0.  0.
        -24    2    3    3    0    0  0.29521478545E+02  0.20768060398E+01 -0.29068067932E+03  0.30239764561E+03  0.77931045940E+02 0.  0.
          6    2    1    2  501    0 -0.21788168120E+03 -0.16579792564E+02 -0.84412337566E+03  0.88857894554E+03  0.17111678058E+03 0.  0.
         24    2    5    5    0    0 -0.22637040244E+03  0.64312544488E+01 -0.65103351262E+03  0.69388084107E+03  0.79630816408E+02 0.  0.
          5    1    5    5  501    0  0.84887212434E+01 -0.23011047013E+02 -0.19308986304E+03  0.19469810447E+03  0.47000000000E+01 0. -1.
        -11    1    6    6    0    0 -0.99060660662E+02 -0.36450696921E+02 -0.27384927017E+03  0.29348780310E+03  0.00000000000E+00 0.  1.
         12    1    6    6    0    0 -0.12730974178E+03  0.42881951369E+02 -0.37718424245E+03  0.40039303798E+03  0.00000000000E+00 0. -1.
         -5    1    3    3    0  503  0.18836020265E+03  0.14502986524E+02 -0.10478637376E+04  0.10647677705E+04  0.47000000000E+01 0.  1.
         13    1    4    4    0    0  0.43199671482E+02  0.47108951557E+01 -0.78217928827E+02  0.89478760269E+02  0.00000000000E+00 0. -1.
        -14    1    4    4    0    0 -0.13678192937E+02 -0.26340891159E+01 -0.21246275049E+03  0.21291888534E+03  0.00000000000E+00 0.  1.
</event>
<event>
12    1  0.1046899E+000  0.2760090E+03  0.7818608E-02  0.1098200E+00
         21   -1    0    0  501  502  0.00000000000E+00  0.00000000000E+00  0.67683298150E+02  0.67683298150E+02  0.00000000000E+00 0. -1.
         21   -1    0    0  502  503 -0.00000000000E+00 -0.00000000000E+00 -0.16708767746E+04  0.16708767746E+04  0.00000000000E+00 0. -1.
         -6    2    1    2    0  503  0.19880171346E+03 -0.83435323782E+02 -0.29870721568E+03  0.40519388685E+03  0.16873799428E+03 0.  0.
        -24    2    3    3    0    0  0.28232204370E+02 -0.44877256485E+02 -0.13314522463E+03  0.16433387592E+03  0.80417326620E+02 0.  0.
          6    2    1    2  501    0 -0.19880171346E+03  0.83435323782E+02 -0.13044862608E+04  0.13333661859E+04  0.17232935511E+03 0.  0.
         24    2    5    5    0    0 -0.22104567290E+03  0.91894484375E+02 -0.11732483351E+04  0.11999052019E+04  0.77168982393E+02 0.  0.
          5    1    5    5  501    0  0.22243959438E+02 -0.84591605935E+01 -0.13123792563E+03  0.13346098401E+03  0.47000000000E+01 0. -1.
        -11    1    6    6    0    0 -0.80099666913E+02  0.17496964141E+02 -0.25286498347E+03  0.26582475479E+03  0.00000000000E+00 0.  1.
         12    1    6    6    0    0 -0.14094600598E+03  0.74397520234E+02 -0.92038335167E+03  0.93408044710E+03  0.00000000000E+00 0. -1.
         -5    1    3    3    0  503  0.17056950909E+03 -0.38558067296E+02 -0.16556199105E+03  0.24086001093E+03  0.47000000000E+01 0.  1.
         13    1    4    4    0    0  0.89531134961E+01 -0.61920352779E+02 -0.12024832981E+03  0.13555054095E+03  0.00000000000E+00 0. -1.
        -14    1    4    4    0    0  0.19279090874E+02  0.17043096294E+02 -0.12896894821E+02  0.28783334974E+02  0.00000000000E+00 0.  1.
</event>
<event>
12    1  0.1046899E+000  0.2504533E+03  0.7818608E-02  0.1113135E+00
         21   -1    0    0  503  502  0.00000000000E+00  0.00000000000E+00  0.73188539233E+02  0.73188539233E+02  0.00000000000E+00 0. -1.
         21   -1    0    0  501  503 -0.00000000000E+00 -0.00000000000E+00 -0.94554596833E+03  0.94554596833E+03  0.00000000000E+00 0.  1.
          6    2    1    2  501    0  0.95676048139E+02  0.15445212013E+03 -0.59363013112E+03  0.64401359902E+03  0.17131088569E+03 0.  0.
         24    2    3    3    0    0  0.37220868282E+02  0.33183137841E+02 -0.38020791449E+03  0.39163628890E+03  0.79589012215E+02 0.  0.
         -6    2    1    2    0  502 -0.95676048139E+02 -0.15445212013E+03 -0.27872729798E+03  0.37472090854E+03  0.17238761283E+03 0.  0.
        -24    2    5    5    0    0 -0.10010032001E+03 -0.38232919885E+02 -0.13556478138E+03  0.19021054882E+03  0.79501023273E+02 0.  0.
          5    1    3    3  501    0  0.58455179857E+02  0.12126898229E+03 -0.21342221662E+03  0.25237731013E+03  0.47000000000E+01 0. -1.
        -13    1    4    4    0    0  0.43365740314E+02  0.53180658971E+02 -0.33305897509E+03  0.34005448212E+03  0.00000000000E+00 0.  1.
         14    1    4    4    0    0 -0.61448720323E+01 -0.19997521130E+02 -0.47148939407E+02  0.51581806782E+02  0.00000000000E+00 0. -1.
         -5    1    5    5    0  502  0.44242718677E+01 -0.11621920024E+03 -0.14316251659E+03  0.18451035972E+03  0.47000000000E+01 0.  1.
         13    1    6    6    0    0 -0.26176678637E+02 -0.50441709879E+02 -0.43840435644E+02  0.71774427183E+02  0.00000000000E+00 0. -1.
        -14    1    6    6    0    0 -0.73923641370E+02  0.12208789994E+02 -0.91724345739E+02  0.11843612163E+03  0.00000000000E+00 0.  1.
</event>
<event>
12    1  0.1046899E+000  0.1761518E+03  0.7818608E-02  0.1172060E+00
         21   -1    0    0  501  502  0.00000000000E+00  0.00000000000E+00  0.49781819923E+03  0.49781819923E+03  0.00000000000E+00 0. -1.
         21   -1    0    0  502  503 -0.00000000000E+00 -0.00000000000E+00 -0.62010690570E+02  0.62010690570E+02  0.00000000000E+00 0. -1.
         -6    2    1    2    0  503 -0.23118745318E+02  0.29306278823E+02  0.24029872092E+03  0.29794784554E+03  0.17215141307E+03 0.  0.
        -24    2    3    3    0    0 -0.80295358021E+02  0.88858787017E+01  0.13003950990E+03  0.17199014869E+03  0.78383887060E+02 0.  0.
          6    2    1    2  501    0  0.23118745318E+02 -0.29306278823E+02  0.19550878774E+03  0.26188104426E+03  0.17019007285E+03 0.  0.
         24    2    5    5    0    0 -0.13644955746E+02 -0.71873015194E+02  0.16861725706E+03  0.19936111797E+03  0.77208554244E+02 0.  0.
          5    1    5    5  501    0  0.36763701064E+02  0.42566736371E+02  0.26891530678E+02  0.62519926291E+02  0.47000000000E+01 0. -1.
        -13    1    6    6    0    0  0.91145927582E+01 -0.65495282219E+02  0.16175401475E+03  0.17474858821E+03  0.00000000000E+00 0.  1.
         14    1    6    6    0    0 -0.22759548504E+02 -0.63777329746E+01  0.68632423111E+01  0.24612529757E+02  0.00000000000E+00 0. -1.
         -5    1    3    3    0  503  0.57176612703E+02  0.20420400121E+02  0.11025921102E+03  0.12595769685E+03  0.47000000000E+01 0.  1.
         11    1    4    4    0    0 -0.60137473517E+02  0.38603130433E+02  0.10910400063E+03  0.13042392555E+03  0.00000000000E+00 0. -1.
        -12    1    4    4    0    0 -0.20157884504E+02 -0.29717251732E+02  0.20935509267E+02  0.41566223144E+02  0.00000000000E+00 0.  1.
</event>
<event>
12    1  0.1046899E+000  0.3147216E+03  0.7818608E-02  0.1078452E+00
         21   -1    0    0  501  502  0.00000000000E+00  0.00000000000E+00  0.20097776090E+03  0.20097776090E+03  0.00000000000E+00 0. -1.
         21   -1    0    0  502  503 -0.00000000000E+00 -0.00000000000E+00 -0.75320743107E+03  0.75320743107E+03  0.00000000000E+00 0. -1.
         -6    2    1    2    0  503  0.15824738481E+03  0.20616308898E+03  0.60135358724E+01  0.31477904633E+03  0.17749431354E+03 0.  0.
        -24    2    3    3    0    0  0.11323589006E+02  0.38725038292E+02  0.31489589683E+02  0.90517542925E+02  0.74659085583E+02 0.  0.
          6    2    1    2  501    0 -0.15824738481E+03 -0.20616308898E+03 -0.55824320604E+03  0.63940614564E+03  0.17221872122E+03 0.  0.
         24    2    5    5    0    0 -0.11154912125E+03 -0.14260875911E+03 -0.23756141772E+03  0.30913537790E+03  0.79679295023E+02 0.  0.
          5    1    5    5  501    0 -0.46698263562E+02 -0.63554329874E+02 -0.32068178832E+03  0.33027076774E+03  0.47000000000E+01 0. -1.
        -13    1    6    6    0    0 -0.92732418862E+02 -0.59871256720E+02 -0.15858735053E+03  0.19321960728E+03  0.00000000000E+00 0.  1.
         14    1    6    6    0    0 -0.18816702384E+02 -0.82737502390E+02 -0.78974067194E+02  0.11591577062E+03  0.00000000000E+00 0. -1.
         -5    1    3    3    0  503  0.14692379580E+03  0.16743805069E+03 -0.25476053810E+02  0.22426150341E+03  0.47000000000E+01 0.  1.
         11    1    4    4    0    0  0.25806261870E+02 -0.14566613452E+02  0.11488288857E+02  0.31782544895E+02  0.00000000000E+00 0. -1.
        -12    1    4    4    0    0 -0.14482672864E+02  0.53291651744E+02  0.20001300826E+02  0.58734998030E+02  0.00000000000E+00 0.  1.
</event>
<event>
12    1  0.1046899E+000  0.2430888E+03  0.7818608E-02  0.1117800E+00
         21   -1    0    0  503  502  0.00000000000E+00  0.00000000000E+00  0.45437862478E+02  0.45437862478E+02  0.00000000000E+00 0.  1.
         21   -1    0    0  501  503 -0.00000000000E+00 -0.00000000000E+00 -0.13221620309E+04  0.13221620309E+04  0.00000000000E+00 0.  1.
          6    2    1    2  501    0  0.52358479800E+02 -0.16319788846E+03 -0.54734820262E+03  0.59878168265E+03  0.17197234475E+03 0.  0.
         24    2    3    3    0    0 -0.60972406439E+01 -0.71765246557E+02 -0.13534238677E+03  0.17269732298E+03  0.79494507682E+02 0.  0.
         -6    2    1    2    0  502 -0.52358479800E+02  0.16319788846E+03 -0.72937596584E+03  0.76881821077E+03  0.17238671777E+03 0.  0.
        -24    2    5    5    0    0 -0.35867897782E+02  0.11134024352E+02 -0.30605080483E+03  0.31868307550E+03  0.80506738117E+02 0.  0.
          5    1    3    3  501    0  0.58455720444E+02 -0.91432641898E+02 -0.41200581585E+03  0.42608435967E+03  0.47000000000E+01 0. -1.
        -11    1    4    4    0    0  0.35552421151E+02 -0.23497013638E+02 -0.43501081396E+02  0.60896866769E+02  0.00000000000E+00 0.  1.
         12    1    4    4    0    0 -0.41649661795E+02 -0.48268232919E+02 -0.91841305370E+02  0.11180045621E+03  0.00000000000E+00 0. -1.
         -5    1    5    5    0  502 -0.16490582018E+02  0.15206386410E+03 -0.42332516101E+03  0.45013513527E+03  0.47000000000E+01 0.  1.
         13    1    6    6    0    0 -0.35600175299E+02  0.31325557189E+02 -0.28710083278E+03  0.29099063764E+03  0.00000000000E+00 0. -1.
        -14    1    6    6    0    0 -0.26772248321E+00 -0.20191532836E+02 -0.18949972055E+02  0.27692437857E+02  0.00000000000E+00 0.  1.
</event>
<event>
12    1  0.1046899E+000  0.2329467E+03  0.7818608E-02  0.1125263E+00
         21   -1    0    0  501  502  0.00000000000E+00  0.00000000000E+00  0.92731432539E+03  0.92731432539E+03  0.00000000000E+00 0.  1.
         21   -1    0    0  502  503 -0.00000000000E+00 -0.00000000000E+00 -0.61695860951E+02  0.61695860951E+02  0.00000000000E+00 0.  1.
         -6    2    1    2    0  503  0.11743999056E+03  0.96478720272E+02  0.30112546601E+03  0.37834127174E+03  0.17136299711E+03 0.  0.
        -24    2    3    3    0    0  0.33462001051E+02  0.11331333177E+03  0.19747792503E+03  0.24380276567E+03  0.80514849578E+02 0.  0.
          6    2    1    2  501    0 -0.11743999056E+03 -0.96478720272E+02  0.56449299843E+03  0.61066891460E+03  0.17653295197E+03 0.  0.
         24    2    5    5    0    0 -0.57891010840E+02 -0.59885383534E+02  0.15135652042E+03  0.19163551170E+03  0.82932169721E+02 0.  0.
          5    1    5    5  501    0 -0.59548979721E+02 -0.36593336738E+02  0.41313647801E+03  0.41903340290E+03  0.47000000000E+01 0. -1.
        -13    1    6    6    0    0  0.11413660367E+02 -0.22144101021E+02  0.84855836054E+02  0.88437241960E+02  0.00000000000E+00 0.  1.
         14    1    6    6    0    0 -0.69304671207E+02 -0.37741282513E+02  0.66500684369E+02  0.10319826975E+03  0.00000000000E+00 0. -1.
         -5    1    3    3    0  503  0.83977989511E+02 -0.16834611493E+02  0.10364754097E+03  0.13453850607E+03  0.47000000000E+01 0.  1.
         13    1    4    4    0    0  0.53073271899E+02  0.10970850778E+03  0.15766997037E+03  0.19928007534E+03  0.00000000000E+00 0. -1.
        -14    1    4    4    0    0 -0.19611270848E+02  0.36048239888E+01  0.39807954662E+02  0.44522690335E+02  0.00000000000E+00 0.  1.
</event>
<event>
12    1  0.1046899E+000  0.2482651E+03  0.7818608E-02  0.1114416E+00
         21   -1    0    0  501  502  0.00000000000E+00  0.00000000000E+00  0.69260021564E+03  0.69260021564E+03  0.00000000000E+00 0.  1.
         21   -1    0    0  502  503 -0.00000000000E+00 -0.00000000000E+00 -0.11808247428E+03  0.11808247428E+03  0.00000000000E+00 0.  1.
         -6    2    1    2    0  503 -0.81141657094E+02  0.16071661225E+03  0.86017989824E+02  0.26274445844E+03  0.17094372729E+03 0.  0.
        -24    2    3    3    0    0 -0.80385000984E+02  0.29374274784E+02  0.38591291709E+02  0.12302057418E+03  0.79499543862E+02 0.  0.
          6    2    1    2  501    0  0.81141657094E+02 -0.16071661225E+03  0.48849975153E+03  0.54793823148E+03  0.17085227624E+03 0.  0.
         24    2    5    5    0    0  0.17270009939E+02 -0.96205997660E+01  0.13577786742E+03  0.15890814288E+03  0.80158339620E+02 0.  0.
          5    1    5    5  501    0  0.63871647155E+02 -0.15109601248E+03  0.35272188411E+03  0.38903008859E+03  0.47000000000E+01 0. -1.
        -11    1    6    6    0    0  0.35173552791E+02  0.90759510429E+01  0.22542973499E+02  0.42752045067E+02  0.00000000000E+00 0.  1.
         12    1    6    6    0    0 -0.17903542851E+02 -0.18696550809E+02  0.11323489392E+03  0.11615609782E+03  0.00000000000E+00 0. -1.
         -5    1    3    3    0  503 -0.75665610993E+00  0.13134233746E+03  0.47426698115E+02  0.13972388426E+03  0.47000000000E+01 0.  1.
         11    1    4    4    0    0 -0.85923643884E+02  0.46035854801E+02  0.40084926435E+02  0.10539911685E+03  0.00000000000E+00 0. -1.
        -12    1    4    4    0    0  0.55386429002E+01 -0.16661580017E+02 -0.14936347258E+01  0.17621457332E+02  0.00000000000E+00 0.  1.
</event>
<event>
12    1  0.1046899E+000  0.2254788E+03  0.7818608E-02  0.1129924E+00
         21   -1    0    0  501  502  0.00000000000E+00  0.00000000000E+00  0.80739193146E+02  0.80739193146E+02  0.00000000000E+00 0. -1.
         21   -1    0    0  502  503 -0.00000000000E+00 -0.00000000000E+00 -0.14523418653E+04  0.14523418653E+04  0.00000000000E+00 0. -1.
         -6    2    1    2    0  503  0.44363010003E+02  0.13869274536E+03 -0.10878198172E+03  0.25034821457E+03  0.17215386931E+03 0.  0.
        -24    2    3    3    0    0 -0.12819176267E+00  0.12424966569E+03 -0.13507367555E+03  0.19648345105E+03  0.70163044758E+02 0.  0.
          6    2    1    2  501    0 -0.44363010003E+02 -0.13869274536E+03 -0.12628206905E+04  0.12827328439E+04  0.17170817773E+03 0.  0.
         24    2    5    5    0    0 -0.69274785206E+02 -0.48406602263E+02 -0.47018103536E+03  0.48456500628E+03  0.81184014991E+02 0.  0.
          5    1    5    5  501    0  0.24911775203E+02 -0.90286143093E+02 -0.79263965512E+03  0.79816783764E+03  0.47000000000E+01 0. -1.
        -11    1    6    6    0    0 -0.33559543450E+02 -0.60738832386E+02 -0.19873598522E+03  0.21050282786E+03  0.00000000000E+00 0.  1.
         12    1    6    6    0    0 -0.35715241756E+02  0.12332230123E+02 -0.27144505014E+03  0.27406217842E+03  0.00000000000E+00 0. -1.
         -5    1    3    3    0  503  0.44491201766E+02  0.14443079662E+02  0.26291693833E+02  0.53864763522E+02  0.47000000000E+01 0.  1.
         13    1    4    4    0    0  0.29670032521E+02  0.24228263646E+02 -0.34814304546E+02  0.51762490185E+02  0.00000000000E+00 0. -1.
        -14    1    4    4    0    0 -0.29798224284E+02  0.10002140205E+03 -0.10025937101E+03  0.14472096086E+03  0.00000000000E+00 0.  1.
</event>
<event>
12    1  0.1046899E+000  0.1855448E+03  0.7818608E-02  0.1163228E+00
         21   -1    0    0  501  502  0.00000000000E+00  0.00000000000E+00  0.35391553017E+03  0.35391553017E+03  0.00000000000E+00 0. -1.
         21   -1    0    0  502  503 -0.00000000000E+00 -0.00000000000E+00 -0.10400836005E+03  0.10400836005E+03  0.00000000000E+00 0. -1.
         -6    2    1    2    0  503 -0.62149856011E+02 -0.12098492746E+02  0.59510952684E+02  0.19207133006E+03  0.17129175173E+03 0.  0.
        -24    2    3    3    0    0 -0.10816345296E+03 -0.12036388445E+01  0.42208480162E+02  0.14150044415E+03  0.80870505098E+02 0.  0.
          6    2    1    2  501    0  0.62149856011E+02  0.12098492746E+02  0.19039621744E+03  0.26585256016E+03  0.17440724182E+03 0.  0.
         24    2    5    5    0    0  0.26714326774E+02 -0.57848112559E+02  0.77312076686E+02  0.12816335501E+03  0.79928899552E+02 0.  0.
          5    1    5    5  501    0  0.35435529237E+02  0.69946605305E+02  0.11308414075E+03  0.13768920515E+03  0.47000000000E+01 0. -1.
        -13    1    6    6    0    0  0.28850692083E+02  0.11873304793E+02  0.33568876457E+02  0.45828018362E+02  0.00000000000E+00 0.  1.
         14    1    6    6    0    0 -0.21363653092E+01 -0.69721417352E+02  0.43743200229E+02  0.82335336646E+02  0.00000000000E+00 0. -1.
         -5    1    3    3    0  503  0.46013596951E+02 -0.10894853901E+02  0.17302472522E+02  0.50570885906E+02  0.47000000000E+01 0.  1.
         11    1    4    4    0    0 -0.46665588415E+01  0.21809634340E+02  0.25981225482E+02  0.34241217838E+02  0.00000000000E+00 0. -1.
        -12    1    4    4    0    0 -0.10349689412E+03 -0.23013273184E+02  0.16227254680E+02  0.10725922632E+03  0.00000000000E+00 0.  1.
</event>
<event>
12    1  0.1046899E+000  0.1946645E+03  0.7818608E-02  0.1155452E+00
         21   -1    0    0  503  502  0.00000000000E+00  0.00000000000E+00  0.49397967794E+02  0.49397967794E+02  0.00000000000E+00 0.  1.
         21   -1    0    0  501  503 -0.00000000000E+00 -0.00000000000E+00 -0.75926494634E+03  0.75926494634E+03  0.00000000000E+00 0.  1.
          6    2    1    2  501    0 -0.24733117491E+02 -0.87066391110E+02 -0.40139776777E+03  0.44390610335E+03  0.16655382629E+03 0.  0.
         24    2    3    3    0    0 -0.60084946834E+02 -0.43566951291E+02 -0.36003735077E+03  0.37408685673E+03  0.69323894530E+02 0.  0.
         -6    2    1    2    0  502  0.24733117491E+02  0.87066391110E+02 -0.30846921078E+03  0.36475681079E+03  0.17234266291E+03 0.  0.
        -24    2    5    5    0    0  0.32736974182E+02  0.12208188115E+03 -0.17957176106E+03  0.23086585214E+03  0.71255379673E+02 0.  0.
          5    1    3    3  501    0  0.35351829343E+02 -0.43499439820E+02 -0.41360417005E+02  0.69819246611E+02  0.47000000000E+01 0. -1.
        -11    1    4    4    0    0  0.12796073753E+02 -0.35688592189E+00 -0.20755026418E+02  0.24385200279E+02  0.00000000000E+00 0.  1.
         12    1    4    4    0    0 -0.72881020588E+02 -0.43210065369E+02 -0.33928232435E+03  0.34970165645E+03  0.00000000000E+00 0. -1.
         -5    1    5    5    0  502 -0.80038566909E+01 -0.35015490036E+02 -0.12889744972E+03  0.13389095865E+03  0.47000000000E+01 0.  1.
         11    1    6    6    0    0 -0.24927212550E+01  0.61536782782E+02 -0.36563273646E+02  0.71623056861E+02  0.00000000000E+00 0. -1.
        -12    1    6    6    0    0  0.35229695437E+02  0.60545098364E+02 -0.14300848741E+03  0.15924279528E+03  0.00000000000E+00 0.  1.
</event>
<event>
12    1  0.1046899E+000  0.2702128E+03  0.7818608E-02  0.1101168E+00
         21   -1    0    0  501  502  0.00000000000E+00  0.00000000000E+00  0.11430226454E+04  0.11430226454E+04  0.00000000000E+00 0.  1.
         21   -1    0    0  502  503 -0.00000000000E+00 -0.00000000000E+00 -0.18796192990E+03  0.18796192990E+03  0.00000000000E+00 0. -1.
         -6    2    1    2    0  503 -0.18592572260E+03  0.94586274513E+02  0.10182986086E+04  0.10535402210E+04  0.17175565041E+03 0.  0.
        -24    2    3    3    0    0 -0.10906446301E+03  0.24792958616E+02  0.33077148604E+03  0.35820260923E+03  0.79934882176E+02 0.  0.
          6    2    1    2  501    0  0.18592572260E+03 -0.94586274513E+02 -0.63237893052E+02  0.27744435429E+03  0.17164323744E+03 0.  0.
         24    2    5    5    0    0  0.10148050971E+03 -0.12000717241E+03 -0.73957185248E+02  0.18848251272E+03  0.73184541200E+02 0.  0.
          5    1    5    5  501    0  0.84445212891E+02  0.25420897899E+02  0.10719292196E+02  0.88961841569E+02  0.47000000000E+01 0. -1.
        -11    1    6    6    0    0  0.10842491270E+03 -0.10899195705E+03 -0.50795974390E+02  0.16191182604E+03  0.00000000000E+00 0.  1.
         12    1    6    6    0    0 -0.69444029945E+01 -0.11015215359E+02 -0.23161210858E+02  0.26570686682E+02  0.00000000000E+00 0. -1.
         -5    1    3    3    0  503 -0.76861259586E+02  0.69793315897E+02  0.68752712254E+03  0.69533761181E+03  0.47000000000E+01 0.  1.
         11    1    4    4    0    0 -0.11560378161E+03  0.38580276243E+02  0.30131378609E+03  0.32502718306E+03  0.00000000000E+00 0. -1.
        -12    1    4    4    0    0  0.65393185973E+01 -0.13787317627E+02  0.29457699948E+02  0.33175426166E+02  0.00000000000E+00 0.  1.
</event>
<event>
12    1  0.1046899E+000  0.2144288E+03  0.7818608E-02  0.1138364E+00
         21   -1    0    0  503  502  0.00000000000E+00  0.00000000000E+00  0.29124077355E+03  0.29124077355E+03  0.00000000000E+00 0.  1.
         21   -1    0    0  501  503 -0.00000000000E+00 -0.00000000000E+00 -0.17802222174E+03  0.17802222174E+03  0.00000000000E+00 0.  1.
          6    2    1    2  501    0 -0.13963504110E+02 -0.12495295266E+03  0.13759485306E+03  0.25477845958E+03  0.17369945322E+03 0.  0.
         24    2    3    3    0    0 -0.37347011287E+02 -0.44347457507E+02  0.51345969042E+01  0.97896836310E+02  0.78714231463E+02 0.  0.
         -6    2    1    2    0  502  0.13963504110E+02  0.12495295266E+03 -0.24376301252E+02  0.21448453571E+03  0.17204996998E+03 0.  0.
        -24    2    5    5    0    0 -0.29687721700E+02  0.75131929729E+02 -0.59898856959E+02  0.13917513520E+03  0.96206431748E+02 0.  0.
          5    1    3    3  501    0  0.23383507177E+02 -0.80605495153E+02  0.13246025616E+03  0.15688162327E+03  0.47000000000E+01 0. -1.
        -13    1    4    4    0    0  0.11063229658E+02  0.15797273514E+02 -0.52668503803E+01  0.19992213831E+02  0.00000000000E+00 0.  1.
         14    1    4    4    0    0 -0.48410240945E+02 -0.60144731021E+02  0.10401447284E+02  0.77904622479E+02  0.00000000000E+00 0. -1.
         -5    1    5    5    0  502  0.43651225810E+02  0.49821022931E+02  0.35522555706E+02  0.75309400506E+02  0.47000000000E+01 0.  1.
         13    1    6    6    0    0  0.82704639840E+01  0.85761155997E+02 -0.42882321644E+02  0.96240687664E+02  0.00000000000E+00 0. -1.
        -14    1    6    6    0    0 -0.37958185684E+02 -0.10629226268E+02 -0.17016535315E+02  0.42934447540E+02  0.00000000000E+00 0.  1.
</event>
<event>
12    1  0.1046899E+000  0.3314317E+03  0.7818608E-02  0.1070567E+00
         21   -1    0    0  503  502  0.00000000000E+00  0.00000000000E+00  0.72216543981E+03  0.72216543981E+03  0.00000000000E+00 0.  1.
         21   -1    0    0  501  503 -0.00000000000E+00 -0.00000000000E+00 -0.15230671606E+03  0.15230671606E+03  0.00000000000E+00 0.  1.
          6    2    1    2  501    0 -0.13020160324E+03  0.25086406275E+03  0.30860401676E+03  0.45245202108E+03  0.17202080325E+03 0.  0.
         24    2    3    3    0    0 -0.18410974484E+02  0.11358491642E+03  0.72672758488E+02  0.15744633075E+03  0.79167670302E+02 0.  0.
         -6    2    1    2    0  502  0.13020160324E+03 -0.25086406275E+03  0.26125470699E+03  0.42202013480E+03  0.17309458913E+03 0.  0.
        -24    2    5    5    0    0  0.13256867995E+03 -0.24951158092E+03  0.18761030304E+03  0.34817556497E+03  0.78728103770E+02 0.  0.
          5    1    3    3  501    0 -0.11179062876E+03  0.13727914633E+03  0.23593125827E+03  0.29500569032E+03  0.47000000000E+01 0. -1.
        -11    1    4    4    0    0 -0.12405211891E+02 -0.39007935506E+01 -0.75690955251E+01  0.15046483956E+02  0.00000000000E+00 0.  1.
         12    1    4    4    0    0 -0.60057625930E+01  0.11748570997E+03  0.80241854013E+02  0.14239984680E+03  0.00000000000E+00 0. -1.
         -5    1    5    5    0  502 -0.23670767123E+01 -0.13524818322E+01  0.73644403953E+02  0.73844569826E+02  0.47000000000E+01 0.  1.
         11    1    6    6    0    0  0.97951942888E+02 -0.11550016756E+03  0.12453390644E+03  0.19607030799E+03  0.00000000000E+00 0. -1.
        -12    1    6    6    0    0  0.34616737063E+02 -0.13401141335E+03  0.63076396601E+02  0.15210525698E+03  0.00000000000E+00 0.  1.
</event>
<event>
12    1  0.1046899E+000  0.2720486E+03  0.7818608E-02  0.1100464E+00
         21   -1    0    0  503  502  0.00000000000E+00  0.00000000000E+00  0.12024785962E+04  0.12024785962E+04  0.00000000000E+00 0.  1.
         21   -1    0    0  501  503 -0.00000000000E+00 -0.00000000000E+00 -0.83512355483E+02  0.83512355483E+02  0.00000000000E+00 0. -1.
          6    2    1    2  501    0  0.46483637178E+02 -0.20434747534E+03  0.22744020640E+03  0.35459766233E+03  0.17346998427E+03 0.  0.
         24    2    3    3    0    0  0.76088137113E+02 -0.96967765390E+02  0.71987114048E+02  0.16330055716E+03  0.79327014606E+02 0.  0.
         -6    2    1    2    0  502 -0.46483637178E+02  0.20434747534E+03  0.89152603434E+03  0.93139328937E+03  0.16957644406E+03 0.  0.
        -24    2    5    5    0    0 -0.56199732448E+02  0.19148911518E+03  0.58502874171E+03  0.62443658180E+03  0.88520759746E+02 0.  0.
          5    1    3    3  501    0 -0.29604499935E+02 -0.10737970995E+03  0.15545309235E+03  0.19129710517E+03  0.47000000000E+01 0. -1.
        -13    1    4    4    0    0  0.92992413570E+02 -0.83055452131E+02  0.61498492670E+02  0.13902468022E+03  0.00000000000E+00 0.  1.
         14    1    4    4    0    0 -0.16904276457E+02 -0.13912313259E+02  0.10488621378E+02  0.24275876939E+02  0.00000000000E+00 0. -1.
         -5    1    5    5    0  502  0.97160952699E+01  0.12858360159E+02  0.30649729263E+03  0.30695670757E+03  0.47000000000E+01 0.  1.
         11    1    6    6    0    0 -0.21640218360E+02  0.55662893402E+02  0.77092318024E+02  0.97518625149E+02  0.00000000000E+00 0. -1.
        -12    1    6    6    0    0 -0.34559514088E+02  0.13582622178E+03  0.50793642369E+03  0.52691795666E+03  0.00000000000E+00 0.  1.
</event>
<event>
12    1  0.1046899E+000  0.1967471E+03  0.7818608E-02  0.1152593E+00
         21   -1    0    0  503  502  0.00000000000E+00  0.00000000000E+00  0.21792931312E+03  0.21792931312E+03  0.00000000000E+00 0. -1.
         21   -1    0    0  501  503 -0.00000000000E+00 -0.00000000000E+00 -0.55447421196E+03  0.55447421196E+03  0.00000000000E+00 0. -1.
          6    2    1    2  501    0  0.59636668664E+02  0.65394934199E+02 -0.48685362138E+03  0.52510558581E+03  0.17571681174E+03 0.  0.
         24    2    3    3    0    0  0.77004712847E+02  0.89736496749E+02 -0.21714955448E+03  0.25370821233E+03  0.56846841116E+02 0.  0.
         -6    2    1    2    0  502 -0.59636668664E+02 -0.65394934199E+02  0.15030872254E+03  0.24729793927E+03  0.17530125221E+03 0.  0.
        -24    2    5    5    0    0 -0.71410813483E+01 -0.82925251253E+02  0.37644889361E+02  0.12168612450E+03  0.80391435255E+02 0.  0.
          5    1    3    3  501    0 -0.17368044184E+02 -0.24341562551E+02 -0.26970406690E+03  0.27139737348E+03  0.47000000000E+01 0. -1.
        -11    1    4    4    0    0  0.58162137469E+02  0.82856965670E+02 -0.20867180381E+03  0.23193109473E+03  0.00000000000E+00 0.  1.
         12    1    4    4    0    0  0.18842575378E+02  0.68795310797E+01 -0.84777506635E+01  0.21777117603E+02  0.00000000000E+00 0. -1.
         -5    1    5    5    0  502 -0.52495587315E+02  0.17530317054E+02  0.11266383318E+03  0.12561181477E+03  0.47000000000E+01 0.  1.
         13    1    6    6    0    0  0.28910465464E+02 -0.59523165792E+02  0.42170194884E+02  0.78467494007E+02  0.00000000000E+00 0. -1.
        -14    1    6    6    0    0 -0.36051546812E+02 -0.23402085461E+02 -0.45253055233E+01  0.43218630492E+02  0.00000000000E+00 0.  1.
</event>
<event>
12    1  0.1046899E+000  0.2078777E+03  0.7818608E-02  0.1143452E+00
         21   -1    0    0  501  502  0.00000000000E+00  0.00000000000E+00  0.41071241411E+02  0.41071241411E+02  0.00000000000E+00 0. -1.
         21   -1    0    0  502  503 -0.00000000000E+00 -0.00000000000E+00 -0.11485489893E+04  0.11485489893E+04  0.00000000000E+00 0. -1.
         -6    2    1    2    0  503 -0.58957975598E+02  0.10086184916E+03 -0.72919886574E+03  0.75798606699E+03  0.17077100589E+03 0.  0.
        -24    2    3    3    0    0 -0.68730278362E+02  0.94697162975E+02 -0.35026266195E+03  0.37884461871E+03  0.84545306987E+02 0.  0.
          6    2    1    2  501    0  0.58957975598E+02 -0.10086184916E+03 -0.37827888216E+03  0.43163416374E+03  0.17194180152E+03 0.  0.
         24    2    5    5    0    0  0.35305604652E+02  0.15417817203E+02 -0.18730560267E+03  0.20674912880E+03  0.78597828586E+02 0.  0.
          5    1    5    5  501    0  0.23652370947E+02 -0.11627966636E+03 -0.19097327949E+03  0.22488503494E+03  0.47000000000E+01 0. -1.
        -13    1    6    6    0    0  0.35236673759E+01 -0.19659997826E+02 -0.83657275846E+01  0.21654494783E+02  0.00000000000E+00 0.  1.
         14    1    6    6    0    0  0.31781937276E+02  0.35077815028E+02 -0.17893987509E+03  0.18509463402E+03  0.00000000000E+00 0. -1.
         -5    1    3    3    0  503  0.97723027633E+01  0.61646861836E+01 -0.37893620379E+03  0.37914144828E+03  0.47000000000E+01 0.  1.
         13    1    4    4    0    0 -0.43412329010E+02  0.20628219609E+02 -0.23266330804E+03  0.23757602712E+03  0.00000000000E+00 0. -1.
        -14    1    4    4    0    0 -0.25317949352E+02  0.74068943366E+02 -0.11759935391E+03  0.14126859159E+03  0.00000000000E+00 0.  1.
</event>
<event>
12    1  0.1046899E+000  0.1744132E+03  0.7818608E-02  0.1173352E+00
         21   -1    0    0  503  502  0.00000000000E+00  0.00000000000E+00  0.34763417676E+03  0.34763417676E+03  0.00000000000E+00 0. -1.
         21   -1    0    0  501  503 -0.00000000000E+00 -0.00000000000E+00 -0.29095590855E+03  0.29095590855E+03  0.00000000000E+00 0. -1.
          6    2    1    2  501    0 -0.69859052703E+01 -0.31613110438E+02  0.29537810280E+03  0.34302795554E+03  0.17138192158E+03 0.  0.
         24    2    3    3    0    0  0.36585691461E+01  0.35562974697E+01  0.29499130502E+03  0.30598161023E+03  0.81110069573E+02 0.  0.
         -6    2    1    2    0  502  0.69859052703E+01  0.31613110438E+02 -0.23869983459E+03  0.29556212977E+03  0.17126345173E+03 0.  0.
        -24    2    5    5    0    0 -0.14486797527E+02 -0.49501118414E+02 -0.12429726128E+03  0.15360920142E+03  0.74065846198E+02 0.  0.
          5    1    3    3  501    0 -0.10644474416E+02 -0.35169407908E+02  0.38679778774E+00  0.37046345309E+02  0.47000000000E+01 0. -1.
        -13    1    4    4    0    0  0.21947818259E+02 -0.15737932349E+02  0.32989355030E+02  0.42634338112E+02  0.00000000000E+00 0.  1.
         14    1    4    4    0    0 -0.18289249113E+02  0.19294229819E+02  0.26200194999E+03  0.26334727212E+03  0.00000000000E+00 0. -1.
         -5    1    5    5    0  502  0.21472702797E+02  0.81114228852E+02 -0.11440257331E+03  0.14195292835E+03  0.47000000000E+01 0.  1.
         11    1    6    6    0    0  0.19362296816E+02 -0.27945286077E+02 -0.14966334773E+02  0.37146045933E+02  0.00000000000E+00 0. -1.
        -12    1    6    6    0    0 -0.33849094343E+02 -0.21555832337E+02 -0.10933092651E+03  0.11646315549E+03  0.00000000000E+00 0.  1.
</event>
<event>
12    1  0.1046899E+000  0.2127412E+03  0.7818608E-02  0.1139503E+00
         21   -1    0    0  503  502  0.00000000000E+00  0.00000000000E+00  0.30979823249E+03  0.30979823249E+03  0.00000000000E+00 0.  1.
         21   -1    0    0  501  503 -0.00000000000E+00 -0.00000000000E+00 -0.19692629522E+03  0.19692629522E+03  0.00000000000E+00 0.  1.
          6    2    1    2  501    0  0.10309403657E+03  0.67180911813E+02 -0.72644397215E+02  0.22480215863E+03  0.17354292492E+03 0.  0.
         24    2    3    3    0    0  0.92919133973E+02  0.53007370797E+02 -0.11684173483E+03  0.17705372871E+03  0.79071392001E+02 0.  0.
         -6    2    1    2    0  502 -0.10309403657E+03 -0.67180911813E+02  0.18551633449E+03  0.28192236908E+03  0.17298050913E+03 0.  0.
        -24    2    5    5    0    0 -0.10342063534E+03  0.79616035562E+01  0.85738622812E+02  0.15692562500E+03  0.80717565596E+02 0.  0.
          5    1    3    3  501    0  0.10174902597E+02  0.14173541016E+02  0.44197337618E+02  0.47748429925E+02  0.47000000000E+01 0. -1.
        -13    1    4    4    0    0  0.52771549843E+02  0.64775345948E+02 -0.47611661414E+02  0.96164194055E+02  0.00000000000E+00 0.  1.
         14    1    4    4    0    0  0.40147584129E+02 -0.11767975151E+02 -0.69230073418E+02  0.80889534651E+02  0.00000000000E+00 0. -1.
         -5    1    5    5    0  502  0.32659876986E+00 -0.75142515369E+02  0.99777711675E+02  0.12499674408E+03  0.47000000000E+01 0.  1.
         13    1    6    6    0    0 -0.81447167389E+02  0.27391407754E+02  0.93089347940E+02  0.12668684618E+03  0.00000000000E+00 0. -1.
        -14    1    6    6    0    0 -0.21973467951E+02 -0.19429804198E+02 -0.73507251287E+01  0.30238778826E+02  0.00000000000E+00 0.  1.
</event>
<event>
12    1  0.1046899E+000  0.2122201E+03  0.7818608E-02  0.1140101E+00
         21   -1    0    0  501  502  0.00000000000E+00  0.00000000000E+00  0.11088122994E+03  0.11088122994E+03  0.00000000000E+00 0.  1.
         21   -1    0    0  502  503 -0.00000000000E+00 -0.00000000000E+00 -0.40475330422E+03  0.40475330422E+03  0.00000000000E+00 0.  1.
         -6    2    1    2    0  503  0.84248608951E+02  0.87535502579E+02 -0.13172630660E+03  0.24856035426E+03  0.17225021782E+03 0.  0.
        -24    2    3    3    0    0  0.96036550449E+01  0.41354763862E+02  0.45678070488E+01  0.86379266624E+02  0.75087057187E+02 0.  0.
          6    2    1    2  501    0 -0.84248608951E+02 -0.87535502579E+02 -0.16214576768E+03  0.26707417990E+03  0.17400308982E+03 0.  0.
         24    2    5    5    0    0 -0.51281751833E+02 -0.17357293994E+02 -0.15112103501E+03  0.18861763550E+03  0.99035102230E+02 0.  0.
          5    1    5    5  501    0 -0.32966857118E+02 -0.70178208584E+02 -0.11024732676E+02  0.78456544398E+02  0.47000000000E+01 0. -1.
        -11    1    6    6    0    0  0.11420106020E+02 -0.13609200120E+02  0.65187681203E+01  0.18924150898E+02  0.00000000000E+00 0.  1.
         12    1    6    6    0    0 -0.62701857853E+02 -0.37480938745E+01 -0.15763980313E+03  0.16969348460E+03  0.00000000000E+00 0. -1.
         -5    1    3    3    0  503  0.74644953906E+02  0.46180738717E+02 -0.13629411365E+03  0.16218108764E+03  0.47000000000E+01 0.  1.
         11    1    4    4    0    0 -0.13687913662E+02 -0.17433945642E+02  0.65525245270E+01  0.23113567850E+02  0.00000000000E+00 0. -1.
        -12    1    4    4    0    0  0.23291568707E+02  0.58788709504E+02 -0.19847174782E+01  0.63265698774E+02  0.00000000000E+00 0.  1.
</event>
<event>
12    1  0.1046899E+000  0.2253036E+03  0.7818608E-02  0.1130326E+00
         21   -1    0    0  501  502  0.00000000000E+00  0.00000000000E+00  0.65997648821E+02  0.65997648821E+02  0.00000000000E+00 0.  1.
         21   -1    0    0  502  503 -0.00000000000E+00 -0.00000000000E+00 -0.23111433353E+04  0.23111433353E+04  0.00000000000E+00 0.  1.
         -6    2    1    2    0  503 -0.52928987066E+02  0.13389364090E+03 -0.20938791502E+04  0.21057680487E+04  0.17088064345E+03 0.  0.
        -24    2    3    3    0    0  0.17765301622E+02  0.10236456818E+03 -0.16485712951E+04  0.16537581586E+04  0.79590334641E+02 0.  0.
          6    2    1    2  501    0  0.52928987066E+02 -0.13389364090E+03 -0.15126653623E+03  0.27137293543E+03  0.17329951055E+03 0.  0.
         24    2    5    5    0    0  0.68217253431E+02 -0.42535254783E+02 -0.27580909666E+02  0.11677568442E+03  0.80081285754E+02 0.  0.
          5    1    5    5  501    0 -0.15288266365E+02 -0.91358386113E+02 -0.12368562656E+03  0.15459725101E+03  0.47000000000E+01 0. -1.
        -11    1    6    6    0    0 -0.13614803887E+02  0.86911494752E+01  0.72385444569E+00  0.16168578458E+02  0.00000000000E+00 0.  1.
         12    1    6    6    0    0  0.81832057318E+02 -0.51226404258E+02 -0.28304764112E+02  0.10060710596E+03  0.00000000000E+00 0. -1.
         -5    1    3    3    0  503 -0.70694288688E+02  0.31529072717E+02 -0.44530785513E+03  0.45200989007E+03  0.47000000000E+01 0.  1.
         11    1    4    4    0    0  0.13534039231E+01  0.34174154083E+02 -0.11238279837E+04  0.11243482741E+04  0.00000000000E+00 0. -1.
        -12    1    4    4    0    0  0.16411897699E+02  0.68190414096E+02 -0.52474331139E+03  0.52940988450E+03  0.00000000000E+00 0.  1.
</event>
<event>
12    1  0.1046899E+000  0.2823425E+03  0.7818608E-02  0.1094463E+00
         21   -1    0    0  501  502  0.00000000000E+00  0.00000000000E+00  0.15437562215E+03  0.15437562215E+03  0.00000000000E+00 0.  1.
         21   -1    0    0  502  503 -0.00000000000E+00 -0.00000000000E+00 -0.71241698810E+03  0.71241698810E+03  0.00000000000E+00 0.  1.
         -6    2    1    2    0  503 -0.11898832475E+03  0.18973918106E+03 -0.50660547290E+03  0.57980315436E+03  0.17135756296E+03 0.  0.
        -24    2    3    3    0    0 -0.11383203422E+03  0.21235281414E+03 -0.48627276867E+03  0.54860263202E+03  0.80325541536E+02 0.  0.
          6    2    1    2  501    0  0.11898832475E+03 -0.18973918106E+03 -0.51435893057E+02  0.28698945589E+03  0.17192474646E+03 0.  0.
         24    2    5    5    0    0  0.10067254431E+02 -0.68542746202E+02  0.19169263148E+02  0.10933936874E+03  0.82390407447E+02 0.  0.
          5    1    5    5  501    0  0.10892107032E+03 -0.12119643486E+03 -0.70605156206E+02  0.17765008715E+03  0.47000000000E+01 0. -1.
        -13    1    6    6    0    0  0.11794604400E+02 -0.75380472660E+02 -0.12129594353E+02  0.77255779140E+02  0.00000000000E+00 0.  1.
         14    1    6    6    0    0 -0.17273499690E+01  0.68377264580E+01  0.31298857502E+02  0.32083589605E+02  0.00000000000E+00 0. -1.
         -5    1    3    3    0  503 -0.51562905281E+01 -0.22613633082E+02 -0.20332704229E+02  0.31200522342E+02  0.47000000000E+01 0.  1.
         13    1    4    4    0    0 -0.39446011992E+02  0.11043315470E+03 -0.31307944445E+03  0.33432051695E+03  0.00000000000E+00 0. -1.
        -14    1    4    4    0    0 -0.74386022228E+02  0.10191965944E+03 -0.17319332422E+03  0.21428211507E+03  0.00000000000E+00 0.  1.
</event>
<event>
12    1  0.1046899E+000  0.2360465E+03  0.7818608E-02  0.1122988E+00
         21   -1    0    0  501  502  0.00000000000E+00  0.00000000000E+00  0.27475468643E+03  0.27475468643E+03  0.00000000000E+00 0.  1.
         21   -1    0    0  502  503 -0.00000000000E+00 -0.00000000000E+00 -0.21319604686E+03  0.21319604686E+03  0.00000000000E+00 0.  1.
         -6    2    1    2    0  503  0.25144322424E+02  0.15613963338E+03  0.91375544857E+02  0.25311551415E+03  0.17523170730E+03 0.  0.
        -24    2    3    3    0    0  0.34171359749E+02  0.14653263480E+03  0.10472754346E+02  0.17101110905E+03  0.80595446190E+02 0.  0.
          6    2    1    2  501    0 -0.25144322424E+02 -0.15613963338E+03 -0.29816905281E+02  0.23483521914E+03  0.17101669580E+03 0.  0.
         24    2    5    5    0    0 -0.72694319412E+02 -0.76137290508E+02  0.11246199427E+02  0.13300376208E+03  0.80511941004E+02 0.  0.
          5    1    5    5  501    0  0.47549996988E+02 -0.80002342874E+02 -0.41063104708E+02  0.10183145706E+03  0.47000000000E+01 0. -1.
        -13    1    6    6    0    0 -0.32489493030E+02 -0.16996290848E+02 -0.32647347401E+02  0.49094707986E+02  0.00000000000E+00 0.  1.
         14    1    6    6    0    0 -0.40204826382E+02 -0.59140999660E+02  0.43893546828E+02  0.83909054090E+02  0.00000000000E+00 0. -1.
         -5    1    3    3    0  503 -0.90270373244E+01  0.96069985817E+01  0.80902790511E+02  0.82104405101E+02  0.47000000000E+01 0.  1.
         11    1    4    4    0    0  0.33388369661E+02  0.11507169090E+03  0.41515689873E+02  0.12680626870E+03  0.00000000000E+00 0. -1.
        -12    1    4    4    0    0  0.78299008768E+00  0.31460943899E+02 -0.31042935527E+02  0.44204840353E+02  0.00000000000E+00 0.  1.
</event>
<event>
12    1  0.1046899E+000  0.1752554E+03  0.7818608E-02  0.1172789E+00
         21   -1    0    0  503  502  0.00000000000E+00  0.00000000000E+00  0.12217711381E+04  0.12217711381E+04  0.00000000000E+00 0. -1.
         21   -1    0    0  501  503 -0.00000000000E+00 -0.00000000000E+00 -0.28641729256E+02  0.28641729256E+02  0.00000000000E+00 0. -1.
          6    2    1    2  501    0 -0.65756926653E+01 -0.18889172501E+02  0.37057511191E+03  0.40939560193E+03  0.17285486612E+03 0.  0.
         24    2    3    3    0    0  0.42939683031E+02  0.37830351146E+02  0.21206851617E+03  0.23385270778E+03  0.80243887868E+02 0.  0.
         -6    2    1    2    0  502  0.65756926653E+01  0.18889172501E+02  0.82255429693E+03  0.84101726542E+03  0.17411039247E+03 0.  0.
        -24    2    5    5    0    0  0.30365895689E+02 -0.46822871139E+02  0.35443509698E+03  0.36768680813E+03  0.80342280388E+02 0.  0.
          5    1    3    3  501    0 -0.49515375696E+02 -0.56719523647E+02  0.15850659574E+03  0.17554289415E+03  0.47000000000E+01 0. -1.
        -11    1    4    4    0    0  0.35644978728E+02 -0.16633679279E+02  0.56332673384E+02  0.68706723729E+02  0.00000000000E+00 0.  1.
         12    1    4    4    0    0  0.72947043024E+01  0.54464030425E+02  0.15573584279E+03  0.16514598405E+03  0.00000000000E+00 0. -1.
         -5    1    5    5    0  502 -0.23790203024E+02  0.65712043640E+02  0.46811919995E+03  0.47333045729E+03  0.47000000000E+01 0.  1.
         11    1    6    6    0    0  0.52160523608E+02 -0.52331676960E+02  0.24207802345E+03  0.25310293178E+03  0.00000000000E+00 0. -1.
        -12    1    6    6    0    0 -0.21794627918E+02  0.55088058207E+01  0.11235707353E+03  0.11458387635E+03  0.00000000000E+00 0.  1.
</event>
<event>
12    1  0.1046899E+000  0.2128334E+03  0.7818608E-02  0.1139514E+00
         21   -1    0    0  503  502  0.00000000000E+00  0.00000000000E+00  0.54800980034E+02  0.54800980034E+02  0.00000000000E+00 0. -1.
         21   -1    0    0  501  503 -0.00000000000E+00 -0.00000000000E+00 -0.21735281014E+04  0.21735281014E+04  0.00000000000E+00 0. -1.
          6    2    1    2  501    0 -0.89220197776E+02 -0.85561009072E+02 -0.18032706231E+03  0.27827963203E+03  0.17216496228E+03 0.  0.
         24    2    3    3    0    0 -0.92399270969E+02 -0.95593261544E+02 -0.76413009496E+02  0.17372833855E+03  0.81651029797E+02 0.  0.
         -6    2    1    2    0  502  0.89220197776E+02  0.85561009072E+02 -0.19384000591E+04  0.19500494494E+04  0.17325454168E+03 0.  0.
        -24    2    5    5    0    0  0.11007569914E+03  0.10534077240E+03 -0.18150532125E+04  0.18233106411E+04  0.82644974947E+02 0.  0.
          5    1    3    3  501    0  0.31790731929E+01  0.10032252472E+02 -0.10391405281E+03  0.10455129348E+03  0.47000000000E+01 0. -1.
        -13    1    4    4    0    0 -0.46699397473E+01  0.28123527628E+00 -0.37898274867E+02  0.38185948573E+02  0.00000000000E+00 0.  1.
         14    1    4    4    0    0 -0.87729331222E+02 -0.95874496820E+02 -0.38514734629E+02  0.13554238998E+03  0.00000000000E+00 0. -1.
         -5    1    5    5    0  502 -0.20855501366E+02 -0.19779763327E+02 -0.12334684660E+03  0.12673880834E+03  0.47000000000E+01 0.  1.
         13    1    6    6    0    0  0.94953222048E+02  0.72849459797E+02 -0.94906340495E+03  0.95657958623E+03  0.00000000000E+00 0. -1.
        -14    1    6    6    0    0  0.15122477094E+02  0.32491312603E+02 -0.86598980753E+03  0.86673105486E+03  0.00000000000E+00 0.  1.
</event>
<event>
12    1  0.1046899E+000  0.2045844E+03  0.7818608E-02  0.1146413E+00
         21   -1    0    0  501  502  0.00000000000E+00  0.00000000000E+00  0.16304835937E+03  0.16304835937E+03  0.00000000000E+00 0.  1.
         21   -1    0    0  502  503 -0.00000000000E+00 -0.00000000000E+00 -0.26018354403E+03  0.26018354403E+03  0.00000000000E+00 0.  1.
         -6    2    1    2    0  503 -0.77766350425E+02  0.74767085626E+02 -0.82110278784E+02  0.22044700010E+03  0.17383054858E+03 0.  0.
        -24    2    3    3    0    0 -0.41269222494E+02  0.10708926070E+03 -0.20213472066E+02  0.14151622010E+03  0.80293197828E+02 0.  0.
          6    2    1    2  501    0  0.77766350425E+02 -0.74767085626E+02 -0.15024905869E+02  0.20278490330E+03  0.17105042198E+03 0.  0.
         24    2    5    5    0    0  0.13481117225E+02 -0.21877669817E+02  0.48618558223E+02  0.97892281854E+02  0.80986182060E+02 0.  0.
          5    1    5    5  501    0  0.64285233201E+02 -0.52889415808E+02 -0.63643464092E+02  0.10489262145E+03  0.47000000000E+01 0. -1.
        -11    1    6    6    0    0  0.11782545948E+02  0.24754122416E+02  0.42856589102E+02  0.50875162850E+02  0.00000000000E+00 0.  1.
         12    1    6    6    0    0  0.16985712765E+01 -0.46631792233E+02  0.57619691214E+01  0.47017119004E+02  0.00000000000E+00 0. -1.
         -5    1    3    3    0  503 -0.36497127931E+02 -0.32322175071E+02 -0.61896806718E+02  0.78930779994E+02  0.47000000000E+01 0.  1.
         11    1    4    4    0    0 -0.54564651599E+02  0.68342947756E+02  0.13466952611E+02  0.88484001518E+02  0.00000000000E+00 0. -1.
        -12    1    4    4    0    0  0.13295429104E+02  0.38746312941E+02 -0.33680424677E+02  0.53032218585E+02  0.00000000000E+00 0.  1.
</event>
<event>
12    1  0.1046899E+000  0.2359442E+03  0.7818608E-02  0.1122625E+00
         21   -1    0    0  503  502  0.00000000000E+00  0.00000000000E+00  0.45216064914E+03  0.45216064914E+03  0.00000000000E+00 0.  1.
         21   -1    0    0  501  503 -0.00000000000E+00 -0.00000000000E+00 -0.13382797873E+03  0.13382797873E+03  0.00000000000E+00 0.  1.
          6    2    1    2  501    0 -0.47289493922E+02  0.15435905103E+03  0.74923747576E+02  0.24699369048E+03  0.17125799928E+03 0.  0.
         24    2    3    3    0    0  0.28282411401E+01  0.52542893473E+02 -0.19632876827E+02  0.99205455070E+02  0.81777245372E+02 0.  0.
         -6    2    1    2    0  502  0.47289493922E+02 -0.15435905103E+03  0.24340892284E+03  0.33899493740E+03  0.17206583331E+03 0.  0.
        -24    2    5    5    0    0  0.28150682456E+02 -0.17631257284E+03  0.23939701894E+03  0.30922185228E+03  0.80178781405E+02 0.  0.
          5    1    3    3  501    0 -0.50117735062E+02  0.10181615756E+03  0.94556624403E+02  0.14778823541E+03  0.47000000000E+01 0. -1.
        -11    1    4    4    0    0  0.25063677251E+01 -0.17758452355E+02  0.12547698434E+02  0.21888107392E+02  0.00000000000E+00 0.  1.
         12    1    4    4    0    0  0.32187341497E+00  0.70301345828E+02 -0.32180575261E+02  0.77317347677E+02  0.00000000000E+00 0. -1.
         -5    1    5    5    0  502  0.19138811466E+02  0.21953521811E+02  0.40119038935E+01  0.29773085112E+02  0.47000000000E+01 0.  1.
         11    1    6    6    0    0  0.44977543884E+02 -0.14023803004E+03  0.14454739115E+03  0.20635802095E+03  0.00000000000E+00 0. -1.
        -12    1    6    6    0    0 -0.16826861428E+02 -0.36074542798E+02  0.94849627792E+02  0.10286383133E+03  0.00000000000E+00 0.  1.
</event>
<event>
12    1  0.1046899E+000  0.2366716E+03  0.7818608E-02  0.1122220E+00
         21   -1    0    0  501  502  0.00000000000E+00  0.00000000000E+00  0.88799213985E+03  0.88799213985E+03  0.00000000000E+00 0. -1.
         21   -1    0    0  502  503 -0.00000000000E+00 -0.00000000000E+00 -0.67265863217E+02  0.67265863217E+02  0.00000000000E+00 0. -1.
         -6    2    1    2    0  503  0.15626774540E+03 -0.34559369822E+02  0.53460166534E+03  0.58464722789E+03  0.17435447284E+03 0.  0.
        -24    2    3    3    0    0  0.18602765565E+03 -0.24199462772E+02  0.43479605086E+03  0.47987972045E+03  0.77749839848E+02 0.  0.
          6    2    1    2  501    0 -0.15626774540E+03  0.34559369822E+02  0.28612461130E+03  0.37061077518E+03  0.17283256405E+03 0.  0.
         24    2    5    5    0    0 -0.53226578671E+02 -0.17670611643E+02  0.21208260454E+03  0.23331634059E+03  0.79449131182E+02 0.  0.
          5    1    5    5  501    0 -0.10304116673E+03  0.52229981466E+02  0.74042006760E+02  0.13729443459E+03  0.47000000000E+01 0. -1.
        -13    1    6    6    0    0 -0.78314231591E+01 -0.37796091961E+02  0.14378077729E+03  0.14887171550E+03  0.00000000000E+00 0.  1.
         14    1    6    6    0    0 -0.45395155512E+02  0.20125480317E+02  0.68301827247E+02  0.84444625094E+02  0.00000000000E+00 0. -1.
         -5    1    3    3    0  503 -0.29759910249E+02 -0.10359907050E+02  0.99805614483E+02  0.10476750744E+03  0.47000000000E+01 0.  1.
         13    1    4    4    0    0  0.13238129778E+03  0.14263821723E+02  0.33211704991E+03  0.35781279945E+03  0.00000000000E+00 0. -1.
        -14    1    4    4    0    0  0.53646357871E+02 -0.38463284495E+02  0.10267900095E+03  0.12206692100E+03  0.00000000000E+00 0.  1.
</event>
<event>
12    1  0.1046899E+000  0.1935052E+03  0.7818608E-02  0.1155588E+00
         21   -1    0    0  501  502  0.00000000000E+00  0.00000000000E+00  0.73986550552E+02  0.73986550552E+02  0.00000000000E+00 0.  1.
         21   -1    0    0  502  503 -0.00000000000E+00 -0.00000000000E+00 -0.84399172502E+03  0.84399172502E+03  0.00000000000E+00 0.  1.
         -6    2    1    2    0  503 -0.75842921204E+01  0.86337187738E+02 -0.67736501282E+03  0.70446264137E+03  0.17301046505E+03 0.  0.
        -24    2    3    3    0    0  0.28423115315E+02 -0.55896845322E+01 -0.39898803114E+03  0.40905966717E+03  0.85435614672E+02 0.  0.
          6    2    1    2  501    0  0.75842921204E+01 -0.86337187738E+02 -0.92640161639E+02  0.21351563420E+03  0.17174136084E+03 0.  0.
         24    2    5    5    0    0  0.46322971700E+02 -0.95029162399E+02 -0.10642950142E+03  0.17122530894E+03  0.82550034727E+02 0.  0.
          5    1    5    5  501    0 -0.38738679580E+02  0.86919746619E+01  0.13789339783E+02  0.42290325262E+02  0.47000000000E+01 0. -1.
        -13    1    6    6    0    0  0.37734779226E+02  0.47380552348E+00 -0.23549433469E+02  0.44482736782E+02  0.00000000000E+00 0.  1.
         14    1    6    6    0    0  0.85881924740E+01 -0.95502967923E+02 -0.82880067953E+02  0.12674257215E+03  0.00000000000E+00 0. -1.
         -5    1    3    3    0  503 -0.36007407436E+02  0.91926872270E+02 -0.27837698168E+03  0.29540297420E+03  0.47000000000E+01 0.  1.
         11    1    4    4    0    0  0.35353845075E+02  0.29096983591E+02 -0.30891759943E+03  0.31229251040E+03  0.00000000000E+00 0. -1.
        -12    1    4    4    0    0 -0.69307297596E+01 -0.34686668123E+02 -0.90070431716E+02  0.96767156773E+02  0.00000000000E+00 0.  1.
</event>
<event>
12    1  0.1046899E+000  0.1783569E+03  0.7818608E-02  0.1170200E+00
         21   -1    0    0  501  502  0.00000000000E+00  0.00000000000E+00  0.31636557906E+02  0.31636557906E+02  0.00000000000E+00 0.  1.
         21   -1    0    0  502  503 -0.00000000000E+00 -0.00000000000E+00 -0.10052485631E+04  0.10052485631E+04  0.00000000000E+00 0.  1.
         -6    2    1    2    0  503 -0.40781306996E+02  0.13464141970E+02 -0.56018933370E+03  0.58789734224E+03  0.17310920629E+03 0.  0.
        -24    2    3    3    0    0 -0.20503152096E+02  0.29537828796E+01 -0.10040318306E+03  0.12752025165E+03  0.75838719229E+02 0.  0.
          6    2    1    2  501    0  0.40781306996E+02 -0.13464141970E+02 -0.41342267149E+03  0.44898777877E+03  0.16978610679E+03 0.  0.
         24    2    5    5    0    0  0.24062981569E+02 -0.76725824879E+02 -0.25867785918E+03  0.28091163571E+03  0.74372259329E+02 0.  0.
          5    1    5    5  501    0  0.16718325427E+02  0.63261682908E+02 -0.15474481231E+03  0.16807614306E+03  0.47000000000E+01 0. -1.
        -11    1    6    6    0    0  0.21317683554E+02 -0.75589176585E+02 -0.26366115812E+03  0.27510974819E+03  0.00000000000E+00 0.  1.
         12    1    6    6    0    0  0.27452980144E+01 -0.11366482940E+01  0.49832989318E+01  0.58018875184E+01  0.00000000000E+00 0. -1.
         -5    1    3    3    0  503 -0.20278154900E+02  0.10510359091E+02 -0.45978615065E+03  0.46037709059E+03  0.47000000000E+01 0.  1.
         13    1    4    4    0    0 -0.25000446748E+02 -0.33272765598E+02 -0.60566247228E+02  0.73487206855E+02  0.00000000000E+00 0. -1.
        -14    1    4    4    0    0  0.44972946519E+01  0.36226548477E+02 -0.39836935829E+02  0.54033044797E+02  0.00000000000E+00 0.  1.
</event>
<event>
12    1  0.1046899E+000  0.3546290E+03  0.7818608E-02  0.1061009E+00
         21   -1    0    0  503  502  0.00000000000E+00  0.00000000000E+00  0.66184157407E+03  0.66184157407E+03  0.00000000000E+00 0. -1.
         21   -1    0    0  501  503 -0.00000000000E+00 -0.00000000000E+00 -0.41495918793E+03  0.41495918793E+03  0.00000000000E+00 0. -1.
          6    2    1    2  501    0  0.16205141243E+03  0.26122071357E+03 -0.27403234898E+03  0.44816899893E+03  0.17681855629E+03 0.  0.
         24    2    3    3    0    0  0.49500425595E+01  0.91976106757E+02 -0.11026115640E+03  0.16503003858E+03  0.81199038710E+02 0.  0.
         -6    2    1    2    0  502 -0.16205141243E+03 -0.26122071357E+03  0.52091473511E+03  0.62863176307E+03  0.17125656430E+03 0.  0.
        -24    2    5    5    0    0 -0.33165114191E+02 -0.91715670313E+02  0.11761675041E+03  0.17254515722E+03  0.80165094182E+02 0.  0.
          5    1    3    3  501    0  0.15710136987E+03  0.16924460681E+03 -0.16377119257E+03  0.28313896035E+03  0.47000000000E+01 0. -1.
        -11    1    4    4    0    0  0.32902202309E+01  0.10511465489E+03 -0.80447162485E+02  0.13240718324E+03  0.00000000000E+00 0.  1.
         12    1    4    4    0    0  0.16598223285E+01 -0.13138548134E+02 -0.29813993916E+02  0.32622855339E+02  0.00000000000E+00 0. -1.
         -5    1    5    5    0  502 -0.12888629824E+03 -0.16950504325E+03  0.40329798471E+03  0.45608660584E+03  0.47000000000E+01 0.  1.
         11    1    6    6    0    0  0.16961928489E+02 -0.65852164605E+02  0.78739696518E+02  0.10403919650E+03  0.00000000000E+00 0. -1.
        -12    1    6    6    0    0 -0.50127042680E+02 -0.25863505708E+02  0.38877053888E+02  0.68505960722E+02  0.00000000000E+00 0.  1.
</event>
<event>
12    1  0.1046899E+000  0.2177745E+03  0.7818608E-02  0.1136025E+00
         21   -1    0    0  501  502  0.00000000000E+00  0.00000000000E+00  0.12604948339E+04  0.12604948339E+04  0.00000000000E+00 0. -1.
         21   -1    0    0  502  503 -0.00000000000E+00 -0.00000000000E+00 -0.37593966704E+02  0.37593966704E+02  0.00000000000E+00 0. -1.
         -6    2    1    2    0  503 -0.12822175091E+03 -0.17261591937E+02  0.54128099301E+03  0.58252512843E+03  0.17208030656E+03 0.  0.
        -24    2    3    3    0    0  0.95683332755E+00 -0.26060080984E+02  0.17951151006E+03  0.19825469134E+03  0.80003106454E+02 0.  0.
          6    2    1    2  501    0  0.12822175091E+03  0.17261591937E+02  0.68161987423E+03  0.71556367221E+03  0.17517687085E+03 0.  0.
         24    2    5    5    0    0  0.39552324905E+02  0.50375976185E+02  0.50287794003E+03  0.51325302347E+03  0.80251592820E+02 0.  0.
          5    1    5    5  501    0  0.88669426005E+02 -0.33114384248E+02  0.17874193420E+03  0.20231064874E+03  0.47000000000E+01 0. -1.
        -11    1    6    6    0    0 -0.67852444578E+01  0.49775464533E+02  0.17334175829E+03  0.18047437929E+03  0.00000000000E+00 0.  1.
         12    1    6    6    0    0  0.46337569363E+02  0.60051165241E+00  0.32953618174E+03  0.33277864419E+03  0.00000000000E+00 0. -1.
         -5    1    3    3    0  503 -0.12917858424E+03  0.87984890473E+01  0.36176948294E+03  0.38427043709E+03  0.47000000000E+01 0.  1.
         11    1    4    4    0    0 -0.25885149559E+02  0.15576425813E+02  0.10099409898E+03  0.10541572007E+03  0.00000000000E+00 0. -1.
        -12    1    4    4    0    0  0.26841982886E+02 -0.41636506797E+02  0.78517411079E+02  0.92838971268E+02  0.00000000000E+00 0.  1.
</event>
<event>
12    1  0.1046899E+000  0.2770864E+03  0.7818608E-02  0.1097902E+00
         21   -1    0    0  501  502  0.00000000000E+00  0.00000000000E+00  0.35819924465E+03  0.35819924465E+03  0.00000000000E+00 0.  1.
         21   -1    0    0  502  503 -0.00000000000E+00 -0.00000000000E+00 -0.23566932321E+03  0.23566932321E+03  0.00000000000E+00 0.  1.
         -6    2    1    2    0  503 -0.77707376249E+02  0.20045604496E+03 -0.35295741408E+02  0.27498639611E+03  0.16778160327E+03 0.  0.
        -24    2    3    3    0    0 -0.87458782191E+02  0.20656677036E+03  0.75774975594E-02  0.23755852937E+03  0.78199652288E+02 0.  0.
          6    2    1    2  501    0  0.77707376249E+02 -0.20045604496E+03  0.15782566284E+03  0.31888217176E+03  0.17480228067E+03 0.  0.
         24    2    5    5    0    0  0.11861180174E+03 -0.17617758969E+03  0.14570652288E+03  0.26957112869E+03  0.79566952898E+02 0.  0.
          5    1    5    5  501    0 -0.40904425487E+02 -0.24278455271E+02  0.12119139962E+02  0.49311043065E+02  0.47000000000E+01 0. -1.
        -11    1    6    6    0    0  0.57614234992E+02 -0.62842583489E+02  0.15811436228E+02  0.86709814259E+02  0.00000000000E+00 0.  1.
         12    1    6    6    0    0  0.60997566745E+02 -0.11333500620E+03  0.12989508665E+03  0.18286131443E+03  0.00000000000E+00 0. -1.
         -5    1    3    3    0  503  0.97514059415E+01 -0.61107253990E+01 -0.35303318905E+02  0.37427866737E+02  0.47000000000E+01 0.  1.
         13    1    4    4    0    0 -0.60097344137E+02  0.49840646882E+02  0.63688405213E+01  0.78334813356E+02  0.00000000000E+00 0. -1.
        -14    1    4    4    0    0 -0.27361438054E+02  0.15672612348E+03 -0.63612630238E+01  0.15922371601E+03  0.00000000000E+00 0.  1.
</event>
<event>
12    1  0.1046899E+000  0.2090222E+03  0.7818608E-02  0.1142413E+00
         21   -1    0    0  503  502  0.00000000000E+00  0.00000000000E+00  0.30246140339E+03  0.30246140339E+03  0.00000000000E+00 0. -1.
         21   -1    0    0  501  503 -0.00000000000E+00 -0.00000000000E+00 -0.16470592542E+03  0.16470592542E+03  0.00000000000E+00 0. -1.
          6    2    1    2  501    0  0.11779079785E+03 -0.11562086094E+02  0.15133735656E+03  0.25805670574E+03  0.17228439859E+03 0.  0.
         24    2    3    3    0    0  0.10136622220E+02  0.33520224660E+02  0.42830480306E+02  0.98627509964E+02  0.81649121901E+02 0.  0.
         -6    2    1    2    0  502 -0.11779079785E+03  0.11562086094E+02 -0.13581878590E+02  0.20911062307E+03  0.17185584472E+03 0.  0.
        -24    2    5    5    0    0 -0.14378657217E+03 -0.80475334816E+01 -0.27604325184E+02  0.17334700370E+03  0.92454549868E+02 0.  0.
          5    1    3    3  501    0  0.10765417563E+03 -0.45082310754E+02  0.10850687625E+03  0.15942919578E+03  0.47000000000E+01 0. -1.
        -13    1    4    4    0    0 -0.71559581186E+00  0.13220270659E+02 -0.24293149733E+02  0.27666672326E+02  0.00000000000E+00 0.  1.
         14    1    4    4    0    0  0.10852218032E+02  0.20299954000E+02  0.67123630039E+02  0.70960837638E+02  0.00000000000E+00 0. -1.
         -5    1    5    5    0  502  0.25995774319E+02  0.19609619576E+02  0.14022446594E+02  0.35763619376E+02  0.47000000000E+01 0.  1.
         11    1    6    6    0    0 -0.97355961162E+02  0.27229165532E+02 -0.47552399717E+02  0.11171768592E+03  0.00000000000E+00 0. -1.
        -12    1    6    6    0    0 -0.46430611005E+02 -0.35276699014E+02  0.19948074533E+02  0.61629317773E+02  0.00000000000E+00 0.  1.
</event>
<event>
12    1  0.1046899E+000  0.2038081E+03  0.7818608E-02  0.1146902E+00
         21   -1    0    0  503  502  0.00000000000E+00  0.00000000000E+00  0.90923133444E+02  0.90923133444E+02  0.00000000000E+00 0. -1.
         21   -1    0    0  501  503 -0.00000000000E+00 -0.00000000000E+00 -0.45600374085E+03  0.45600374085E+03  0.00000000000E+00 0. -1.
          6    2    1    2  501    0 -0.40351834998E+02 -0.98957769019E+02 -0.16181190962E+03  0.26023224697E+03  0.17354197657E+03 0.  0.
         24    2    3    3    0    0 -0.30036270972E+02 -0.12753965336E+03 -0.75545348018E+02  0.16864979983E+03  0.74613099544E+02 0.  0.
         -6    2    1    2    0  502  0.40351834998E+02  0.98957769019E+02 -0.20326869778E+03  0.28669462732E+03  0.17162381886E+03 0.  0.
        -24    2    5    5    0    0  0.67186319898E+02  0.10556185486E+03 -0.96498081506E+02  0.17630550635E+03  0.78194917046E+02 0.  0.
          5    1    3    3  501    0 -0.10315564026E+02  0.28581884336E+02 -0.86266561606E+02  0.91582447143E+02  0.47000000000E+01 0. -1.
        -13    1    4    4    0    0  0.10096773607E+02 -0.10085936443E+03 -0.61032914641E+02  0.11831979082E+03  0.00000000000E+00 0.  1.
         14    1    4    4    0    0 -0.40133044579E+02 -0.26680288927E+02 -0.14512433377E+02  0.50330009010E+02  0.00000000000E+00 0. -1.
         -5    1    5    5    0  502 -0.26834484900E+02 -0.66040858371E+01 -0.10677061628E+03  0.11038912098E+03  0.47000000000E+01 0.  1.
         13    1    6    6    0    0  0.22311670204E+02  0.16593998365E+02  0.10841349306E+02  0.29844702441E+02  0.00000000000E+00 0. -1.
        -14    1    6    6    0    0  0.44874649694E+02  0.88967856492E+02 -0.10733943081E+03  0.14646080391E+03  0.00000000000E+00 0.  1.
</event>
<event>
12    1  0.1046899E+000  0.1961262E+03  0.7818608E-02  0.1153377E+00
         21   -1    0    0  501  502  0.00000000000E+00  0.00000000000E+00  0.74142109984E+03  0.74142109984E+03  0.00000000000E+00 0.  1.
         21   -1    0    0  502  503 -0.00000000000E+00 -0.00000000000E+00 -0.51492973972E+02  0.51492973972E+02  0.00000000000E+00 0.  1.
         -6    2    1    2    0  503 -0.73193679216E+02 -0.58756122878E+02  0.35190393285E+03  0.40286704374E+03  0.17220882765E+03 0.  0.
        -24    2    3    3    0    0 -0.10735411208E+03 -0.17232237961E+02  0.19398356916E+03  0.23597756096E+03  0.78955232683E+02 0.  0.
          6    2    1    2  501    0  0.73193679216E+02  0.58756122878E+02  0.33802419302E+03  0.39004703007E+03  0.17048968870E+03 0.  0.
         24    2    5    5    0    0  0.44815652958E+02  0.56500211724E+02  0.34345573970E+03  0.36068730922E+03  0.83263276533E+02 0.  0.
          5    1    5    5  501    0  0.28378026258E+02  0.22559111539E+01 -0.54315466890E+01  0.29359720858E+02  0.47000000000E+01 0. -1.
        -13    1    6    6    0    0  0.51797767618E+02  0.77887778454E+01  0.10660218685E+03  0.11877583943E+03  0.00000000000E+00 0.  1.
         14    1    6    6    0    0 -0.69821146600E+01  0.48711433879E+02  0.23685355285E+03  0.24191146979E+03  0.00000000000E+00 0. -1.
         -5    1    3    3    0  503  0.34160432864E+02 -0.41523884917E+02  0.15792036369E+03  0.16688948278E+03  0.47000000000E+01 0.  1.
         11    1    4    4    0    0 -0.69874230132E+02  0.21411410571E+02  0.14847300063E+03  0.16548440547E+03  0.00000000000E+00 0. -1.
        -12    1    4    4    0    0 -0.37479881949E+02 -0.38643648532E+02  0.45510568529E+02  0.70493155487E+02  0.00000000000E+00 0.  1.
</event>
<event>
12    1  0.1046899E+000  0.2130316E+03  0.7818608E-02  0.1140023E+00
         21   -1    0    0  503  502  0.00000000000E+00  0.00000000000E+00  0.29460154545E+03  0.29460154545E+03  0.00000000000E+00 0.  1.
         21   -1    0    0  501  503 -0.00000000000E+00 -0.00000000000E+00 -0.37507205602E+03  0.37507205602E+03  0.00000000000E+00 0.  1.
          6    2    1    2  501    0  0.11701504362E+03  0.12118353208E+02  0.21840626791E+03  0.30509633951E+03  0.17760378263E+03 0.  0.
         24    2    3    3    0    0  0.10512822789E+03  0.34967391052E+02  0.23670240066E+03  0.27315556006E+03  0.79443506845E+02 0.  0.
         -6    2    1    2    0  502 -0.11701504362E+03 -0.12118353208E+02 -0.29887677848E+03  0.36457726196E+03  0.17248152453E+03 0.  0.
        -24    2    5    5    0    0 -0.13046138237E+03 -0.55793340699E+01 -0.30952799885E+03  0.34562729382E+03  0.81236339780E+02 0.  0.
          5    1    3    3  501    0  0.11886815730E+02 -0.22849037844E+02 -0.18296132745E+02  0.31940779452E+02  0.47000000000E+01 0. -1.
        -11    1    4    4    0    0 -0.59475062206E+01  0.18010236298E+02  0.66946444477E+02  0.69581375883E+02  0.00000000000E+00 0.  1.
         12    1    4    4    0    0  0.11107573411E+03  0.16957154754E+02  0.16975595618E+03  0.20357418418E+03  0.00000000000E+00 0. -1.
         -5    1    5    5    0  502  0.13446338749E+02 -0.65390191381E+01  0.10651220374E+02  0.18949968140E+02  0.47000000000E+01 0.  1.
         13    1    6    6    0    0 -0.46860112535E+02 -0.29805070859E+02 -0.61970416426E+02  0.83213850456E+02  0.00000000000E+00 0. -1.
        -14    1    6    6    0    0 -0.83601269831E+02  0.24225736789E+02 -0.24755758243E+03  0.26241344336E+03  0.00000000000E+00 0.  1.
</event>
<event>
12    1  0.1046899E+000  0.2008025E+03  0.7818608E-02  0.1149577E+00
         21   -1    0    0  503  502  0.00000000000E+00  0.00000000000E+00  0.63770011477E+03  0.63770011477E+03  0.00000000000E+00 0.  1.
         21   -1    0    0  501  503 -0.00000000000E+00 -0.00000000000E+00 -0.71158228641E+02  0.71158228641E+02  0.00000000000E+00 0.  1.
          6    2    1    2  501    0  0.67773884225E+01  0.95835205820E+02  0.40865145323E+03  0.45532148638E+03  0.17632732649E+03 0.  0.
         24    2    3    3    0    0 -0.32618881304E+02 -0.31749076745E+01  0.11878835431E+03  0.14645618441E+03  0.79149664423E+02 0.  0.
         -6    2    1    2    0  502 -0.67773884225E+01 -0.95835205820E+02  0.15789043290E+03  0.25353685703E+03  0.17355468706E+03 0.  0.
        -24    2    5    5    0    0  0.19614138073E+02  0.15872217206E+02  0.64972122004E+02  0.10578380789E+03  0.79575094611E+02 0.  0.
          5    1    3    3  501    0  0.39396269727E+02  0.99010113495E+02  0.28986309892E+03  0.30886530197E+03  0.47000000000E+01 0. -1.
        -11    1    4    4    0    0  0.23857262408E+02 -0.14095589533E+02  0.31928353319E+02  0.42276167749E+02  0.00000000000E+00 0.  1.
         12    1    4    4    0    0 -0.56476143712E+02  0.10920681859E+02  0.86860000986E+02  0.10418001666E+03  0.00000000000E+00 0. -1.
         -5    1    5    5    0  502 -0.26391526496E+02 -0.11170742303E+03  0.92918310893E+02  0.14775304914E+03  0.47000000000E+01 0.  1.
         13    1    6    6    0    0 -0.97781985668E+01 -0.28536517393E+02  0.25429588959E+02  0.39453896978E+02  0.00000000000E+00 0. -1.
        -14    1    6    6    0    0  0.29392336640E+02  0.44408734599E+02  0.39542533046E+02  0.66329910911E+02  0.00000000000E+00 0.  1.
</event>
<event>
12    1  0.1046899E+000  0.2246859E+03  0.7818608E-02  0.1130885E+00
         21   -1    0    0  503  502  0.00000000000E+00  0.00000000000E+00  0.20721387484E+03  0.20721387484E+03  0.00000000000E+00 0. -1.
         21   -1    0    0  501  503 -0.00000000000E+00 -0.00000000000E+00 -0.24544871334E+03  0.24544871334E+03  0.00000000000E+00 0. -1.
          6    2    1    2  501    0 -0.50068360844E+02 -0.13611654678E+03 -0.49561755655E+02  0.22769136245E+03  0.16838180973E+03 0.  0.
         24    2    3    3    0    0 -0.68023877942E+02 -0.45481230155E+02  0.14252704429E+02  0.11530125377E+03  0.79971552888E+02 0.  0.
         -6    2    1    2    0  502  0.50068360844E+02  0.13611654678E+03  0.11326917158E+02  0.22497122573E+03  0.17160768715E+03 0.  0.
        -24    2    5    5    0    0  0.87160384108E+02  0.12407547350E+03 -0.22459427766E+02  0.17315990709E+03  0.80549809724E+02 0.  0.
          5    1    3    3  501    0  0.17955517098E+02 -0.90635316623E+02 -0.63814460084E+02  0.11239010868E+03  0.47000000000E+01 0. -1.
        -11    1    4    4    0    0 -0.79912349088E+02 -0.29784061105E+02 -0.79174610531E+01  0.85649051496E+02  0.00000000000E+00 0.  1.
         12    1    4    4    0    0  0.11888471146E+02 -0.15697169050E+02  0.22170165482E+02  0.29652202277E+02  0.00000000000E+00 0. -1.
         -5    1    5    5    0  502 -0.37092023263E+02  0.12041073282E+02  0.33786344924E+02  0.51811318636E+02  0.47000000000E+01 0.  1.
         11    1    6    6    0    0  0.24823487990E+02  0.97241635905E+01  0.23005255473E+02  0.35213728756E+02  0.00000000000E+00 0. -1.
        -12    1    6    6    0    0  0.62336896117E+02  0.11435130991E+03 -0.45464683239E+02  0.13794617833E+03  0.00000000000E+00 0.  1.
</event>
<event>
12    1  0.1046899E+000  0.1774023E+03  0.7818608E-02  0.1170364E+00
         21   -1    0    0  501  502  0.00000000000E+00  0.00000000000E+00  0.13318147098E+03  0.13318147098E+03  0.00000000000E+00 0. -1.
         21   -1    0    0  502  503 -0.00000000000E+00 -0.00000000000E+00 -0.40172804135E+03  0.40172804135E+03  0.00000000000E+00 0. -1.
         -6    2    1    2    0  503  0.21233669955E+02  0.39547909848E+02  0.37435352520E+02  0.18121967349E+03  0.17153500671E+03 0.  0.
        -24    2    3    3    0    0  0.33424953474E+02  0.58726743826E+02  0.80509409524E+02  0.13229197731E+03  0.80332709924E+02 0.  0.
          6    2    1    2  501    0 -0.21233669955E+02 -0.39547909848E+02 -0.30598192288E+03  0.35368983884E+03  0.17162942362E+03 0.  0.
         24    2    5    5    0    0 -0.76496099813E+02 -0.21977587122E+01 -0.19148107740E+03  0.22109457663E+03  0.79757917369E+02 0.  0.
          5    1    5    5  501    0  0.55262429857E+02 -0.37350151136E+02 -0.11450084548E+03  0.13259526221E+03  0.47000000000E+01 0. -1.
        -13    1    6    6    0    0 -0.62091386094E+02 -0.22556683865E+02 -0.66819171894E+02  0.93962470948E+02  0.00000000000E+00 0.  1.
         14    1    6    6    0    0 -0.14404713719E+02  0.20358925153E+02 -0.12466190551E+03  0.12713210568E+03  0.00000000000E+00 0. -1.
         -5    1    3    3    0  503 -0.12191283518E+02 -0.19178833978E+02 -0.43074057004E+02  0.48927696178E+02  0.47000000000E+01 0.  1.
         11    1    4    4    0    0  0.36727765296E+01  0.59713963648E+02  0.17068400479E+02  0.62213961752E+02  0.00000000000E+00 0. -1.
        -12    1    4    4    0    0  0.29752176944E+02 -0.98721982247E+00  0.63441009045E+02  0.70078015558E+02  0.00000000000E+00 0.  1.
</event>
<event>
12    1  0.1046899E+000  0.1756463E+03  0.7818608E-02  0.1172818E+00
         21   -1    0    0  501  502  0.00000000000E+00  0.00000000000E+00  0.45091184900E+03  0.45091184900E+03  0.00000000000E+00 0. -1.
         21   -1    0    0  502  503 -0.00000000000E+00 -0.00000000000E+00 -0.38602837140E+03  0.38602837140E+03  0.00000000000E+00 0. -1.
         -6    2    1    2    0  503  0.27400321818E+02  0.12229560501E+02  0.41264406828E+03  0.44733906777E+03  0.17010812644E+03 0.  0.
        -24    2    3    3    0    0  0.30109839849E+02  0.46128065449E+02  0.12802243948E+03  0.16065455178E+03  0.79910819797E+02 0.  0.
          6    2    1    2  501    0 -0.27400321818E+02 -0.12229560501E+02 -0.34776059069E+03  0.38960115263E+03  0.17306440970E+03 0.  0.
         24    2    5    5    0    0 -0.66328583564E+02  0.38749669458E+02 -0.21039017902E+03  0.23792052944E+03  0.80256669619E+02 0.  0.
          5    1    5    5  501    0  0.38928261745E+02 -0.50979229959E+02 -0.13737041167E+03  0.15168062319E+03  0.47000000000E+01 0. -1.
        -11    1    6    6    0    0 -0.57100144528E+02  0.39115983985E+01 -0.58608270565E+02  0.81918596703E+02  0.00000000000E+00 0.  1.
         12    1    6    6    0    0 -0.92284390357E+01  0.34838071059E+02 -0.15178190846E+03  0.15600193273E+03  0.00000000000E+00 0. -1.
         -5    1    3    3    0  503 -0.27095180309E+01 -0.33898504947E+02  0.28462162880E+03  0.28668451599E+03  0.47000000000E+01 0.  1.
         11    1    4    4    0    0  0.57459932109E+02  0.33959751454E+02  0.81645260104E+02  0.10545547408E+03  0.00000000000E+00 0. -1.
        -12    1    4    4    0    0 -0.27350092259E+02  0.12168313994E+02  0.46377179373E+02  0.55199077698E+02  0.00000000000E+00 0.  1.
</event>
<event>
12    1  0.1046899E+000  0.1769638E+03  0.7818608E-02  0.1170943E+00
         21   -1    0    0  501  502  0.00000000000E+00  0.00000000000E+00  0.33631915354E+03  0.33631915354E+03  0.00000000000E+00 0.  1.
         21   -1    0    0  502  503 -0.00000000000E+00 -0.00000000000E+00 -0.94774233457E+02  0.94774233457E+02  0.00000000000E+00 0.  1.
         -6    2    1    2    0  503 -0.54847608258E+01  0.37583135241E+02  0.89549556448E+02  0.19833133908E+03  0.17283987487E+03 0.  0.
        -24    2    3    3    0    0  0.58355224759E+02 -0.86947836709E+01  0.48845176638E+02  0.10947119011E+03  0.78212266711E+02 0.  0.
          6    2    1    2  501    0  0.54847608258E+01 -0.37583135241E+02  0.15199536363E+03  0.23276204792E+03  0.17214239957E+03 0.  0.
         24    2    5    5    0    0 -0.70074740335E+02 -0.33043695199E+02  0.10478575782E+03  0.14342738716E+03  0.59908307603E+02 0.  0.
          5    1    5    5  501    0  0.75559501161E+02 -0.45394400423E+01  0.47209605813E+02  0.89334660757E+02  0.47000000000E+01 0. -1.
        -13    1    6    6    0    0 -0.45401124206E+02 -0.33805172350E+02  0.10437824305E+03  0.11873866000E+03  0.00000000000E+00 0.  1.
         14    1    6    6    0    0 -0.24673616130E+02  0.76147715055E+00  0.40751476976E+00  0.24688727157E+02  0.00000000000E+00 0. -1.
         -5    1    3    3    0  503 -0.63839985585E+02  0.46277918912E+02  0.40704379810E+02  0.88860148965E+02  0.47000000000E+01 0.  1.
         11    1    4    4    0    0  0.49048281655E+02 -0.40640700002E+02  0.39337433622E+02  0.74865440050E+02  0.00000000000E+00 0. -1.
        -12    1    4    4    0    0  0.93069431040E+01  0.31945916331E+02  0.95077430161E+01  0.34605750063E+02  0.00000000000E+00 0.  1.
</event>
<event>
12    1  0.1046899E+000  0.1818367E+03  0.7818608E-02  0.1166637E+00
         21   -1    0    0  501  502  0.00000000000E+00  0.00000000000E+00  0.54502981264E+03  0.54502981264E+03  0.00000000000E+00 0.  1.
         21   -1    0    0  502  503 -0.00000000000E+00 -0.00000000000E+00 -0.63021333097E+02  0.63021333097E+02  0.00000000000E+00 0.  1.
         -6    2    1    2    0  503  0.52913274308E+02  0.11126923005E+02  0.31092163417E+03  0.36019003819E+03  0.17361157220E+03 0.  0.
        -24    2    3    3    0    0  0.49209533567E+02 -0.39698839234E+02  0.28495058292E+03  0.30280048073E+03  0.80583623600E+02 0.  0.
          6    2    1    2  501    0 -0.52913274308E+02 -0.11126923005E+02  0.17108684537E+03  0.24786110755E+03  0.17099940632E+03 0.  0.
         24    2    5    5    0    0  0.34616613010E+02 -0.15101896815E+02  0.61409800616E+02  0.10740319308E+03  0.79610960849E+02 0.  0.
          5    1    5    5  501    0 -0.87529887318E+02  0.39749738102E+01  0.10967704476E+03  0.14045791447E+03  0.47000000000E+01 0. -1.
        -13    1    6    6    0    0 -0.16623178365E+01 -0.48495915785E+01  0.68795963826E+02  0.68986712328E+02  0.00000000000E+00 0.  1.
         14    1    6    6    0    0  0.36278930847E+02 -0.10252305237E+02 -0.73861632100E+01  0.38416480747E+02  0.00000000000E+00 0. -1.
         -5    1    3    3    0  503  0.37037407415E+01  0.50825762239E+02  0.25971051249E+02  0.57389557461E+02  0.47000000000E+01 0.  1.
         11    1    4    4    0    0  0.25757986795E+02  0.21286705230E+02  0.13783729672E+03  0.14182989132E+03  0.00000000000E+00 0. -1.
        -12    1    4    4    0    0  0.23451546772E+02 -0.60985544464E+02  0.14711328620E+03  0.16097058941E+03  0.00000000000E+00 0.  1.
</event>
<event>
12    1  0.1046899E+000  0.4181267E+03  0.7818608E-02  0.1037716E+00
         21   -1    0    0  503  502  0.00000000000E+00  0.00000000000E+00  0.69260334576E+03  0.69260334576E+03  0.00000000000E+00 0. -1.
         21   -1    0    0  501  503 -0.00000000000E+00 -0.00000000000E+00 -0.26847978458E+03  0.26847978458E+03  0.00000000000E+00 0. -1.
          6    2    1    2  501    0 -0.36244319130E+03 -0.11820094466E+03  0.93622993658E+02  0.42848007642E+03  0.17173636981E+03 0.  0.
         24    2    3    3    0    0 -0.28801843844E+03 -0.10450093347E+03  0.11668960980E+02  0.31683202397E+03  0.79820428374E+02 0.  0.
         -6    2    1    2    0  502  0.36244319130E+03  0.11820094466E+03  0.33050056753E+03  0.53260305392E+03  0.17058387282E+03 0.  0.
        -24    2    5    5    0    0  0.24675220978E+03  0.11295093142E+02  0.20643851860E+03  0.33203698929E+03  0.81347821960E+02 0.  0.
          5    1    3    3  501    0 -0.74424752859E+02 -0.13700011193E+02  0.81954032678E+02  0.11164805245E+03  0.47000000000E+01 0. -1.
        -11    1    4    4    0    0 -0.24419696865E+03 -0.11203857313E+03 -0.66171390936E+01  0.26875376815E+03  0.00000000000E+00 0.  1.
         12    1    4    4    0    0 -0.43821469790E+02  0.75376396674E+01  0.18286100074E+02  0.48078255815E+02  0.00000000000E+00 0. -1.
         -5    1    5    5    0  502  0.11569098152E+03  0.10690585152E+03  0.12406204893E+03  0.20056606462E+03  0.47000000000E+01 0.  1.
         11    1    6    6    0    0  0.89911659855E+02 -0.29452380662E+02  0.10265074077E+03  0.13960201963E+03  0.00000000000E+00 0. -1.
        -12    1    6    6    0    0  0.15684054993E+03  0.40747473804E+02  0.10378777783E+03  0.19243496966E+03  0.00000000000E+00 0.  1.
</event>
<event>
12    1  0.1046899E+000  0.1873129E+03  0.7818608E-02  0.1161253E+00
         21   -1    0    0  501  502  0.00000000000E+00  0.00000000000E+00  0.10511005262E+04  0.10511005262E+04  0.00000000000E+00 0.  1.
         21   -1    0    0  502  503 -0.00000000000E+00 -0.00000000000E+00 -0.91010146266E+02  0.91010146266E+02  0.00000000000E+00 0.  1.
         -6    2    1    2    0  503 -0.21657476174E+02  0.71338000498E+02  0.23875575119E+02  0.18734144106E+03  0.17020169171E+03 0.  0.
        -24    2    3    3    0    0 -0.11865002860E+02  0.11421725108E+03  0.30548827923E+01  0.13845264997E+03  0.77288066595E+02 0.  0.
          6    2    1    2  501    0  0.21657476174E+02 -0.71338000498E+02  0.93621480482E+03  0.95476923141E+03  0.17183703880E+03 0.  0.
         24    2    5    5    0    0 -0.46368928838E+02 -0.10750183953E+02  0.41621897775E+03  0.42683341575E+03  0.81748904235E+02 0.  0.
          5    1    5    5  501    0  0.68026405012E+02 -0.60587816545E+02  0.51999582706E+03  0.52793581566E+03  0.47000000000E+01 0. -1.
        -13    1    6    6    0    0 -0.39547162837E+02 -0.42353067909E+02  0.32326267805E+03  0.32841516328E+03  0.00000000000E+00 0.  1.
         14    1    6    6    0    0 -0.68217660007E+01  0.31602883956E+02  0.92956299699E+02  0.98418252472E+02  0.00000000000E+00 0. -1.
         -5    1    3    3    0  503 -0.97924733147E+01 -0.42879250587E+02  0.20820692327E+02  0.48888791082E+02  0.47000000000E+01 0.  1.
         13    1    4    4    0    0 -0.31064646828E+02  0.10047070194E+03  0.22876070389E+02  0.10762290104E+03  0.00000000000E+00 0. -1.
        -14    1    4    4    0    0  0.19199643968E+02  0.13746549143E+02 -0.19821187597E+02  0.30829748938E+02  0.00000000000E+00 0.  1.
</event>
<event>
12    1  0.1046899E+000  0.2744635E+03  0.7818608E-02  0.1098777E+00
         21   -1    0    0  501  502  0.00000000000E+00  0.00000000000E+00  0.28885785600E+03  0.28885785600E+03  0.00000000000E+00 0.  1.
         21   -1    0    0  502  503 -0.00000000000E+00 -0.00000000000E+00 -0.31734564140E+03  0.31734564140E+03  0.00000000000E+00 0.  1.
         -6    2    1    2    0  503 -0.62640589531E+02 -0.20468117242E+03  0.11391605828E+03  0.29699632907E+03  0.17149847040E+03 0.  0.
        -24    2    3    3    0    0  0.22610520382E+02 -0.14577058197E+03  0.90492374356E+02  0.19065269561E+03  0.79995514426E+02 0.  0.
          6    2    1    2  501    0  0.62640589531E+02  0.20468117242E+03 -0.14240384368E+03  0.30920716833E+03  0.17179054820E+03 0.  0.
         24    2    5    5    0    0  0.62261119257E+02  0.10208733421E+03 -0.13229331738E+02  0.14418055177E+03  0.79465373047E+02 0.  0.
          5    1    5    5  501    0  0.37947027400E+00  0.10259383821E+03 -0.12917451194E+03  0.16502661656E+03  0.47000000000E+01 0. -1.
        -13    1    6    6    0    0  0.75029749770E+02  0.55093208105E+02 -0.19426148893E+02  0.95089958411E+02  0.00000000000E+00 0.  1.
         14    1    6    6    0    0 -0.12768630513E+02  0.46994126106E+02  0.61968171554E+01  0.49090593361E+02  0.00000000000E+00 0. -1.
         -5    1    3    3    0  503 -0.85251109913E+02 -0.58910590457E+02  0.23423683921E+02  0.10634363346E+03  0.47000000000E+01 0.  1.
         13    1    4    4    0    0  0.16785752338E+02 -0.56508447774E+02  0.81732456023E+02  0.10077281637E+03  0.00000000000E+00 0. -1.
        -14    1    4    4    0    0  0.58247680439E+01 -0.89262134193E+02  0.87599183329E+01  0.89879879242E+02  0.00000000000E+00 0.  1.
</event>
<event>
12    1  0.1046899E+000  0.1735421E+03  0.7818608E-02  0.1174220E+00
         21   -1    0    0  503  502  0.00000000000E+00  0.00000000000E+00  0.10880526442E+03  0.10880526442E+03  0.00000000000E+00 0. -1.
         21   -1    0    0  501  503 -0.00000000000E+00 -0.00000000000E+00 -0.31391417654E+03  0.31391417654E+03  0.00000000000E+00 0. -1.
          6    2    1    2  501    0 -0.20235453585E+02 -0.64535665146E+01 -0.17531898715E+03  0.24663908874E+03  0.17217134122E+03 0.  0.
         24    2    3    3    0    0 -0.53902182328E+02  0.39881978100E+02 -0.15337299711E+03  0.18512366143E+03  0.79066278156E+02 0.  0.
         -6    2    1    2    0  502  0.20235453585E+02  0.64535665146E+01 -0.29789924974E+02  0.17608035222E+03  0.17223741959E+03 0.  0.
        -24    2    5    5    0    0  0.26674501541E+02 -0.61577092038E+02 -0.11519266560E+02  0.10518931752E+03  0.80179995776E+02 0.  0.
          5    1    3    3  501    0  0.33666728742E+02 -0.46335544615E+02 -0.21945990044E+02  0.61515427317E+02  0.47000000000E+01 0. -1.
        -11    1    4    4    0    0  0.84372208876E+01 -0.10990790063E+02 -0.61300809315E+02  0.62847222573E+02  0.00000000000E+00 0.  1.
         12    1    4    4    0    0 -0.62339403215E+02  0.50872768163E+02 -0.92072187791E+02  0.12227643885E+03  0.00000000000E+00 0. -1.
         -5    1    5    5    0  502 -0.64390479556E+01  0.68030658552E+02 -0.18270658414E+02  0.70891034698E+02  0.47000000000E+01 0.  1.
         13    1    6    6    0    0 -0.22059208862E+01  0.63104491391E+00 -0.33184379781E+02  0.33263604225E+02  0.00000000000E+00 0. -1.
        -14    1    6    6    0    0  0.28880422427E+02 -0.62208136952E+02  0.21665113221E+02  0.71925713298E+02  0.00000000000E+00 0.  1.
</event>
<event>
12    1  0.1046899E+000  0.2047848E+03  0.7818608E-02  0.1149037E+00
         21   -1    0    0  501  502  0.00000000000E+00  0.00000000000E+00  0.12085989137E+03  0.12085989137E+03  0.00000000000E+00 0. -1.
         21   -1    0    0  502  503 -0.00000000000E+00 -0.00000000000E+00 -0.34553691675E+03  0.34553691675E+03  0.00000000000E+00 0. -1.
         -6    2    1    2    0  503 -0.37818183255E+02  0.70443624054E+02 -0.54896658514E+02  0.21201524936E+03  0.18853196994E+03 0.  0.
        -24    2    3    3    0    0 -0.95753646697E+02  0.17524414073E+02 -0.36945162075E+02  0.13138456703E+03  0.80131725975E+02 0.  0.
          6    2    1    2  501    0  0.37818183255E+02 -0.70443624054E+02 -0.16978036686E+03  0.25438155875E+03  0.17173259826E+03 0.  0.
         24    2    5    5    0    0  0.44937351754E+02 -0.30670825428E+02 -0.20387952424E+02  0.99550226126E+02  0.80836339616E+02 0.  0.
          5    1    5    5  501    0 -0.71191684989E+01 -0.39772798625E+02 -0.14939241444E+03  0.15483133263E+03  0.47000000000E+01 0. -1.
        -13    1    6    6    0    0  0.46266168208E+02 -0.41685495263E+02 -0.42097947303E+02  0.75169648151E+02  0.00000000000E+00 0.  1.
         14    1    6    6    0    0 -0.13288164544E+01  0.11014669834E+02  0.21709994879E+02  0.24380577975E+02  0.00000000000E+00 0. -1.
         -5    1    3    3    0  503  0.57935463442E+02  0.52919209981E+02 -0.17951496439E+02  0.80630682334E+02  0.47000000000E+01 0.  1.
         13    1    4    4    0    0 -0.30107811404E+02 -0.11949661228E+02 -0.48682667292E+02  0.58474582561E+02  0.00000000000E+00 0. -1.
        -14    1    4    4    0    0 -0.65645835293E+02  0.29474075301E+02  0.11737505217E+02  0.72909984467E+02  0.00000000000E+00 0.  1.
</event>
<event>
12    1  0.1046899E+000  0.4172618E+03  0.7818608E-02  0.1038069E+00
         21   -1    0    0  501  502  0.00000000000E+00  0.00000000000E+00  0.16710562289E+04  0.16710562289E+04  0.00000000000E+00 0.  1.
         21   -1    0    0  502  503 -0.00000000000E+00 -0.00000000000E+00 -0.10456331809E+03  0.10456331809E+03  0.00000000000E+00 0.  1.
         -6    2    1    2    0  503 -0.25574089801E+02 -0.37897635677E+03  0.85468717362E+03  0.95052876405E+03  0.16952183774E+03 0.  0.
        -24    2    3    3    0    0  0.42136152758E+02 -0.22195673310E+03  0.43718040597E+03  0.49933719697E+03  0.84679880608E+02 0.  0.
          6    2    1    2  501    0  0.25574089801E+02  0.37897635677E+03  0.71180573718E+03  0.82509078293E+03  0.17271444506E+03 0.  0.
         24    2    5    5    0    0  0.70935990450E+02  0.32001181635E+03  0.62855619833E+03  0.71334511288E+03  0.79617072644E+02 0.  0.
          5    1    5    5  501    0 -0.45361900649E+02  0.58964540425E+02  0.83249538850E+02  0.11174567006E+03  0.47000000000E+01 0. -1.
        -13    1    6    6    0    0  0.43377349525E+02  0.78414957114E+02  0.12124175097E+03  0.15076492341E+03  0.00000000000E+00 0.  1.
         14    1    6    6    0    0  0.27558640925E+02  0.24159685924E+03  0.50731444736E+03  0.56258018947E+03  0.00000000000E+00 0. -1.
         -5    1    3    3    0  503 -0.67710242559E+02 -0.15701962367E+03  0.41750676765E+03  0.45119156708E+03  0.47000000000E+01 0.  1.
         11    1    4    4    0    0  0.32397367662E+02 -0.75563827446E+02  0.23908677787E+03  0.25282794308E+03  0.00000000000E+00 0. -1.
        -12    1    4    4    0    0  0.97387850958E+01 -0.14639290566E+03  0.19809362810E+03  0.24650925389E+03  0.00000000000E+00 0.  1.
</event>
<event>
12    1  0.1046899E+000  0.2071758E+03  0.7818608E-02  0.1144136E+00
         21   -1    0    0  503  502  0.00000000000E+00  0.00000000000E+00  0.17470212506E+03  0.17470212506E+03  0.00000000000E+00 0.  1.
         21   -1    0    0  501  503 -0.00000000000E+00 -0.00000000000E+00 -0.24482916983E+03  0.24482916983E+03  0.00000000000E+00 0. -1.
          6    2    1    2  501    0  0.16290762239E+02  0.11286978259E+03 -0.21915517994E+02  0.20833168457E+03  0.17296480599E+03 0.  0.
         24    2    3    3    0    0  0.65023043951E+02  0.11989847146E+03 -0.12971328553E+02  0.15806911129E+03  0.78828604430E+02 0.  0.
         -6    2    1    2    0  502 -0.16290762239E+02 -0.11286978259E+03 -0.48211526769E+02  0.21119961032E+03  0.17110215466E+03 0.  0.
        -24    2    5    5    0    0  0.20232688987E+02  0.46955104012E+01 -0.24583562854E+02  0.85756669964E+02  0.79488649247E+02 0.  0.
          5    1    3    3  501    0 -0.48732281713E+02 -0.70286888667E+01 -0.89441894408E+01  0.50262573281E+02  0.47000000000E+01 0. -1.
        -13    1    4    4    0    0  0.48269476341E+02  0.14783916764E+02  0.23148109771E+01  0.50535778326E+02  0.00000000000E+00 0.  1.
         14    1    4    4    0    0  0.16753567610E+02  0.10511455470E+03 -0.15286139531E+02  0.10753333296E+03  0.00000000000E+00 0. -1.
         -5    1    5    5    0  502 -0.36523451226E+02 -0.11756529299E+03 -0.23627963915E+02  0.12544294036E+03  0.47000000000E+01 0.  1.
         11    1    6    6    0    0  0.31529840700E+02  0.28235039088E+01  0.21503137897E+02  0.38268629036E+02  0.00000000000E+00 0. -1.
        -12    1    6    6    0    0 -0.11297151713E+02  0.18720064924E+01 -0.46086700750E+02  0.47488040928E+02  0.00000000000E+00 0.  1.
</event>
<event>
12    1  0.1046899E+000  0.4970738E+03  0.7818608E-02  0.1014560E+00
         21   -1    0    0  501  502  0.00000000000E+00  0.00000000000E+00  0.43573937353E+03  0.43573937353E+03  0.00000000000E+00 0.  1.
         21   -1    0    0  502  503 -0.00000000000E+00 -0.00000000000E+00 -0.62683984117E+03  0.62683984117E+03  0.00000000000E+00 0.  1.
         -6    2    1    2    0  503  0.14593197858E+03 -0.44288980234E+03  0.68918086097E+02  0.50160505536E+03  0.17149463428E+03 0.  0.
        -24    2    3    3    0    0  0.15081588830E+03 -0.26519222832E+03  0.72787843349E+02  0.32373615587E+03  0.80216446902E+02 0.  0.
          6    2    1    2  501    0 -0.14593197858E+03  0.44288980234E+03 -0.26001855374E+03  0.56097415934E+03  0.17214772661E+03 0.  0.
         24    2    5    5    0    0 -0.12292661710E+03  0.27930714486E+03 -0.99765989376E+02  0.33077531732E+03  0.79596630279E+02 0.  0.
          5    1    5    5  501    0 -0.23005361478E+02  0.16358265748E+03 -0.16025256436E+03  0.23019884202E+03  0.47000000000E+01 0. -1.
        -13    1    6    6    0    0 -0.31511629768E+02  0.13632200486E+02 -0.86353956634E+01  0.35403245035E+02  0.00000000000E+00 0.  1.
         14    1    6    6    0    0 -0.91414987333E+02  0.26567494437E+03 -0.91130593713E+02  0.29537207229E+03  0.00000000000E+00 0. -1.
         -5    1    3    3    0  503 -0.48839097170E+01 -0.17769757401E+03 -0.38697572524E+01  0.17786889949E+03  0.47000000000E+01 0.  1.
         13    1    4    4    0    0  0.13788001325E+03 -0.25420028830E+03  0.47175189501E+02  0.29300884480E+03  0.00000000000E+00 0. -1.
        -14    1    4    4    0    0  0.12935875044E+02 -0.10991940024E+02  0.25612653848E+02  0.30727311073E+02  0.00000000000E+00 0.  1.
</event>
<event>
12    1  0.1046899E+000  0.2077044E+03  0.7818608E-02  0.1145401E+00
         21   -1    0    0  503  502  0.00000000000E+00  0.00000000000E+00  0.71745257568E+02  0.71745257568E+02  0.00000000000E+00 0. -1.
         21   -1    0    0  501  503 -0.00000000000E+00 -0.00000000000E+00 -0.63372543995E+03  0.63372543995E+03  0.00000000000E+00 0. -1.
          6    2    1    2  501    0  0.77587270527E+02  0.58731999735E+02 -0.17836116447E+03  0.27377694611E+03  0.18349898879E+03 0.  0.
         24    2    3    3    0    0  0.11818131431E+03  0.63971574830E+02 -0.17381286142E+03  0.23232689667E+03  0.75536022417E+02 0.  0.
         -6    2    1    2    0  502 -0.77587270527E+02 -0.58731999735E+02 -0.38361901790E+03  0.43169375141E+03  0.17241436067E+03 0.  0.
        -24    2    5    5    0    0 -0.19748665539E+02 -0.96203030158E+02 -0.22178812989E+03  0.25573719806E+03  0.81033987389E+02 0.  0.
          5    1    3    3  501    0 -0.40594043780E+02 -0.52395750954E+01 -0.45483030484E+01  0.41450049436E+02  0.47000000000E+01 0. -1.
        -13    1    4    4    0    0  0.85565051258E+01  0.26862683596E+02 -0.75081785320E+02  0.80200324418E+02  0.00000000000E+00 0.  1.
         14    1    4    4    0    0  0.10962480918E+03  0.37108891234E+02 -0.98731076105E+02  0.15212657225E+03  0.00000000000E+00 0. -1.
         -5    1    5    5    0  502 -0.57838604988E+02  0.37471030423E+02 -0.16183088802E+03  0.17595655334E+03  0.47000000000E+01 0.  1.
         13    1    6    6    0    0 -0.62950620449E+01  0.67367626362E+01 -0.77147070928E+02  0.77696089540E+02  0.00000000000E+00 0. -1.
        -14    1    6    6    0    0 -0.13453603494E+02 -0.10293979279E+03 -0.14464105896E+03  0.17804110852E+03  0.00000000000E+00 0.  1.
</event>
<event>
12    1  0.1046899E+000  0.2676920E+03  0.7818608E-02  0.1102628E+00
         21   -1    0    0  503  502  0.00000000000E+00  0.00000000000E+00  0.17786260158E+03  0.17786260158E+03  0.00000000000E+00 0.  1.
         21   -1    0    0  501  503 -0.00000000000E+00 -0.00000000000E+00 -0.40444259326E+03  0.40444259326E+03  0.00000000000E+00 0. -1.
          6    2    1    2  501    0 -0.17098023949E+03 -0.11356266921E+03 -0.13248271748E+03  0.29855653847E+03  0.17162055267E+03 0.  0.
         24    2    3    3    0    0 -0.13983838081E+03 -0.13475383398E+03 -0.62748831342E+02  0.21916015504E+03  0.79877338475E+02 0.  0.
         -6    2    1    2    0  502  0.17098023949E+03  0.11356266921E+03 -0.94097274200E+02  0.28374865637E+03  0.17183794937E+03 0.  0.
        -24    2    5    5    0    0  0.53005323045E+02  0.59387629573E+02 -0.10433999271E+03  0.15344125400E+03  0.79504273677E+02 0.  0.
          5    1    3    3  501    0 -0.31141858677E+02  0.21191164764E+02 -0.69733886142E+02  0.79396383434E+02  0.47000000000E+01 0. -1.
        -13    1    4    4    0    0 -0.52628822696E+02 -0.25187977813E+02  0.13248489633E+02  0.59831009371E+02  0.00000000000E+00 0.  1.
         14    1    4    4    0    0 -0.87209558114E+02 -0.10956585616E+03 -0.75997320976E+02  0.15932914567E+03  0.00000000000E+00 0. -1.
         -5    1    5    5    0  502  0.11797491644E+03  0.54175039641E+02  0.10242718510E+02  0.13030740237E+03  0.47000000000E+01 0.  1.
         11    1    6    6    0    0  0.73096116623E+02  0.53660214667E+02 -0.76515253988E+02  0.11864672350E+03  0.00000000000E+00 0. -1.
        -12    1    6    6    0    0 -0.20090793577E+02  0.57274149063E+01 -0.27824738721E+02  0.34794530504E+02  0.00000000000E+00 0.  1.
</event>
<event>
12    1  0.1046899E+000  0.2367387E+03  0.7818608E-02  0.1121985E+00
         21   -1    0    0  503  502  0.00000000000E+00  0.00000000000E+00  0.89103590776E+03  0.89103590776E+03  0.00000000000E+00 0. -1.
         21   -1    0    0  501  503 -0.00000000000E+00 -0.00000000000E+00 -0.67758530055E+02  0.67758530055E+02  0.00000000000E+00 0. -1.
          6    2    1    2  501    0 -0.14158751649E+03  0.78851256973E+02  0.28323986285E+03  0.36914562863E+03  0.17256630518E+03 0.  0.
         24    2    3    3    0    0 -0.23652433663E+02  0.54751741783E+02  0.19981429825E+03  0.22261445372E+03  0.77937477342E+02 0.  0.
         -6    2    1    2    0  502  0.14158751649E+03 -0.78851256973E+02  0.54003751485E+03  0.58964880918E+03  0.17257072511E+03 0.  0.
        -24    2    5    5    0    0  0.15128741904E+03 -0.76559116888E+02  0.33475071810E+03  0.38406646330E+03  0.81852449110E+02 0.  0.
          5    1    3    3  501    0 -0.11793508282E+03  0.24099515190E+02  0.83425564602E+02  0.14653117491E+03  0.47000000000E+01 0. -1.
        -11    1    4    4    0    0 -0.11926851286E+02 -0.74609543963E+01  0.11961248031E+03  0.12043695890E+03  0.00000000000E+00 0.  1.
         12    1    4    4    0    0 -0.11725582377E+02  0.62212696179E+02  0.80201817934E+02  0.10217749482E+03  0.00000000000E+00 0. -1.
         -5    1    5    5    0  502 -0.96999025507E+01 -0.22921400853E+01  0.20528679675E+03  0.20558234588E+03  0.47000000000E+01 0.  1.
         11    1    6    6    0    0  0.19594587414E+02  0.14286468917E+01  0.46196863419E+01  0.20182427747E+02  0.00000000000E+00 0. -1.
        -12    1    6    6    0    0  0.13169283162E+03 -0.77987763779E+02  0.33013103176E+03  0.36388403555E+03  0.00000000000E+00 0.  1.
</event>
<event>
12    1  0.1046899E+000  0.2405700E+03  0.7818608E-02  0.1119889E+00
         21   -1    0    0  503  502  0.00000000000E+00  0.00000000000E+00  0.12576981529E+04  0.12576981529E+04  0.00000000000E+00 0.  1.
         21   -1    0    0  501  503 -0.00000000000E+00 -0.00000000000E+00 -0.45479089761E+02  0.45479089761E+02  0.00000000000E+00 0.  1.
          6    2    1    2  501    0 -0.16251741395E+03  0.40347451030E+02  0.60236080053E+03  0.64862352450E+03  0.17272555074E+03 0.  0.
         24    2    3    3    0    0 -0.12169048520E+03  0.25709503211E+02  0.22733452438E+03  0.27106835578E+03  0.79545677340E+02 0.  0.
         -6    2    1    2    0  502  0.16251741395E+03 -0.40347451030E+02  0.60985826264E+03  0.65455371819E+03  0.16874134896E+03 0.  0.
        -24    2    5    5    0    0  0.11159162862E+02 -0.43530284666E+01  0.18585373496E+03  0.20288254564E+03  0.80475093982E+02 0.  0.
          5    1    3    3  501    0 -0.40826928747E+02  0.14637947819E+02  0.37502627615E+03  0.37755516872E+03  0.47000000000E+01 0. -1.
        -13    1    4    4    0    0 -0.13308066666E+02 -0.18434338787E+02  0.11338361676E+02  0.25406454502E+02  0.00000000000E+00 0.  1.
         14    1    4    4    0    0 -0.10838241854E+03  0.44143841998E+02  0.21599616270E+03  0.24566190127E+03  0.00000000000E+00 0. -1.
         -5    1    5    5    0  502  0.15135825109E+03 -0.35994422564E+02  0.42400452768E+03  0.45167117255E+03  0.47000000000E+01 0.  1.
         13    1    6    6    0    0  0.37832512092E+02 -0.21651438694E+01  0.16402768738E+03  0.16834805923E+03  0.00000000000E+00 0. -1.
        -14    1    6    6    0    0 -0.26673349230E+02 -0.21878845972E+01  0.21826047577E+02  0.34534486401E+02  0.00000000000E+00 0.  1.
</event>
<event>
12    1  0.1046899E+000  0.2045410E+03  0.7818608E-02  0.1146259E+00
         21   -1    0    0  501  502  0.00000000000E+00  0.00000000000E+00  0.42120953844E+03  0.42120953844E+03  0.00000000000E+00 0.  1.
         21   -1    0    0  502  503 -0.00000000000E+00 -0.00000000000E+00 -0.31254745476E+03  0.31254745476E+03  0.00000000000E+00 0. -1.
         -6    2    1    2    0  503  0.97885127989E+02  0.45077230357E+02  0.35779077802E+03  0.41141843350E+03  0.17215525438E+03 0.  0.
        -24    2    3    3    0    0  0.87561293070E+02  0.14957968407E+02  0.11247768064E+03  0.16400307978E+03  0.79718634419E+02 0.  0.
          6    2    1    2  501    0 -0.97885127989E+02 -0.45077230357E+02 -0.24912869434E+03  0.32233855970E+03  0.17384931909E+03 0.  0.
         24    2    5    5    0    0 -0.57077436928E+02 -0.81655206457E+02 -0.93662589530E+02  0.15742944616E+03  0.78012456004E+02 0.  0.
          5    1    5    5  501    0 -0.40807691060E+02  0.36577976100E+02 -0.15546610481E+03  0.16490911354E+03  0.47000000000E+01 0. -1.
        -11    1    6    6    0    0 -0.65010208581E+02 -0.33760468233E+02 -0.34711869948E+02  0.81061768735E+02  0.00000000000E+00 0.  1.
         12    1    6    6    0    0  0.79327716527E+01 -0.47894738223E+02 -0.58950719582E+02  0.76367677421E+02  0.00000000000E+00 0. -1.
         -5    1    3    3    0  503  0.10323834918E+02  0.30119261950E+02  0.24531309738E+03  0.24741535372E+03  0.47000000000E+01 0.  1.
         13    1    4    4    0    0  0.73542585375E+01  0.34439475822E+02  0.21952195016E+02  0.41497728607E+02  0.00000000000E+00 0. -1.
        -14    1    4    4    0    0  0.80207034533E+02 -0.19481507414E+02  0.90525485623E+02  0.12250535118E+03  0.00000000000E+00 0.  1.
</event>
<event>
12    1  0.1046899E+000  0.2568924E+03  0.7818608E-02  0.1109112E+00
         21   -1    0    0  503  502  0.00000000000E+00  0.00000000000E+00  0.67285044144E+03  0.67285044144E+03  0.00000000000E+00 0.  1.
         21   -1    0    0  501  503 -0.00000000000E+00 -0.00000000000E+00 -0.98292010075E+02  0.98292010075E+02  0.00000000000E+00 0.  1.
          6    2    1    2  501    0  0.13527907120E+03  0.13174540342E+03  0.31243136483E+03  0.40412160252E+03  0.17333099396E+03 0.  0.
         24    2    3    3    0    0  0.13954431772E+03  0.47911696381E+02  0.24159578429E+03  0.29418501974E+03  0.80050956207E+02 0.  0.
         -6    2    1    2    0  502 -0.13527907120E+03 -0.13174540342E+03  0.26212706654E+03  0.36702084900E+03  0.17417355184E+03 0.  0.
        -24    2    5    5    0    0 -0.68643220389E+02 -0.13200958445E+03  0.24558283693E+03  0.29820073611E+03  0.80463203563E+02 0.  0.
          5    1    3    3  501    0 -0.42652465224E+01  0.83833707041E+02  0.70835580532E+02  0.10993658278E+03  0.47000000000E+01 0. -1.
        -11    1    4    4    0    0  0.29236176477E+02  0.20154932771E+02  0.13027887777E+03  0.13503170488E+03  0.00000000000E+00 0.  1.
         12    1    4    4    0    0  0.11030814125E+03  0.27756763610E+02  0.11131690652E+03  0.15915331485E+03  0.00000000000E+00 0. -1.
         -5    1    5    5    0  502 -0.66635850811E+02  0.26418103247E+00  0.16544229607E+02  0.68820112890E+02  0.47000000000E+01 0.  1.
         13    1    6    6    0    0 -0.13219946588E+02 -0.22177010704E+02  0.11867435536E+03  0.12145035780E+03  0.00000000000E+00 0. -1.
        -14    1    6    6    0    0 -0.55423273801E+02 -0.10983257375E+03  0.12690848158E+03  0.17675037831E+03  0.00000000000E+00 0.  1.
</event>
<event>
12    1  0.1046899E+000  0.2605243E+03  0.7818608E-02  0.1107001E+00
         21   -1    0    0  503  502  0.00000000000E+00  0.00000000000E+00  0.13018380357E+03  0.13018380357E+03  0.00000000000E+00 0. -1.
         21   -1    0    0  501  503 -0.00000000000E+00 -0.00000000000E+00 -0.68256768674E+03  0.68256768674E+03  0.00000000000E+00 0.  1.
          6    2    1    2  501    0 -0.11521067095E+03  0.15703569914E+03 -0.47554699005E+03  0.54223410946E+03  0.17302942006E+03 0.  0.
         24    2    3    3    0    0 -0.13969085965E+03  0.12124852705E+03 -0.30977611833E+03  0.37082211094E+03  0.85633246411E+02 0.  0.
         -6    2    1    2    0  502  0.11521067095E+03 -0.15703569914E+03 -0.76836893118E+02  0.27051738085E+03  0.17129517125E+03 0.  0.
        -24    2    5    5    0    0  0.32007593463E+02 -0.33339147966E+02  0.19966712177E+02  0.92706760037E+02  0.77845288458E+02 0.  0.
          5    1    3    3  501    0  0.24480188699E+02  0.35787172086E+02 -0.16577087172E+03  0.17141199852E+03  0.47000000000E+01 0. -1.
        -11    1    4    4    0    0 -0.35763207098E+02 -0.62882509949E+01 -0.34254750577E+02  0.49919305079E+02  0.00000000000E+00 0.  1.
         12    1    4    4    0    0 -0.10392765255E+03  0.12753677805E+03 -0.27552136775E+03  0.32090280586E+03  0.00000000000E+00 0. -1.
         -5    1    5    5    0  502  0.83203077489E+02 -0.12369655117E+03 -0.96803605296E+02  0.17781062081E+03  0.47000000000E+01 0.  1.
         11    1    6    6    0    0 -0.29893658831E+01 -0.75767867010E+01  0.42833451046E+02  0.43601015282E+02  0.00000000000E+00 0. -1.
        -12    1    6    6    0    0  0.34996959346E+02 -0.25762361265E+02 -0.22866738869E+02  0.49105744755E+02  0.00000000000E+00 0.  1.
</event>
<event>
12    1  0.1046899E+000  0.2875678E+03  0.7818608E-02  0.1091708E+00
         21   -1    0    0  503  502  0.00000000000E+00  0.00000000000E+00  0.42845038674E+02  0.42845038674E+02  0.00000000000E+00 0. -1.
         21   -1    0    0  501  503 -0.00000000000E+00 -0.00000000000E+00 -0.19990268953E+04  0.19990268953E+04  0.00000000000E+00 0. -1.
          6    2    1    2  501    0 -0.21208069133E+03 -0.89012391470E+02 -0.11743417837E+04  0.12090384149E+04  0.17260891694E+03 0.  0.
         24    2    3    3    0    0 -0.19278145986E+03 -0.10284544609E+03 -0.81498811121E+03  0.84887044618E+03  0.92916822673E+02 0.  0.
         -6    2    1    2    0  502  0.21208069133E+03  0.89012391470E+02 -0.78184007283E+03  0.83283351902E+03  0.17157023471E+03 0.  0.
        -24    2    5    5    0    0  0.20276521604E+03  0.22856158292E+02 -0.62771716075E+03  0.66478772973E+03  0.79232284399E+02 0.  0.
          5    1    3    3  501    0 -0.19299231474E+02  0.13833054616E+02 -0.35935367254E+03  0.36016796874E+03  0.47000000000E+01 0. -1.
        -11    1    4    4    0    0 -0.94252446162E+02 -0.64621082080E+01 -0.42095716827E+03  0.43142811680E+03  0.00000000000E+00 0.  1.
         12    1    4    4    0    0 -0.98529013696E+02 -0.96383337878E+02 -0.39403094294E+03  0.41744232938E+03  0.00000000000E+00 0. -1.
         -5    1    5    5    0  502  0.93154752959E+01  0.66156233178E+02 -0.15412291208E+03  0.16804578929E+03  0.47000000000E+01 0.  1.
         13    1    6    6    0    0  0.28844772204E+02 -0.59456894695E+01 -0.20012573374E+03  0.20228119392E+03  0.00000000000E+00 0. -1.
        -14    1    6    6    0    0  0.17392044383E+03  0.28801847761E+02 -0.42759142701E+03  0.46250653581E+03  0.00000000000E+00 0.  1.
</event>
<event>
12    1  0.1046899E+000  0.2164677E+03  0.7818608E-02  0.1136800E+00
         21   -1    0    0  501  502  0.00000000000E+00  0.00000000000E+00  0.11176346681E+03  0.11176346681E+03  0.00000000000E+00 0.  1.
         21   -1    0    0  502  503 -0.00000000000E+00 -0.00000000000E+00 -0.63852562979E+03  0.63852562979E+03  0.00000000000E+00 0.  1.
         -6    2    1    2    0  503  0.71988714071E+02  0.10881317550E+03 -0.48397546076E+03  0.52963337144E+03  0.17104554776E+03 0.  0.
        -24    2    3    3    0    0  0.99507859702E+02  0.29428228959E+02 -0.31922632643E+03  0.34463704613E+03  0.78111531037E+02 0.  0.
          6    2    1    2  501    0 -0.71988714071E+02 -0.10881317550E+03 -0.42786702218E+02  0.22065572515E+03  0.17272974568E+03 0.  0.
         24    2    5    5    0    0 -0.61930417939E+02 -0.14171129232E+03 -0.57292616526E+02  0.18302638871E+03  0.79364652202E+02 0.  0.
          5    1    5    5  501    0 -0.10058296132E+02  0.32898116821E+02  0.14505914308E+02  0.37629336446E+02  0.47000000000E+01 0. -1.
        -11    1    6    6    0    0 -0.31417388957E+01  0.42835975065E-01 -0.26274643398E+02  0.26461845058E+02  0.00000000000E+00 0.  1.
         12    1    6    6    0    0 -0.58788679044E+02 -0.14175412829E+03 -0.31017973128E+02  0.15656454365E+03  0.00000000000E+00 0. -1.
         -5    1    3    3    0  503 -0.27519145631E+02  0.79384946538E+02 -0.16474913433E+03  0.18499632531E+03  0.47000000000E+01 0.  1.
         11    1    4    4    0    0  0.33756413244E+02 -0.13579459822E+02 -0.18959443634E+03  0.19305426039E+03  0.00000000000E+00 0. -1.
        -12    1    4    4    0    0  0.65751446458E+02  0.43007688781E+02 -0.12963189009E+03  0.15158278574E+03  0.00000000000E+00 0.  1.
</event>
<event>
12    1  0.1046899E+000  0.2348554E+03  0.7818608E-02  0.1123281E+00
         21   -1    0    0  501  502  0.00000000000E+00  0.00000000000E+00  0.25263747310E+02  0.25263747310E+02  0.00000000000E+00 0. -1.
         21   -1    0    0  502  503 -0.00000000000E+00 -0.00000000000E+00 -0.29473227470E+04  0.29473227470E+04  0.00000000000E+00 0. -1.
         -6    2    1    2    0  503 -0.15253219804E+03  0.48230292314E+02 -0.70409160888E+03  0.74222775385E+03  0.17194421291E+03 0.  0.
        -24    2    3    3    0    0 -0.99277855326E+02  0.29975568207E+02 -0.65656983058E+03  0.66840587780E+03  0.70198631061E+02 0.  0.
          6    2    1    2  501    0  0.15253219804E+03 -0.48230292314E+02 -0.22179673909E+04  0.22303587405E+04  0.17183867993E+03 0.  0.
         24    2    5    5    0    0  0.57194522398E+02 -0.49942807893E+02 -0.17095878027E+04  0.17130927540E+04  0.78935615116E+02 0.  0.
          5    1    5    5  501    0  0.95337675646E+02  0.17125155794E+01 -0.50837958815E+03  0.51726598647E+03  0.47000000000E+01 0. -1.
        -11    1    6    6    0    0  0.74750072208E+02 -0.26400934242E+02 -0.13379025422E+04  0.13402491541E+04  0.00000000000E+00 0.  1.
         12    1    6    6    0    0 -0.17555549809E+02 -0.23541873652E+02 -0.37168526054E+03  0.37284359998E+03  0.00000000000E+00 0. -1.
         -5    1    3    3    0  503 -0.53254342719E+02  0.18254724107E+02 -0.47521778299E+02  0.73821876049E+02  0.47000000000E+01 0.  1.
         11    1    4    4    0    0 -0.12844363868E+02  0.21562901095E+02 -0.31395127398E+03  0.31495291524E+03  0.00000000000E+00 0. -1.
        -12    1    4    4    0    0 -0.86433491458E+02  0.84126671118E+01 -0.34261855660E+03  0.35345296256E+03  0.00000000000E+00 0.  1.
</event>
<event>
12    1  0.1046899E+000  0.2279277E+03  0.7818608E-02  0.1128357E+00
         21   -1    0    0  503  502  0.00000000000E+00  0.00000000000E+00  0.45283340624E+03  0.45283340624E+03  0.00000000000E+00 0. -1.
         21   -1    0    0  501  503 -0.00000000000E+00 -0.00000000000E+00 -0.12266007387E+03  0.12266007387E+03  0.00000000000E+00 0. -1.
          6    2    1    2  501    0  0.12174649782E+03  0.83167697137E+02  0.88249824644E+02  0.24311110844E+03  0.17197646326E+03 0.  0.
         24    2    3    3    0    0  0.11261322216E+03  0.11834835627E+03  0.49111137094E+02  0.18949187341E+03  0.82505727475E+02 0.  0.
         -6    2    1    2    0  502 -0.12174649782E+03 -0.83167697137E+02  0.24192350772E+03  0.33238237167E+03  0.17381594240E+03 0.  0.
        -24    2    5    5    0    0 -0.11509023265E+02 -0.84479359915E+02  0.11476702307E+03  0.16402298570E+03  0.80391855217E+02 0.  0.
          5    1    3    3  501    0  0.91332756627E+01 -0.35180659132E+02  0.39138687550E+02  0.53619235022E+02  0.47000000000E+01 0. -1.
        -13    1    4    4    0    0  0.47028263295E+02  0.81809025631E+02  0.62564036046E+02  0.11321940129E+03  0.00000000000E+00 0.  1.
         14    1    4    4    0    0  0.65584958867E+02  0.36539330639E+02 -0.13452898951E+02  0.76272472120E+02  0.00000000000E+00 0. -1.
         -5    1    5    5    0  502 -0.11023747456E+03  0.13116627776E+01  0.12715648465E+03  0.16835938597E+03  0.47000000000E+01 0.  1.
         11    1    6    6    0    0 -0.26228184780E+02 -0.87669621973E+02  0.65579442822E+02  0.11258127560E+03  0.00000000000E+00 0. -1.
        -12    1    6    6    0    0  0.14719161514E+02  0.31902620585E+01  0.49187580251E+02  0.51441710107E+02  0.00000000000E+00 0.  1.
</event>
<event>
12    1  0.1046899E+000  0.2032854E+03  0.7818608E-02  0.1147042E+00
         21   -1    0    0  503  502  0.00000000000E+00  0.00000000000E+00  0.47262970112E+02  0.47262970112E+02  0.00000000000E+00 0.  1.
         21   -1    0    0  501  503 -0.00000000000E+00 -0.00000000000E+00 -0.89304284538E+03  0.89304284538E+03  0.00000000000E+00 0.  1.
          6    2    1    2  501    0 -0.56870172818E+02 -0.91220973378E+02 -0.35297697867E+03  0.40722080095E+03  0.17228044207E+03 0.  0.
         24    2    3    3    0    0 -0.92359861174E+02 -0.74538651712E+02 -0.33419417314E+03  0.36348635664E+03  0.79688340103E+02 0.  0.
         -6    2    1    2    0  502  0.56870172818E+02  0.91220973378E+02 -0.49280289660E+03  0.53308501454E+03  0.17253827196E+03 0.  0.
        -24    2    5    5    0    0 -0.44472567681E+01 -0.11054105665E+02 -0.13710478836E+03  0.15790072226E+03  0.77414105664E+02 0.  0.
          5    1    3    3  501    0  0.35489688356E+02 -0.16682321666E+02 -0.18782805528E+02  0.43734444311E+02  0.47000000000E+01 0. -1.
        -11    1    4    4    0    0 -0.65879403979E+01 -0.48222723404E+02 -0.16430685582E+03  0.17136386690E+03  0.00000000000E+00 0.  1.
         12    1    4    4    0    0 -0.85771920776E+02 -0.26315928308E+02 -0.16988731732E+03  0.19212248974E+03  0.00000000000E+00 0. -1.
         -5    1    5    5    0  502  0.61317429586E+02  0.10227507904E+03 -0.35569810825E+03  0.37518429228E+03  0.47000000000E+01 0.  1.
         13    1    6    6    0    0 -0.22992592211E+02  0.27305752961E+02 -0.64337959432E+02  0.73577418174E+02  0.00000000000E+00 0. -1.
        -14    1    6    6    0    0  0.18545335443E+02 -0.38359858626E+02 -0.72766828926E+02  0.84323304089E+02  0.00000000000E+00 0.  1.
</event>
<event>
12    1  0.1046899E+000  0.3683545E+03  0.7818608E-02  0.1055355E+00
         21   -1    0    0  501  502  0.00000000000E+00  0.00000000000E+00  0.17959285651E+03  0.17959285651E+03  0.00000000000E+00 0. -1.
         21   -1    0    0  502  503 -0.00000000000E+00 -0.00000000000E+00 -0.78013785003E+03  0.78013785003E+03  0.00000000000E+00 0. -1.
         -6    2    1    2    0  503  0.25345895433E+03  0.20440720607E+03 -0.38681035880E+03  0.53414162152E+03  0.17222447775E+03 0.  0.
        -24    2    3    3    0    0  0.68689551711E+02  0.24082554948E+02 -0.13765735616E+03  0.17531572965E+03  0.80547088035E+02 0.  0.
          6    2    1    2  501    0 -0.25345895433E+03 -0.20440720607E+03 -0.21373463472E+03  0.42558908502E+03  0.17152209123E+03 0.  0.
         24    2    5    5    0    0 -0.96456158807E+02 -0.13280448641E+03 -0.16507925662E+03  0.24623952944E+03  0.80261589275E+02 0.  0.
          5    1    5    5  501    0 -0.15700279552E+03 -0.71602719668E+02 -0.48655378098E+02  0.17934955557E+03  0.47000000000E+01 0. -1.
        -11    1    6    6    0    0 -0.25964303983E+02 -0.54904978042E+02 -0.14176796415E+02  0.62367325193E+02  0.00000000000E+00 0.  1.
         12    1    6    6    0    0 -0.70491854824E+02 -0.77899508363E+02 -0.15090246021E+03  0.18387220425E+03  0.00000000000E+00 0. -1.
         -5    1    3    3    0  503  0.18476940262E+03  0.18032465113E+03 -0.24915300264E+03  0.35882589187E+03  0.47000000000E+01 0.  1.
         11    1    4    4    0    0  0.59576713794E+02  0.47387637227E+02 -0.70920544001E+02  0.10404180193E+03  0.00000000000E+00 0. -1.
        -12    1    4    4    0    0  0.91128379169E+01 -0.23305082279E+02 -0.66736812158E+02  0.71273927715E+02  0.00000000000E+00 0.  1.
</event>
<event>
12    1  0.1046899E+000  0.2083355E+03  0.7818608E-02  0.1143144E+00
         21   -1    0    0  503  502  0.00000000000E+00  0.00000000000E+00  0.12515994893E+03  0.12515994893E+03  0.00000000000E+00 0. -1.
         21   -1    0    0  501  503 -0.00000000000E+00 -0.00000000000E+00 -0.35737712590E+03  0.35737712590E+03  0.00000000000E+00 0. -1.
          6    2    1    2  501    0  0.59099681803E+02 -0.95275477933E+02 -0.70992126248E+02  0.22009900710E+03  0.17559470907E+03 0.  0.
         24    2    3    3    0    0  0.75593281843E+02 -0.20153436350E+02 -0.42287721301E+02  0.13787131811E+03  0.10535532131E+03 0.  0.
         -6    2    1    2    0  502 -0.59099681803E+02  0.95275477933E+02 -0.16122505072E+03  0.26243806772E+03  0.17409776945E+03 0.  0.
        -24    2    5    5    0    0 -0.48200861520E+02  0.11992492928E+03 -0.69678076966E+02  0.16689060236E+03  0.79322928792E+02 0.  0.
          5    1    3    3  501    0 -0.16493600039E+02 -0.75122041582E+02 -0.28704404947E+02  0.82227688993E+02  0.47000000000E+01 0. -1.
        -13    1    4    4    0    0  0.80193425101E+02 -0.53870221401E+02 -0.36918027554E+02  0.10342111458E+03  0.00000000000E+00 0.  1.
         14    1    4    4    0    0 -0.46001432579E+01  0.33716785051E+02 -0.53696937469E+01  0.34450203528E+02  0.00000000000E+00 0. -1.
         -5    1    5    5    0  502 -0.10898820283E+02 -0.24649451344E+02 -0.91546973752E+02  0.95547465368E+02  0.47000000000E+01 0.  1.
         13    1    6    6    0    0  0.18007635487E+02  0.38231303238E+02 -0.29748725320E+01  0.42364576591E+02  0.00000000000E+00 0. -1.
        -14    1    6    6    0    0 -0.66208497008E+02  0.81693626038E+02 -0.66703204434E+02  0.12452602577E+03  0.00000000000E+00 0.  1.
</event>
<event>
12    1  0.1046899E+000  0.1783051E+03  0.7818608E-02  0.1171663E+00
         21   -1    0    0  501  502  0.00000000000E+00  0.00000000000E+00  0.34857188607E+03  0.34857188607E+03  0.00000000000E+00 0.  1.
         21   -1    0    0  502  503 -0.00000000000E+00 -0.00000000000E+00 -0.12233942881E+03  0.12233942881E+03  0.00000000000E+00 0.  1.
         -6    2    1    2    0  503 -0.24374157024E+02 -0.44353913868E+02  0.23801672207E+03  0.29221719915E+03  0.16179481539E+03 0.  0.
        -24    2    3    3    0    0 -0.59321517378E+02 -0.25238109394E+02  0.85037576312E+02  0.13406714062E+03  0.81157896839E+02 0.  0.
          6    2    1    2  501    0  0.24374157024E+02  0.44353913868E+02 -0.11784264812E+02  0.17869411573E+03  0.17097177806E+03 0.  0.
         24    2    5    5    0    0 -0.31767851394E+01  0.17498884199E+02  0.56974100066E+02  0.99763451388E+02  0.79939947726E+02 0.  0.
          5    1    5    5  501    0  0.27550942164E+02  0.26855029670E+02 -0.68758364877E+02  0.78930664341E+02  0.47000000000E+01 0. -1.
        -13    1    6    6    0    0 -0.36214241744E+02  0.28187056356E+02  0.41014100944E+02  0.61547850713E+02  0.00000000000E+00 0.  1.
         14    1    6    6    0    0  0.33037456605E+02 -0.10688172158E+02  0.15959999122E+02  0.38215600675E+02  0.00000000000E+00 0. -1.
         -5    1    3    3    0  503  0.34947360354E+02 -0.19115804475E+02  0.15297914576E+03  0.15815005853E+03  0.47000000000E+01 0.  1.
         11    1    4    4    0    0 -0.35045833284E+02 -0.37203349948E+02  0.92771871827E+02  0.10591940276E+03  0.00000000000E+00 0. -1.
        -12    1    4    4    0    0 -0.24275684093E+02  0.11965240554E+02 -0.77342955152E+01  0.28147737864E+02  0.00000000000E+00 0.  1.
</event>
<event>
12    1  0.1046899E+000  0.2934162E+03  0.7818608E-02  0.1088652E+00
         21   -1    0    0  501  502  0.00000000000E+00  0.00000000000E+00  0.43834481777E+03  0.43834481777E+03  0.00000000000E+00 0. -1.
         21   -1    0    0  502  503 -0.00000000000E+00 -0.00000000000E+00 -0.23677995295E+03  0.23677995295E+03  0.00000000000E+00 0. -1.
         -6    2    1    2    0  503 -0.20268531014E+03 -0.12399275677E+03  0.24090627577E+03  0.37964314488E+03  0.17215558389E+03 0.  0.
        -24    2    3    3    0    0 -0.22534826887E+03 -0.11583330299E+03  0.20418037349E+03  0.33547224628E+03  0.81564739572E+02 0.  0.
          6    2    1    2  501    0  0.20268531014E+03  0.12399275677E+03 -0.39341410955E+02  0.29548162585E+03  0.17119026234E+03 0.  0.
         24    2    5    5    0    0  0.21083049118E+03  0.70539481983E+02 -0.45960039748E+02  0.24080537135E+03  0.80309321300E+02 0.  0.
          5    1    5    5  501    0 -0.81451810344E+01  0.53453274787E+02  0.66186287929E+01  0.54676254504E+02  0.47000000000E+01 0. -1.
        -13    1    6    6    0    0  0.15100310110E+03  0.18602013053E+02 -0.53368741776E+02  0.16123335272E+03  0.00000000000E+00 0.  1.
         14    1    6    6    0    0  0.59827390079E+02  0.51937468929E+02  0.74087020286E+01  0.79572018626E+02  0.00000000000E+00 0. -1.
         -5    1    3    3    0  503  0.22662958727E+02 -0.81594537788E+01  0.36725902286E+02  0.44170898598E+02  0.47000000000E+01 0.  1.
         11    1    4    4    0    0 -0.17275583027E+02 -0.79880678386E+01  0.53666703956E+02  0.56941813373E+02  0.00000000000E+00 0. -1.
        -12    1    4    4    0    0 -0.20807268584E+03 -0.10784523515E+03  0.15051366953E+03  0.27853043291E+03  0.00000000000E+00 0.  1.
</event>
<event>
12    1  0.1046899E+000  0.4069102E+03  0.7818608E-02  0.1041435E+00
         21   -1    0    0  501  502  0.00000000000E+00  0.00000000000E+00  0.42838979716E+03  0.42838979716E+03  0.00000000000E+00 0. -1.
         21   -1    0    0  502  503 -0.00000000000E+00 -0.00000000000E+00 -0.38762111600E+03  0.38762111600E+03  0.00000000000E+00 0. -1.
         -6    2    1    2    0  503 -0.36134896913E+03 -0.71654270558E+02 -0.37835152253E+01  0.40692775166E+03  0.17282496378E+03 0.  0.
        -24    2    3    3    0    0 -0.22544066393E+03 -0.46668630111E+02  0.65113569019E+02  0.25244717726E+03  0.80550272779E+02 0.  0.
          6    2    1    2  501    0  0.36134896913E+03  0.71654270558E+02  0.44552196392E+02  0.40908316150E+03  0.17221127386E+03 0.  0.
         24    2    5    5    0    0  0.28980689755E+03  0.11751361143E+03  0.45373064897E+02  0.32397081824E+03  0.71420510445E+02 0.  0.
          5    1    5    5  501    0  0.71542071580E+02 -0.45859340877E+02 -0.82086850544E+00  0.85112343269E+02  0.47000000000E+01 0. -1.
        -13    1    6    6    0    0  0.21999593984E+03  0.55048967035E+02  0.25489467449E+02  0.22820673800E+03  0.00000000000E+00 0.  1.
         14    1    6    6    0    0  0.69810957705E+02  0.62464644400E+02  0.19883597448E+02  0.95764080235E+02  0.00000000000E+00 0. -1.
         -5    1    3    3    0  503 -0.13590830519E+03 -0.24985640447E+02 -0.68897084245E+02  0.15448057440E+03  0.47000000000E+01 0.  1.
         11    1    4    4    0    0 -0.42843909608E+02 -0.33004599619E+02 -0.91542478124E+01  0.54851658494E+02  0.00000000000E+00 0. -1.
        -12    1    4    4    0    0 -0.18259675432E+03 -0.13664030492E+02  0.74267816832E+02  0.19759551876E+03  0.00000000000E+00 0.  1.
</event>
<event>
12    1  0.1046899E+000  0.4035182E+03  0.7818608E-02  0.1042590E+00
         21   -1    0    0  501  502  0.00000000000E+00  0.00000000000E+00  0.27908488027E+03  0.27908488027E+03  0.00000000000E+00 0.  1.
         21   -1    0    0  502  503 -0.00000000000E+00 -0.00000000000E+00 -0.63029753316E+03  0.63029753316E+03  0.00000000000E+00 0. -1.
         -6    2    1    2    0  503 -0.36431368229E+03 -0.28460017471E+02 -0.30002260921E+03  0.50263021339E+03  0.17055536836E+03 0.  0.
        -24    2    3    3    0    0 -0.19057389884E+03  0.11717334490E+02 -0.85851647206E+02  0.22389911909E+03  0.79401532444E+02 0.  0.
          6    2    1    2  501    0  0.36431368229E+03  0.28460017471E+02 -0.51190043672E+02  0.40675220004E+03  0.17115051845E+03 0.  0.
         24    2    5    5    0    0  0.26821278250E+03 -0.42121169963E+02 -0.20318464007E+02  0.28349542987E+03  0.79022333074E+02 0.  0.
          5    1    5    5  501    0  0.96100899789E+02  0.70581187434E+02 -0.30871579665E+02  0.12325677016E+03  0.47000000000E+01 0. -1.
        -11    1    6    6    0    0  0.25213304758E+03 -0.21128802066E+02 -0.52730809911E+01  0.25307173951E+03  0.00000000000E+00 0.  1.
         12    1    6    6    0    0  0.16079734925E+02 -0.20992367897E+02 -0.15045383016E+02  0.30423690363E+02  0.00000000000E+00 0. -1.
         -5    1    3    3    0  503 -0.17373978345E+03 -0.40177351960E+02 -0.21417096201E+03  0.27873109430E+03  0.47000000000E+01 0.  1.
         13    1    4    4    0    0 -0.60943184027E+00  0.15733066515E+02 -0.91310655766E+00  0.15771320577E+02  0.00000000000E+00 0. -1.
        -14    1    4    4    0    0 -0.18996446700E+03 -0.40157320257E+01 -0.84938540648E+02  0.20812779852E+03  0.00000000000E+00 0.  1.
</event>
<event>
12    1  0.1046899E+000  0.1734741E+03  0.7818608E-02  0.1174844E+00
         21   -1    0    0  503  502  0.00000000000E+00  0.00000000000E+00  0.99452135590E+02  0.99452135590E+02  0.00000000000E+00 0.  1.
         21   -1    0    0  501  503 -0.00000000000E+00 -0.00000000000E+00 -0.53272799212E+03  0.53272799212E+03  0.00000000000E+00 0.  1.
          6    2    1    2  501    0 -0.62264606880E+01 -0.24169139918E+02 -0.42692325224E+03  0.46082177847E+03  0.17166925198E+03 0.  0.
         24    2    3    3    0    0  0.54966546121E+02  0.11991639036E+02 -0.18984755592E+03  0.21327549633E+03  0.79241543697E+02 0.  0.
         -6    2    1    2    0  502  0.62264606880E+01  0.24169139918E+02 -0.63526042909E+01  0.17135834924E+03  0.16941195984E+03 0.  0.
        -24    2    5    5    0    0 -0.47172080970E+02  0.49209746053E+02  0.12019065224E+02  0.10940639650E+03  0.84726013346E+02 0.  0.
          5    1    3    3  501    0 -0.61193006809E+02 -0.36160778953E+02 -0.23707569632E+03  0.24754628214E+03  0.47000000000E+01 0. -1.
        -11    1    4    4    0    0  0.21632950379E+02  0.43327462806E+02 -0.12375812685E+03  0.13289592747E+03  0.00000000000E+00 0.  1.
         12    1    4    4    0    0  0.33333595741E+02 -0.31335823771E+02 -0.66089429072E+02  0.80379568868E+02  0.00000000000E+00 0. -1.
         -5    1    5    5    0  502  0.53398541658E+02 -0.25040606135E+02 -0.18371669515E+02  0.61951952734E+02  0.47000000000E+01 0.  1.
         13    1    6    6    0    0 -0.19576665941E+02 -0.13490565014E+02  0.30291207512E+02  0.38507122021E+02  0.00000000000E+00 0. -1.
        -14    1    6    6    0    0 -0.27595415029E+02  0.62700311067E+02 -0.18272142288E+02  0.70899274483E+02  0.00000000000E+00 0.  1.
</event>
<event>
12    1  0.1046899E+000  0.2436002E+03  0.7818608E-02  0.1117425E+00
         21   -1    0    0  501  502  0.00000000000E+00  0.00000000000E+00  0.12848275989E+03  0.12848275989E+03  0.00000000000E+00 0. -1.
         21   -1    0    0  502  503 -0.00000000000E+00 -0.00000000000E+00 -0.46694884008E+03  0.46694884008E+03  0.00000000000E+00 0. -1.
         -6    2    1    2    0  503 -0.34490824780E+02 -0.16884141477E+03 -0.13788931844E+03  0.27991878688E+03  0.17217439638E+03 0.  0.
        -24    2    3    3    0    0  0.28974940071E+01 -0.16121153327E+03 -0.54197546936E+02  0.18781827607E+03  0.79628994708E+02 0.  0.
          6    2    1    2  501    0  0.34490824780E+02  0.16884141477E+03 -0.20057676174E+03  0.31551281309E+03  0.17210536754E+03 0.  0.
         24    2    5    5    0    0  0.45662550568E+02  0.15429676478E+03 -0.86412280411E+02  0.19978912019E+03  0.80969439883E+02 0.  0.
          5    1    5    5  501    0 -0.11171725788E+02  0.14544649990E+02 -0.11416448133E+03  0.11572369290E+03  0.47000000000E+01 0. -1.
        -11    1    6    6    0    0  0.51840444296E+02  0.12256824951E+03 -0.98192652048E+02  0.16538501857E+03  0.00000000000E+00 0.  1.
         12    1    6    6    0    0 -0.61778937272E+01  0.31728515272E+02  0.11780371636E+02  0.34404101618E+02  0.00000000000E+00 0. -1.
         -5    1    3    3    0  503 -0.37388318787E+02 -0.76298814941E+01 -0.83691771509E+02  0.92100510811E+02  0.47000000000E+01 0.  1.
         11    1    4    4    0    0  0.12080223957E+02 -0.12853628154E+03 -0.64855704491E+01  0.12926550239E+03  0.00000000000E+00 0. -1.
        -12    1    4    4    0    0 -0.91827299504E+01 -0.32675251733E+02 -0.47711976487E+02  0.58552773678E+02  0.00000000000E+00 0.  1.
</event>
<event>
12    1  0.1046899E+000  0.2145949E+03  0.7818608E-02  0.1138061E+00
         21   -1    0    0  501  502  0.00000000000E+00  0.00000000000E+00  0.12921147745E+03  0.12921147745E+03  0.00000000000E+00 0.  1.
         21   -1    0    0  502  503 -0.00000000000E+00 -0.00000000000E+00 -0.43124787794E+03  0.43124787794E+03  0.00000000000E+00 0.  1.
         -6    2    1    2    0  503 -0.11614365330E+03 -0.51999808903E+02 -0.33591502774E+02  0.21678271745E+03  0.17225861140E+03 0.  0.
        -24    2    3    3    0    0 -0.75135286044E+02  0.32511907406E+02 -0.44733974768E+02  0.12207178323E+03  0.78727736100E+02 0.  0.
          6    2    1    2  501    0  0.11614365330E+03  0.51999808903E+02 -0.26844489772E+03  0.34367663794E+03  0.17279363421E+03 0.  0.
         24    2    5    5    0    0  0.12938681664E+03  0.12931498315E+02 -0.26384255390E+03  0.30190361032E+03  0.68005328507E+02 0.  0.
          5    1    5    5  501    0 -0.13243163344E+02  0.39068310588E+02 -0.46023438174E+01  0.41773027615E+02  0.47000000000E+01 0. -1.
        -11    1    6    6    0    0  0.37369482479E+02  0.18797683025E+02 -0.14826530237E+03  0.15405333815E+03  0.00000000000E+00 0.  1.
         12    1    6    6    0    0  0.92017334163E+02 -0.58661847098E+01 -0.11557725153E+03  0.14785027217E+03  0.00000000000E+00 0. -1.
         -5    1    3    3    0  503 -0.41008367255E+02 -0.84511716308E+02  0.11142471994E+02  0.94710934218E+02  0.47000000000E+01 0.  1.
         13    1    4    4    0    0 -0.74908423845E+02  0.93837499906E+01 -0.58186145630E+02  0.95315026466E+02  0.00000000000E+00 0. -1.
        -14    1    4    4    0    0 -0.22686219859E+00  0.23128157415E+02  0.13452170862E+02  0.26756756768E+02  0.00000000000E+00 0.  1.
</event>
<event>
12    1  0.1046899E+000  0.1843497E+03  0.7818608E-02  0.1164042E+00
         21   -1    0    0  501  502  0.00000000000E+00  0.00000000000E+00  0.16268264960E+03  0.16268264960E+03  0.00000000000E+00 0. -1.
         21   -1    0    0  502  503 -0.00000000000E+00 -0.00000000000E+00 -0.27709574302E+03  0.27709574302E+03  0.00000000000E+00 0. -1.
         -6    2    1    2    0  503 -0.68842861903E+01  0.68416666412E+02 -0.16793869661E+03  0.24937569174E+03  0.17104559678E+03 0.  0.
        -24    2    3    3    0    0 -0.44468181406E+02  0.98059224631E+01 -0.15263475151E+03  0.17793292289E+03  0.79304365628E+02 0.  0.
          6    2    1    2  501    0  0.68842861903E+01 -0.68416666412E+02  0.53525603182E+02  0.19040270088E+03  0.16929254168E+03 0.  0.
         24    2    5    5    0    0  0.41494534625E+02 -0.10032384618E+03  0.42716453415E+02  0.14187574820E+03  0.80730180354E+02 0.  0.
          5    1    5    5  501    0 -0.34610248435E+02  0.31907179767E+02  0.10809149767E+02  0.48526952676E+02  0.47000000000E+01 0. -1.
        -11    1    6    6    0    0  0.32672073748E+02 -0.10264413004E+03  0.59289846577E+02  0.12295758513E+03  0.00000000000E+00 0.  1.
         12    1    6    6    0    0  0.88224608766E+01  0.23202838588E+01 -0.16573393162E+02  0.18918163072E+02  0.00000000000E+00 0. -1.
         -5    1    3    3    0  503  0.37583895216E+02  0.58610743949E+02 -0.15303945097E+02  0.71442768853E+02  0.47000000000E+01 0.  1.
         11    1    4    4    0    0 -0.13676482982E+02 -0.34027987010E+02 -0.76559930459E+02  0.84890358926E+02  0.00000000000E+00 0. -1.
        -12    1    4    4    0    0 -0.30791698424E+02  0.43833909473E+02 -0.76074821050E+02  0.93042563966E+02  0.00000000000E+00 0.  1.
</event>
<event>
12    1  0.1046899E+000  0.1769142E+03  0.7818608E-02  0.1171445E+00
         21   -1    0    0  501  502  0.00000000000E+00  0.00000000000E+00  0.19294381837E+02  0.19294381837E+02  0.00000000000E+00 0. -1.
         21   -1    0    0  502  503 -0.00000000000E+00 -0.00000000000E+00 -0.16517268818E+04  0.16517268818E+04  0.00000000000E+00 0. -1.
         -6    2    1    2    0  503  0.81317273394E+01  0.40653987665E+02 -0.67310411193E+03  0.69596534686E+03  0.17198763572E+03 0.  0.
        -24    2    3    3    0    0  0.31469485413E+02  0.32380359010E+02 -0.17696118048E+03  0.19918269589E+03  0.79496357051E+02 0.  0.
          6    2    1    2  501    0 -0.81317273394E+01 -0.40653987665E+02 -0.95932838801E+03  0.97505591674E+03  0.16942317739E+03 0.  0.
         24    2    5    5    0    0 -0.28610694245E+02 -0.65425880140E+02 -0.90916042576E+03  0.91529013072E+03  0.78001448815E+02 0.  0.
          5    1    5    5  501    0  0.20478966906E+02  0.24771892475E+02 -0.50167962251E+02  0.59765786021E+02  0.47000000000E+01 0. -1.
        -13    1    6    6    0    0 -0.43370328307E+02 -0.19099862147E+02 -0.64161656134E+03  0.64336428398E+03  0.00000000000E+00 0.  1.
         14    1    6    6    0    0  0.14759634062E+02 -0.46326017994E+02 -0.26754386441E+03  0.27192584674E+03  0.00000000000E+00 0. -1.
         -5    1    3    3    0  503 -0.23337758074E+02  0.82736286552E+01 -0.49614293144E+03  0.49678265097E+03  0.47000000000E+01 0.  1.
         11    1    4    4    0    0  0.96776584218E+01  0.23435266967E+02 -0.17353625637E+03  0.17537873613E+03  0.00000000000E+00 0. -1.
        -12    1    4    4    0    0  0.21791826991E+02  0.89450920424E+01 -0.34249241070E+01  0.23803959763E+02  0.00000000000E+00 0.  1.
</event>
<event>
12    1  0.1046899E+000  0.3281321E+03  0.7818608E-02  0.1071992E+00
         21   -1    0    0  501  502  0.00000000000E+00  0.00000000000E+00  0.68007184573E+03  0.68007184573E+03  0.00000000000E+00 0. -1.
         21   -1    0    0  502  503 -0.00000000000E+00 -0.00000000000E+00 -0.15893001845E+03  0.15893001845E+03  0.00000000000E+00 0. -1.
         -6    2    1    2    0  503 -0.27867784457E+03 -0.21088214871E+02  0.23247302298E+03  0.40213724110E+03  0.17194359658E+03 0.  0.
        -24    2    3    3    0    0 -0.10285230353E+03  0.38404134286E+02  0.13812592723E+03  0.19386476341E+03  0.80319990318E+02 0.  0.
          6    2    1    2  501    0  0.27867784457E+03  0.21088214871E+02  0.28866880430E+03  0.43686462308E+03  0.17150791953E+03 0.  0.
         24    2    5    5    0    0  0.57455427712E+02 -0.78719184118E+01  0.55033983789E+02  0.11377738038E+03  0.80953441197E+02 0.  0.
          5    1    5    5  501    0  0.22122241686E+03  0.28960133283E+02  0.23363482051E+03  0.32308724270E+03  0.47000000000E+01 0. -1.
        -11    1    6    6    0    0  0.10109536572E+01 -0.20480190619E+02  0.51960645177E+02  0.55860262103E+02  0.00000000000E+00 0.  1.
         12    1    6    6    0    0  0.56444474054E+02  0.12608272207E+02  0.30733386119E+01  0.57917118277E+02  0.00000000000E+00 0. -1.
         -5    1    3    3    0  503 -0.17582554103E+03 -0.59492349157E+02  0.94347095751E+02  0.20827247769E+03  0.47000000000E+01 0.  1.
         11    1    4    4    0    0  0.47603267352E+01 -0.70089709036E+01  0.41263383151E+02  0.42124258721E+02  0.00000000000E+00 0. -1.
        -12    1    4    4    0    0 -0.10761263027E+03  0.45413105189E+02  0.96862544078E+02  0.15174050468E+03  0.00000000000E+00 0.  1.
</event>
<event>
12    1  0.1046899E+000  0.1729753E+03  0.7818608E-02  0.1174856E+00
         21   -1    0    0  501  502  0.00000000000E+00  0.00000000000E+00  0.41249677274E+03  0.41249677274E+03  0.00000000000E+00 0.  1.
         21   -1    0    0  502  503 -0.00000000000E+00 -0.00000000000E+00 -0.96634179660E+02  0.96634179660E+02  0.00000000000E+00 0.  1.
         -6    2    1    2    0  503  0.93918923563E+01 -0.21666017675E+02  0.30372585463E+02  0.17532713182E+03  0.17105404187E+03 0.  0.
        -24    2    3    3    0    0  0.67599625460E+02 -0.19101455268E+02 -0.68791775270E+01  0.10601262382E+03  0.79099800060E+02 0.  0.
          6    2    1    2  501    0 -0.93918923563E+01  0.21666017675E+02  0.28549000762E+03  0.33380382058E+03  0.17135583510E+03 0.  0.
         24    2    5    5    0    0 -0.20853048800E+02  0.13647069630E+01  0.29621014708E+03  0.30771718198E+03  0.80701305949E+02 0.  0.
          5    1    5    5  501    0  0.11461156443E+02  0.20301310712E+02 -0.10720139462E+02  0.26086638605E+02  0.47000000000E+01 0. -1.
        -13    1    6    6    0    0  0.69268961522E+00 -0.20396854709E+02  0.16251755709E+02  0.26088906925E+02  0.00000000000E+00 0.  1.
         14    1    6    6    0    0 -0.21545738415E+02  0.21761561672E+02  0.27995839137E+03  0.28162827505E+03  0.00000000000E+00 0. -1.
         -5    1    3    3    0  503 -0.58207733104E+02 -0.25645624072E+01  0.37251762990E+02  0.69314508000E+02  0.47000000000E+01 0.  1.
         13    1    4    4    0    0  0.41118421333E+02  0.87912862227E+01 -0.37894578100E+02  0.56603978091E+02  0.00000000000E+00 0. -1.
        -14    1    4    4    0    0  0.26481204127E+02 -0.27892741491E+02  0.31015400573E+02  0.49408645727E+02  0.00000000000E+00 0.  1.
</event>
<event>
12    1  0.1046899E+000  0.2347079E+03  0.7818608E-02  0.1123535E+00
         21   -1    0    0  503  502  0.00000000000E+00  0.00000000000E+00  0.37543283571E+03  0.37543283571E+03  0.00000000000E+00 0. -1.
         21   -1    0    0  501  503 -0.00000000000E+00 -0.00000000000E+00 -0.17625836162E+03  0.17625836162E+03  0.00000000000E+00 0. -1.
          6    2    1    2  501    0 -0.10717664209E+03  0.12066426445E+03  0.21380039258E+03  0.31748761459E+03  0.17041443666E+03 0.  0.
         24    2    3    3    0    0 -0.70374313262E+02  0.14500783763E+03  0.12879709681E+03  0.22159876615E+03  0.80854833314E+02 0.  0.
         -6    2    1    2    0  502  0.10717664209E+03 -0.12066426445E+03 -0.14625918486E+02  0.23420358275E+03  0.16908785691E+03 0.  0.
        -24    2    5    5    0    0  0.58494959659E+02 -0.80062521607E+02  0.56632102701E+02  0.13871429901E+03  0.78757818790E+02 0.  0.
          5    1    3    3  501    0 -0.36802328824E+02 -0.24343573185E+02  0.85003295770E+02  0.95888848435E+02  0.47000000000E+01 0. -1.
        -11    1    4    4    0    0 -0.16057625181E+02  0.84497108193E+02  0.10725218818E+03  0.13747960026E+03  0.00000000000E+00 0.  1.
         12    1    4    4    0    0 -0.54316688081E+02  0.60510729442E+02  0.21544908632E+02  0.84119165888E+02  0.00000000000E+00 0. -1.
         -5    1    5    5    0  502  0.48681682427E+02 -0.40601742842E+02 -0.71258021187E+02  0.95489283740E+02  0.47000000000E+01 0.  1.
         11    1    6    6    0    0  0.23968069396E+02 -0.62152182278E+02  0.70900138446E+02  0.97284077546E+02  0.00000000000E+00 0. -1.
        -12    1    6    6    0    0  0.34526890263E+02 -0.17910339329E+02 -0.14268035744E+02  0.41430221459E+02  0.00000000000E+00 0.  1.
</event>
<event>
12    1  0.1046899E+000  0.1732991E+03  0.7818608E-02  0.1174885E+00
         21   -1    0    0  501  502  0.00000000000E+00  0.00000000000E+00  0.93306644348E+03  0.93306644348E+03  0.00000000000E+00 0. -1.
         21   -1    0    0  502  503 -0.00000000000E+00 -0.00000000000E+00 -0.31881730142E+02  0.31881730142E+02  0.00000000000E+00 0. -1.
         -6    2    1    2    0  503 -0.25577751542E+02  0.25445589807E+01  0.43993573205E+03  0.47221780457E+03  0.16966293190E+03 0.  0.
        -24    2    3    3    0    0 -0.13824545823E+02  0.54925779958E+02  0.37644325354E+03  0.38893926602E+03  0.79726219925E+02 0.  0.
          6    2    1    2  501    0  0.25577751542E+02 -0.25445589807E+01  0.46124898129E+03  0.49273036905E+03  0.17138231442E+03 0.  0.
         24    2    5    5    0    0 -0.48576343512E+01 -0.58822180170E+02  0.35462797084E+03  0.36829720133E+03  0.79988657402E+02 0.  0.
          5    1    5    5  501    0  0.30435385893E+02  0.56277621189E+02  0.10662101044E+03  0.12443316772E+03  0.47000000000E+01 0. -1.
        -13    1    6    6    0    0  0.79263199412E+01 -0.36490612770E+02  0.33181283168E+03  0.33390739231E+03  0.00000000000E+00 0.  1.
         14    1    6    6    0    0 -0.12783954292E+02 -0.22331567400E+02  0.22815139163E+02  0.34389809027E+02  0.00000000000E+00 0. -1.
         -5    1    3    3    0  503 -0.11753205720E+02 -0.52381220977E+02  0.63492478511E+02  0.83278538551E+02  0.47000000000E+01 0.  1.
         13    1    4    4    0    0  0.20265198192E+02  0.57596248841E+02  0.19619422224E+03  0.20547549483E+03  0.00000000000E+00 0. -1.
        -14    1    4    4    0    0 -0.34089744015E+02 -0.26704688834E+01  0.18024903130E+03  0.18346377118E+03  0.00000000000E+00 0.  1.
</event>
<event>
12    1  0.1046899E+000  0.1771270E+03  0.7818608E-02  0.1170749E+00
         21   -1    0    0  503  502  0.00000000000E+00  0.00000000000E+00  0.80970138227E+02  0.80970138227E+02  0.00000000000E+00 0.  1.
         21   -1    0    0  501  503 -0.00000000000E+00 -0.00000000000E+00 -0.47253141549E+03  0.47253141549E+03  0.00000000000E+00 0.  1.
          6    2    1    2  501    0 -0.22703041964E+02 -0.33648889222E+02 -0.31427171105E+03  0.36075014807E+03  0.17241312337E+03 0.  0.
         24    2    3    3    0    0 -0.17640751825E+02 -0.83002991482E+02 -0.15585485805E+03  0.19467955012E+03  0.80054342394E+02 0.  0.
         -6    2    1    2    0  502  0.22703041964E+02  0.33648889222E+02 -0.77289566212E+02  0.19275140564E+03  0.17184804762E+03 0.  0.
        -24    2    5    5    0    0  0.33385454489E+02 -0.28876065977E+02  0.94559116547E+00  0.91923265673E+02  0.80626155009E+02 0.  0.
          5    1    3    3  501    0 -0.50622901398E+01  0.49354102260E+02 -0.15841685300E+03  0.16607059795E+03  0.47000000000E+01 0. -1.
        -11    1    4    4    0    0 -0.41582213699E+02 -0.18676055310E+02 -0.43444430659E+02  0.62970581174E+02  0.00000000000E+00 0.  1.
         12    1    4    4    0    0  0.23941461874E+02 -0.64326936172E+02 -0.11241042739E+03  0.13170896895E+03  0.00000000000E+00 0. -1.
         -5    1    5    5    0  502 -0.10682412525E+02  0.62524955199E+02 -0.78235157377E+02  0.10082813997E+03  0.47000000000E+01 0.  1.
         11    1    6    6    0    0  0.57458508836E+02 -0.28463199159E+02 -0.10979529347E+02  0.65055238134E+02  0.00000000000E+00 0. -1.
        -12    1    6    6    0    0 -0.24073054346E+02 -0.41286681769E+00  0.11925120513E+02  0.26868027539E+02  0.00000000000E+00 0.  1.
</event>
<event>
12    1  0.1046899E+000  0.3727036E+03  0.7818608E-02  0.1053820E+00
         21   -1    0    0  503  502  0.00000000000E+00  0.00000000000E+00  0.21015379312E+04  0.21015379312E+04  0.00000000000E+00 0. -1.
         21   -1    0    0  501  503 -0.00000000000E+00 -0.00000000000E+00 -0.69158539555E+02  0.69158539555E+02  0.00000000000E+00 0. -1.
          6    2    1    2  501    0 -0.23588695252E+03  0.22938554563E+03  0.77942534261E+03  0.86395128076E+03  0.17506446788E+03 0.  0.
         24    2    3    3    0    0 -0.19852852084E+03  0.19762249531E+03  0.75430686897E+03  0.80865596901E+03  0.80482292523E+02 0.  0.
         -6    2    1    2    0  502  0.23588695252E+03 -0.22938554563E+03  0.12529540490E+04  0.13067451900E+04  0.17154812638E+03 0.  0.
        -24    2    5    5    0    0  0.25697320793E+03 -0.20904754344E+03  0.11320796823E+04  0.11822824766E+04  0.80320248443E+02 0.  0.
          5    1    3    3  501    0 -0.37358431676E+02  0.31763050321E+02  0.25118473638E+02  0.55295311745E+02  0.47000000000E+01 0. -1.
        -11    1    4    4    0    0 -0.21536803829E+02  0.62940576399E+02  0.22203449095E+03  0.23178581762E+03  0.00000000000E+00 0.  1.
         12    1    4    4    0    0 -0.17699171702E+03  0.13468191891E+03  0.53227237802E+03  0.57687015140E+03  0.00000000000E+00 0. -1.
         -5    1    5    5    0  502 -0.21086255406E+02 -0.20338002186E+02  0.12087436672E+03  0.12446271341E+03  0.47000000000E+01 0.  1.
         11    1    6    6    0    0  0.65479002850E+02 -0.31279842066E+02  0.15978263613E+03  0.17548908553E+03  0.00000000000E+00 0. -1.
        -12    1    6    6    0    0  0.19149420508E+03 -0.17776770138E+03  0.97229704620E+03  0.10067933911E+04  0.00000000000E+00 0.  1.
</event>
<event>
12    1  0.1046899E+000  0.1993579E+03  0.7818608E-02  0.1150539E+00
         21   -1    0    0  501  502  0.00000000000E+00  0.00000000000E+00  0.59749280958E+03  0.59749280958E+03  0.00000000000E+00 0. -1.
         21   -1    0    0  502  503 -0.00000000000E+00 -0.00000000000E+00 -0.14319882126E+03  0.14319882126E+03  0.00000000000E+00 0. -1.
         -6    2    1    2    0  503 -0.95789537017E+02  0.29052243852E+02  0.49918693897E+03  0.53752319004E+03  0.17240623979E+03 0.  0.
        -24    2    3    3    0    0  0.75265730005E+00  0.42523340625E+02  0.33145937052E+03  0.34347038035E+03  0.79358596758E+02 0.  0.
          6    2    1    2  501    0  0.95789537017E+02 -0.29052243852E+02 -0.44892950645E+02  0.20316844080E+03  0.17100400593E+03 0.  0.
         24    2    5    5    0    0  0.12278414307E+03 -0.30390294648E+02  0.80061941336E+00  0.14987217938E+03  0.80383539121E+02 0.  0.
          5    1    5    5  501    0 -0.26994606057E+02  0.13380507967E+01 -0.45693570059E+02  0.53296261415E+02  0.47000000000E+01 0. -1.
        -13    1    6    6    0    0  0.77837962611E+02  0.14097895740E+02 -0.22874680812E+02  0.82345310188E+02  0.00000000000E+00 0.  1.
         14    1    6    6    0    0  0.44946180463E+02 -0.44488190388E+02  0.23675300225E+02  0.67526869192E+02  0.00000000000E+00 0. -1.
         -5    1    3    3    0  503 -0.96542194317E+02 -0.13471096774E+02  0.16772756844E+03  0.19405280969E+03  0.47000000000E+01 0.  1.
         11    1    4    4    0    0  0.19159301173E+02  0.29169577566E+02  0.49334033558E+02  0.60430041734E+02  0.00000000000E+00 0. -1.
        -12    1    4    4    0    0 -0.18406643873E+02  0.13353763059E+02  0.28212533696E+03  0.28304033862E+03  0.00000000000E+00 0.  1.
</event>
<event>
12    1  0.1046899E+000  0.1862881E+03  0.7818608E-02  0.1163010E+00
         21   -1    0    0  501  502  0.00000000000E+00  0.00000000000E+00  0.58944687379E+03  0.58944687379E+03  0.00000000000E+00 0.  1.
         21   -1    0    0  502  503 -0.00000000000E+00 -0.00000000000E+00 -0.80344485420E+02  0.80344485420E+02  0.00000000000E+00 0.  1.
         -6    2    1    2    0  503  0.45507179993E+02  0.54842762818E+02  0.43135935594E+03  0.46793191964E+03  0.16676557016E+03 0.  0.
        -24    2    3    3    0    0  0.53534876928E+02  0.18313792410E+02  0.41543572755E+03  0.42701173466E+03  0.80937011159E+02 0.  0.
          6    2    1    2  501    0 -0.45507179993E+02 -0.54842762818E+02  0.77743032429E+02  0.20185943957E+03  0.17211804725E+03 0.  0.
         24    2    5    5    0    0  0.30631721714E+01  0.11608860500E+02 -0.93310801944E+01  0.81947436671E+02  0.80524310947E+02 0.  0.
          5    1    5    5  501    0 -0.48570352164E+02 -0.66451623318E+02  0.87074112623E+02  0.11991200290E+03  0.47000000000E+01 0. -1.
        -11    1    6    6    0    0 -0.12353318731E+02  0.41872403736E+02  0.70790250429E+01  0.44226861452E+02  0.00000000000E+00 0.  1.
         12    1    6    6    0    0  0.15416490902E+02 -0.30263543237E+02 -0.16410105237E+02  0.37720575219E+02  0.00000000000E+00 0. -1.
         -5    1    3    3    0  503 -0.80276969350E+01  0.36528970408E+02  0.15923628393E+02  0.40920184975E+02  0.47000000000E+01 0.  1.
         11    1    4    4    0    0  0.19466578098E+02  0.35764956217E+02  0.83747135571E+02  0.93121761540E+02  0.00000000000E+00 0. -1.
        -12    1    4    4    0    0  0.34068298830E+02 -0.17451163807E+02  0.33168859198E+03  0.33388997312E+03  0.00000000000E+00 0.  1.
</event>
<event>
12    1  0.1046899E+000  0.1915726E+03  0.7818608E-02  0.1157246E+00
         21   -1    0    0  501  502  0.00000000000E+00  0.00000000000E+00  0.16165675400E+03  0.16165675400E+03  0.00000000000E+00 0. -1.
         21   -1    0    0  502  503 -0.00000000000E+00 -0.00000000000E+00 -0.22835066208E+03  0.22835066208E+03  0.00000000000E+00 0. -1.
         -6    2    1    2    0  503 -0.32409418876E+02 -0.76654506528E+02 -0.13446989019E+02  0.19117253090E+03  0.17158039298E+03 0.  0.
        -24    2    3    3    0    0 -0.80492857349E+02 -0.19451713223E+02 -0.88352230497E+01  0.11615563279E+03  0.80972838848E+02 0.  0.
          6    2    1    2  501    0  0.32409418876E+02  0.76654506528E+02 -0.53246919063E+02  0.19883488517E+03  0.17255084285E+03 0.  0.
         24    2    5    5    0    0  0.57561209931E+02  0.11160414303E+03 -0.32664052646E+02  0.15087829986E+03  0.76997035039E+02 0.  0.
          5    1    5    5  501    0 -0.25151791055E+02 -0.34949636498E+02 -0.20582866417E+02  0.47956585309E+02  0.47000000000E+01 0. -1.
        -11    1    6    6    0    0  0.40751788266E+01  0.45754384087E+02 -0.45992402182E+02  0.65002859968E+02  0.00000000000E+00 0.  1.
         12    1    6    6    0    0  0.53486031105E+02  0.65849758940E+02  0.13328349536E+02  0.85875439895E+02  0.00000000000E+00 0. -1.
         -5    1    3    3    0  503  0.48083438472E+02 -0.57202793306E+02 -0.46117659697E+01  0.75016898114E+02  0.47000000000E+01 0.  1.
         13    1    4    4    0    0  0.11482970656E+02  0.81411295301E+01  0.11289200548E+02  0.18043909059E+02  0.00000000000E+00 0. -1.
        -14    1    4    4    0    0 -0.91975828005E+02 -0.27592842753E+02 -0.20124423597E+02  0.98111723731E+02  0.00000000000E+00 0.  1.
</event>
<event>
12    1  0.1046899E+000  0.1965585E+03  0.7818608E-02  0.1153069E+00
         21   -1    0    0  503  502  0.00000000000E+00  0.00000000000E+00  0.59658100720E+03  0.59658100720E+03  0.00000000000E+00 0. -1.
         21   -1    0    0  501  503 -0.00000000000E+00 -0.00000000000E+00 -0.71356273197E+02  0.71356273197E+02  0.00000000000E+00 0. -1.
          6    2    1    2  501    0  0.71972175070E+02 -0.56036410413E+02  0.36753873662E+03  0.41594497022E+03  0.17206226216E+03 0.  0.
         24    2    3    3    0    0  0.10237074903E+03 -0.35678783811E+02  0.18132445192E+03  0.22611252809E+03  0.80595115381E+02 0.  0.
         -6    2    1    2    0  502 -0.71972175070E+02  0.56036410413E+02  0.15768599739E+03  0.25199231018E+03  0.17411254217E+03 0.  0.
        -24    2    5    5    0    0 -0.40416155352E+02  0.10507963204E+03  0.11512113981E+03  0.17963985985E+03  0.79639234883E+02 0.  0.
          5    1    3    3  501    0 -0.30398573964E+02 -0.20357626603E+02  0.18621428470E+03  0.18983244213E+03  0.47000000000E+01 0. -1.
        -13    1    4    4    0    0  0.35897212302E+02 -0.37632052762E+02  0.13607745982E+03  0.14567723336E+03  0.00000000000E+00 0.  1.
         14    1    4    4    0    0  0.66473536731E+02  0.19532689513E+01  0.45246992095E+02  0.80435294733E+02  0.00000000000E+00 0. -1.
         -5    1    5    5    0  502 -0.31556019718E+02 -0.49043221626E+02  0.42564857577E+02  0.72352450328E+02  0.47000000000E+01 0.  1.
         13    1    6    6    0    0  0.24347749293E+02  0.31275072953E+02  0.35871359367E+02  0.53457436402E+02  0.00000000000E+00 0. -1.
        -14    1    6    6    0    0 -0.64763904645E+02  0.73804559087E+02  0.79249780443E+02  0.12618242345E+03  0.00000000000E+00 0.  1.
</event>
<event>
12    1  0.1046899E+000  0.1797878E+03  0.7818608E-02  0.1168159E+00
         21   -1    0    0  501  502  0.00000000000E+00  0.00000000000E+00  0.11520371632E+03  0.11520371632E+03  0.00000000000E+00 0.  1.
         21   -1    0    0  502  503 -0.00000000000E+00 -0.00000000000E+00 -0.34614996339E+03  0.34614996339E+03  0.00000000000E+00 0.  1.
         -6    2    1    2    0  503 -0.42697531205E+02 -0.26577313111E+02 -0.14176958913E+02  0.17972881994E+03  0.17196519941E+03 0.  0.
        -24    2    3    3    0    0 -0.26374103977E+02 -0.78484924953E+02  0.17809535553E+02  0.11643521622E+03  0.79903086382E+02 0.  0.
          6    2    1    2  501    0  0.42697531205E+02  0.26577313111E+02 -0.21676928816E+03  0.28162485978E+03  0.17260997831E+03 0.  0.
         24    2    5    5    0    0  0.47161838070E+02  0.61494728161E+02 -0.69573712958E+02  0.13020562960E+03  0.78148345362E+02 0.  0.
          5    1    5    5  501    0 -0.44643068645E+01 -0.34917415050E+02 -0.14719557520E+03  0.15141923018E+03  0.47000000000E+01 0. -1.
        -11    1    6    6    0    0 -0.14583691798E+02  0.43297353062E+02 -0.29054080936E+02  0.54143184869E+02  0.00000000000E+00 0.  1.
         12    1    6    6    0    0  0.61745529868E+02  0.18197375099E+02 -0.40519632022E+02  0.76062444731E+02  0.00000000000E+00 0. -1.
         -5    1    3    3    0  503 -0.16323427228E+02  0.51907611842E+02 -0.31986494466E+02  0.63293603720E+02  0.47000000000E+01 0.  1.
         11    1    4    4    0    0  0.22450070463E+02  0.19834362765E+00  0.41872202542E+01  0.22838078235E+02  0.00000000000E+00 0. -1.
        -12    1    4    4    0    0 -0.48824174440E+02 -0.78683268581E+02  0.13622315299E+02  0.93597137982E+02  0.00000000000E+00 0.  1.
</event>
<event>
12    1  0.1046899E+000  0.2031473E+03  0.7818608E-02  0.1147171E+00
         21   -1    0    0  503  502  0.00000000000E+00  0.00000000000E+00  0.27413511980E+03  0.27413511980E+03  0.00000000000E+00 0.  1.
         21   -1    0    0  501  503 -0.00000000000E+00 -0.00000000000E+00 -0.25418889850E+03  0.25418889850E+03  0.00000000000E+00 0.  1.
          6    2    1    2  501    0 -0.86908674006E+02 -0.63064651181E+02  0.17882912723E+03  0.27042364984E+03  0.17210120803E+03 0.  0.
         24    2    3    3    0    0 -0.53654168049E+02  0.32476622253E+02  0.95866409384E+02  0.13950802951E+03  0.79615457718E+02 0.  0.
         -6    2    1    2    0  502  0.86908674006E+02  0.63064651181E+02 -0.15888290592E+03  0.25790036845E+03  0.17244870080E+03 0.  0.
        -24    2    5    5    0    0  0.22671948225E+01 -0.19011549911E+02 -0.90220517383E+02  0.12138188478E+03  0.78912869634E+02 0.  0.
          5    1    3    3  501    0 -0.33254505956E+02 -0.95541273433E+02  0.82962717842E+02  0.13091562033E+03  0.47000000000E+01 0. -1.
        -13    1    4    4    0    0 -0.57067851238E+01  0.28473868764E+02 -0.33579444251E+01  0.29233617457E+02  0.00000000000E+00 0.  1.
         14    1    4    4    0    0 -0.47947382926E+02  0.40027534881E+01  0.99224353809E+02  0.11027441205E+03  0.00000000000E+00 0. -1.
         -5    1    5    5    0  502  0.84641479183E+02  0.82076201092E+02 -0.68662388540E+02  0.13651848367E+03  0.47000000000E+01 0.  1.
         11    1    6    6    0    0 -0.32764596628E+02 -0.27609907967E+02 -0.63012080176E+02  0.76199396706E+02  0.00000000000E+00 0. -1.
        -12    1    6    6    0    0  0.35031791451E+02  0.85983580564E+01 -0.27208437207E+02  0.45182488076E+02  0.00000000000E+00 0.  1.
</event>
<event>
12    1  0.1046899E+000  0.2140651E+03  0.7818608E-02  0.1138513E+00
         21   -1    0    0  501  502  0.00000000000E+00  0.00000000000E+00  0.31447271749E+03  0.31447271749E+03  0.00000000000E+00 0. -1.
         21   -1    0    0  502  503 -0.00000000000E+00 -0.00000000000E+00 -0.16495250126E+03  0.16495250126E+03  0.00000000000E+00 0. -1.
         -6    2    1    2    0  503 -0.91521334334E+02 -0.87689873912E+02  0.15766315240E+03  0.26586001826E+03  0.17250568414E+03 0.  0.
        -24    2    3    3    0    0 -0.11458098514E+03 -0.10210839277E+03  0.94087405623E+02  0.19655196130E+03  0.78900618274E+02 0.  0.
          6    2    1    2  501    0  0.91521334334E+02  0.87689873912E+02 -0.81429361693E+01  0.21356520048E+03  0.17169192998E+03 0.  0.
         24    2    5    5    0    0  0.15357831637E+02  0.60285792774E+02 -0.53751811821E+02  0.12053766507E+03  0.88146648397E+02 0.  0.
          5    1    5    5  501    0  0.76163502697E+02  0.27404081138E+02  0.45608875651E+02  0.93027535409E+02  0.47000000000E+01 0. -1.
        -11    1    6    6    0    0  0.50873762751E+02  0.47220684964E+02 -0.28449918717E+02  0.75015536390E+02  0.00000000000E+00 0.  1.
         12    1    6    6    0    0 -0.35515931114E+02  0.13065107810E+02 -0.25301893104E+02  0.45522128681E+02  0.00000000000E+00 0. -1.
         -5    1    3    3    0  503  0.23059650806E+02  0.14418518862E+02  0.63575746777E+02  0.69308056961E+02  0.47000000000E+01 0.  1.
         13    1    4    4    0    0 -0.67080514913E+02 -0.63133315196E+02  0.10360058611E+02  0.92698121788E+02  0.00000000000E+00 0. -1.
        -14    1    4    4    0    0 -0.47500470227E+02 -0.38975077579E+02  0.83727347012E+02  0.10385383951E+03  0.00000000000E+00 0.  1.
</event>
<event>
12    1  0.1046899E+000  0.2540153E+03  0.7818608E-02  0.1111006E+00
         21   -1    0    0  503  502  0.00000000000E+00  0.00000000000E+00  0.49465448050E+03  0.49465448050E+03  0.00000000000E+00 0. -1.
         21   -1    0    0  501  503 -0.00000000000E+00 -0.00000000000E+00 -0.13258382620E+03  0.13258382620E+03  0.00000000000E+00 0. -1.
          6    2    1    2  501    0  0.10922433151E+03  0.14977229015E+03  0.22649326325E+03  0.33930602865E+03  0.17166155449E+03 0.  0.
         24    2    3    3    0    0  0.96943228727E+02  0.17817395325E+03  0.21703659313E+03  0.30661048519E+03  0.75902303393E+02 0.  0.
         -6    2    1    2    0  502 -0.10922433151E+03 -0.14977229015E+03  0.13557739105E+03  0.28793227805E+03  0.17367231872E+03 0.  0.
        -24    2    5    5    0    0 -0.90419226417E+02 -0.20673789379E+02  0.52583365605E+02  0.13323853824E+03  0.79902788815E+02 0.  0.
          5    1    3    3  501    0  0.12281102779E+02 -0.28401663099E+02  0.94566701235E+01  0.32695543459E+02  0.47000000000E+01 0. -1.
        -13    1    4    4    0    0  0.34593332844E+01  0.83281404917E+02  0.81690206097E+02  0.11670925055E+03  0.00000000000E+00 0.  1.
         14    1    4    4    0    0  0.93483895443E+02  0.94892548331E+02  0.13534638703E+03  0.18990123464E+03  0.00000000000E+00 0. -1.
         -5    1    5    5    0  502 -0.18805105090E+02 -0.12909850077E+03  0.82994025443E+02  0.15469373981E+03  0.47000000000E+01 0.  1.
         11    1    6    6    0    0 -0.30567690647E+02  0.10550839348E+02 -0.16793574586E+02  0.36438003098E+02  0.00000000000E+00 0. -1.
        -12    1    6    6    0    0 -0.59851535770E+02 -0.31224628727E+02  0.69376940190E+02  0.96800535140E+02  0.00000000000E+00 0.  1.
</event>
<event>
12    1  0.1046899E+000  0.1858341E+03  0.7818608E-02  0.1163619E+00
         21   -1    0    0  501  502  0.00000000000E+00  0.00000000000E+00  0.25158678678E+03  0.25158678678E+03  0.00000000000E+00 0.  1.
         21   -1    0    0  502  503 -0.00000000000E+00 -0.00000000000E+00 -0.14512099629E+03  0.14512099629E+03  0.00000000000E+00 0.  1.
         -6    2    1    2    0  503 -0.61474003882E+02 -0.28513337375E+01  0.10958819185E+03  0.21084743813E+03  0.16929231263E+03 0.  0.
        -24    2    3    3    0    0 -0.59830775143E+02 -0.48265817788E+02  0.12151543943E+03  0.16362959407E+03  0.78098215184E+02 0.  0.
          6    2    1    2  501    0  0.61474003882E+02  0.28513337375E+01 -0.31224013514E+01  0.18586034494E+03  0.17534861041E+03 0.  0.
         24    2    5    5    0    0 -0.20164234555E+02  0.21119882675E+02  0.36667858595E+02  0.93103153078E+02  0.80442647022E+02 0.  0.
          5    1    5    5  501    0  0.81638238437E+02 -0.18268548938E+02 -0.39790259946E+02  0.92757191861E+02  0.47000000000E+01 0. -1.
        -11    1    6    6    0    0 -0.22863415628E+02 -0.18513454766E+02  0.43780073952E+02  0.52746361550E+02  0.00000000000E+00 0.  1.
         12    1    6    6    0    0  0.26991810734E+01  0.39633337441E+02 -0.71122153576E+01  0.40356791528E+02  0.00000000000E+00 0. -1.
         -5    1    3    3    0  503 -0.16432287391E+01  0.45414484051E+02 -0.11927247586E+02  0.47217844055E+02  0.47000000000E+01 0.  1.
         11    1    4    4    0    0 -0.33537004806E+02 -0.63032120166E+01  0.10657516706E+03  0.11190499277E+03  0.00000000000E+00 0. -1.
        -12    1    4    4    0    0 -0.26293770337E+02 -0.41962605771E+02  0.14940272378E+02  0.51724601307E+02  0.00000000000E+00 0.  1.
</event>
<event>
12    1  0.1046899E+000  0.3010039E+03  0.7818608E-02  0.1085163E+00
         21   -1    0    0  501  502  0.00000000000E+00  0.00000000000E+00  0.11423636305E+03  0.11423636305E+03  0.00000000000E+00 0.  1.
         21   -1    0    0  502  503 -0.00000000000E+00 -0.00000000000E+00 -0.87919563615E+03  0.87919563615E+03  0.00000000000E+00 0.  1.
         -6    2    1    2    0  503 -0.17126045539E+03  0.17373236991E+03 -0.54378664769E+03  0.61990734779E+03  0.17049375855E+03 0.  0.
        -24    2    3    3    0    0 -0.13550908021E+03  0.50978473722E+02 -0.25424806910E+03  0.30336136638E+03  0.80153118263E+02 0.  0.
          6    2    1    2  501    0  0.17126045539E+03 -0.17373236991E+03 -0.22117262541E+03  0.37352465141E+03  0.17632428944E+03 0.  0.
         24    2    5    5    0    0  0.19521304587E+03 -0.16029979227E+03 -0.16835520078E+03  0.31380923399E+03  0.79552530008E+02 0.  0.
          5    1    5    5  501    0 -0.23952590477E+02 -0.13432577639E+02 -0.52817424631E+02  0.59715417417E+02  0.47000000000E+01 0. -1.
        -11    1    6    6    0    0  0.36497938539E+02 -0.55310873944E+02 -0.80338691479E+02  0.10414267926E+03  0.00000000000E+00 0.  1.
         12    1    6    6    0    0  0.15871510733E+03 -0.10498891832E+03 -0.88016509302E+02  0.20966655474E+03  0.00000000000E+00 0. -1.
         -5    1    3    3    0  503 -0.35751375182E+02  0.12275389618E+03 -0.28953857859E+03  0.31654598141E+03  0.47000000000E+01 0.  1.
         13    1    4    4    0    0 -0.63126568779E+02  0.86120811678E+01 -0.45199609795E+02  0.78116172163E+02  0.00000000000E+00 0. -1.
        -14    1    4    4    0    0 -0.72382511431E+02  0.42366392554E+02 -0.20904845930E+03  0.22524519421E+03  0.00000000000E+00 0.  1.
</event>
<event>
12    1  0.1046899E+000  0.1782260E+03  0.7818608E-02  0.1169950E+00
         21   -1    0    0  501  502  0.00000000000E+00  0.00000000000E+00  0.37370351190E+02  0.37370351190E+02  0.00000000000E+00 0. -1.
         21   -1    0    0  502  503 -0.00000000000E+00 -0.00000000000E+00 -0.84436537895E+03  0.84436537895E+03  0.00000000000E+00 0. -1.
         -6    2    1    2    0  503 -0.33739525931E+02  0.27913755029E+02 -0.38161983380E+03  0.42118665883E+03  0.17276275842E+03 0.  0.
        -24    2    3    3    0    0 -0.31414981689E+02  0.54590772400E+02 -0.38073558921E+03  0.39398484547E+03  0.79356260364E+02 0.  0.
          6    2    1    2  501    0  0.33739525931E+02 -0.27913755029E+02 -0.42537519396E+03  0.46054907131E+03  0.17100835687E+03 0.  0.
         24    2    5    5    0    0 -0.46981363774E+02 -0.47888734434E+01 -0.20323094878E+03  0.22301848833E+03  0.78767034637E+02 0.  0.
          5    1    5    5  501    0  0.80720889704E+02 -0.23124881586E+02 -0.22214424518E+03  0.23753058298E+03  0.47000000000E+01 0. -1.
        -11    1    6    6    0    0 -0.20876507093E+02  0.24649221067E+02 -0.16509088798E+03  0.16822132428E+03  0.00000000000E+00 0.  1.
         12    1    6    6    0    0 -0.26104856681E+02 -0.29438094510E+02 -0.38140060798E+02  0.54797164054E+02  0.00000000000E+00 0. -1.
         -5    1    3    3    0  503 -0.23245442412E+01 -0.26677017371E+02 -0.88424458820E+00  0.27201813363E+02  0.47000000000E+01 0.  1.
         13    1    4    4    0    0 -0.26597992211E+02  0.10606134493E+02 -0.30446506895E+03  0.30580863541E+03  0.00000000000E+00 0. -1.
        -14    1    4    4    0    0 -0.48169894786E+01  0.43984637907E+02 -0.76270520260E+02  0.88176210058E+02  0.00000000000E+00 0.  1.
</event>
<event>
12    1  0.1046899E+000  0.2173196E+03  0.7818608E-02  0.1136121E+00
         21   -1    0    0  503  502  0.00000000000E+00  0.00000000000E+00  0.51242073731E+02  0.51242073731E+02  0.00000000000E+00 0. -1.
         21   -1    0    0  501  503 -0.00000000000E+00 -0.00000000000E+00 -0.20444820149E+04  0.20444820149E+04  0.00000000000E+00 0. -1.
          6    2    1    2  501    0 -0.73055271151E+02 -0.11022179729E+03 -0.17761079504E+04  0.17893538608E+04  0.17245831435E+03 0.  0.
         24    2    3    3    0    0 -0.16370127551E+02 -0.62656717729E+02 -0.47880572046E+03  0.48993444880E+03  0.81160340190E+02 0.  0.
         -6    2    1    2    0  502  0.73055271151E+02  0.11022179729E+03 -0.21713199070E+03  0.30637022783E+03  0.17096928928E+03 0.  0.
        -24    2    5    5    0    0  0.73171006782E+02  0.38862344598E+02 -0.51332959836E+02  0.12580557592E+03  0.79546791934E+02 0.  0.
          5    1    3    3  501    0 -0.56685143600E+02 -0.47565079562E+02 -0.12973022300E+04  0.12994194120E+04  0.47000000000E+01 0. -1.
        -13    1    4    4    0    0  0.27295112939E+02 -0.52200169710E+02 -0.26632480346E+03  0.27276140095E+03  0.00000000000E+00 0.  1.
         14    1    4    4    0    0 -0.43665240490E+02 -0.10456548020E+02 -0.21248091700E+03  0.21717304785E+03  0.00000000000E+00 0. -1.
         -5    1    5    5    0  502 -0.11573563094E+00  0.71359452693E+02 -0.16579903086E+03  0.18056465191E+03  0.47000000000E+01 0.  1.
         13    1    6    6    0    0 -0.10690649424E+02 -0.12551262138E+02 -0.76201827885E+01  0.18162911444E+02  0.00000000000E+00 0. -1.
        -14    1    6    6    0    0  0.83861656206E+02  0.51413606736E+02 -0.43712777047E+02  0.10764266448E+03  0.00000000000E+00 0.  1.
</event>
<event>
12    1  0.1046899E+000  0.2340354E+03  0.7818608E-02  0.1123944E+00
         21   -1    0    0  501  502  0.00000000000E+00  0.00000000000E+00  0.59588115371E+03  0.59588115371E+03  0.00000000000E+00 0.  1.
         21   -1    0    0  502  503 -0.00000000000E+00 -0.00000000000E+00 -0.10078072560E+03  0.10078072560E+03  0.00000000000E+00 0.  1.
         -6    2    1    2    0  503  0.43850240620E+02 -0.15069257913E+03  0.14245534945E+03  0.27342304794E+03  0.17272967189E+03 0.  0.
        -24    2    3    3    0    0  0.30800088655E+02 -0.58505864581E+02 -0.81810791228E+01  0.96273053819E+02  0.69498123604E+02 0.  0.
          6    2    1    2  501    0 -0.43850240620E+02  0.15069257913E+03  0.35264507867E+03  0.42323883136E+03  0.17361295994E+03 0.  0.
         24    2    5    5    0    0  0.26110867776E+02  0.44817579412E+02  0.91261576913E+02  0.13264031581E+03  0.81082582084E+02 0.  0.
          5    1    5    5  501    0 -0.69961108396E+02  0.10587499972E+03  0.26138350175E+03  0.29059851555E+03  0.47000000000E+01 0. -1.
        -11    1    6    6    0    0  0.39122725202E+02  0.38711680397E+02  0.10117753670E+03  0.11517845180E+03  0.00000000000E+00 0.  1.
         12    1    6    6    0    0 -0.13011857427E+02  0.61058990150E+01 -0.99159597821E+01  0.17461864015E+02  0.00000000000E+00 0. -1.
         -5    1    3    3    0  503  0.13050151965E+02 -0.92186714547E+02  0.15063642857E+03  0.17714999412E+03  0.47000000000E+01 0.  1.
         13    1    4    4    0    0  0.22684456853E+02 -0.72939095933E+02 -0.15870242825E+02  0.78016414334E+02  0.00000000000E+00 0. -1.
        -14    1    4    4    0    0  0.81156318024E+01  0.14433231353E+02  0.76891637019E+01  0.18256639484E+02  0.00000000000E+00 0.  1.
</event>
<event>
12    1  0.1046899E+000  0.2465511E+03  0.7818608E-02  0.1115630E+00
         21   -1    0    0  501  502  0.00000000000E+00  0.00000000000E+00  0.21160627211E+03  0.21160627211E+03  0.00000000000E+00 0.  1.
         21   -1    0    0  502  503 -0.00000000000E+00 -0.00000000000E+00 -0.29171697666E+03  0.29171697666E+03  0.00000000000E+00 0.  1.
         -6    2    1    2    0  503  0.93023001963E+02  0.15030062866E+03 -0.74107423973E+02  0.25669903792E+03  0.17075985450E+03 0.  0.
        -24    2    3    3    0    0  0.70078790698E+01  0.12784295696E+03 -0.71612469710E+02  0.16764139826E+03  0.81131748285E+02 0.  0.
          6    2    1    2  501    0 -0.93023001963E+02 -0.15030062866E+03 -0.60032805763E+01  0.24662421086E+03  0.17188340274E+03 0.  0.
         24    2    5    5    0    0 -0.31451406656E+02 -0.15275679746E+03 -0.34271352250E+02  0.17866637106E+03  0.80145595089E+02 0.  0.
          5    1    5    5  501    0 -0.61571595307E+02  0.24561688041E+01  0.28268071674E+02  0.67957839798E+02  0.47000000000E+01 0. -1.
        -13    1    6    6    0    0 -0.26907712344E+02 -0.79594055826E+02 -0.57453002026E+02  0.10178450839E+03  0.00000000000E+00 0.  1.
         14    1    6    6    0    0 -0.45436943127E+01 -0.73162741637E+02  0.23181649775E+02  0.76881862674E+02  0.00000000000E+00 0. -1.
         -5    1    3    3    0  503  0.86015122893E+02  0.22457671703E+02 -0.24949542637E+01  0.89057639658E+02  0.47000000000E+01 0.  1.
         11    1    4    4    0    0 -0.30618499483E+02  0.56188019577E+02 -0.56387729862E+02  0.85288698744E+02  0.00000000000E+00 0. -1.
        -12    1    4    4    0    0  0.37626378553E+02  0.71654937379E+02 -0.15224739848E+02  0.82352699514E+02  0.00000000000E+00 0.  1.
</event>
<event>
12    1  0.1046899E+000  0.2322245E+03  0.7818608E-02  0.1125112E+00
         21   -1    0    0  501  502  0.00000000000E+00  0.00000000000E+00  0.11234762150E+03  0.11234762150E+03  0.00000000000E+00 0. -1.
         21   -1    0    0  502  503 -0.00000000000E+00 -0.00000000000E+00 -0.59437971934E+03  0.59437971934E+03  0.00000000000E+00 0. -1.
         -6    2    1    2    0  503 -0.15459840347E+03  0.18093633201E+02 -0.85721243958E+02  0.24739030709E+03  0.17212142941E+03 0.  0.
        -24    2    3    3    0    0 -0.97607887817E+02 -0.55643483084E+02 -0.40186774244E+02  0.14356083573E+03  0.79820046081E+02 0.  0.
          6    2    1    2  501    0  0.15459840347E+03 -0.18093633201E+02 -0.39631085388E+03  0.45933703375E+03  0.17233737769E+03 0.  0.
         24    2    5    5    0    0  0.14143315245E+03  0.44276904322E+02 -0.29298178150E+03  0.33783643710E+03  0.79569800027E+02 0.  0.
          5    1    5    5  501    0  0.13165251016E+02 -0.62370537523E+02 -0.10332907239E+03  0.12150059665E+03  0.47000000000E+01 0. -1.
        -11    1    6    6    0    0  0.13621165325E+03  0.19376389780E+02 -0.21011630864E+03  0.25115318457E+03  0.00000000000E+00 0.  1.
         12    1    6    6    0    0  0.52214992017E+01  0.24900514542E+02 -0.82865472852E+02  0.86683252531E+02  0.00000000000E+00 0. -1.
         -5    1    3    3    0  503 -0.56990515650E+02  0.73737116286E+02 -0.45534469714E+02  0.10382947137E+03  0.47000000000E+01 0.  1.
         13    1    4    4    0    0 -0.85431240245E+02 -0.51383801317E+02  0.17252647019E+01  0.99708416825E+02  0.00000000000E+00 0. -1.
        -14    1    4    4    0    0 -0.12176647572E+02 -0.42596817675E+01 -0.41912038946E+02  0.43852418901E+02  0.00000000000E+00 0.  1.
</event>
<event>
12    1  0.1046899E+000  0.2256676E+03  0.7818608E-02  0.1129855E+00
         21   -1    0    0  501  502  0.00000000000E+00  0.00000000000E+00  0.45247598348E+02  0.45247598348E+02  0.00000000000E+00 0. -1.
         21   -1    0    0  502  503 -0.00000000000E+00 -0.00000000000E+00 -0.11221104789E+04  0.11221104789E+04  0.00000000000E+00 0. -1.
         -6    2    1    2    0  503 -0.31997275414E+02 -0.14217199480E+03 -0.53257674621E+03  0.57841495820E+03  0.17230545993E+03 0.  0.
        -24    2    3    3    0    0  0.34229055082E+02 -0.32398278122E+02 -0.28116748035E+03  0.29616523777E+03  0.80233530494E+02 0.  0.
          6    2    1    2  501    0  0.31997275414E+02  0.14217199480E+03 -0.54428613432E+03  0.58894311903E+03  0.17137648527E+03 0.  0.
         24    2    5    5    0    0 -0.43992714951E+02  0.79862122671E+02 -0.25010326315E+03  0.27874535874E+03  0.82668102519E+02 0.  0.
          5    1    5    5  501    0  0.75989990366E+02  0.62309872126E+02 -0.29418287117E+03  0.31019776029E+03  0.47000000000E+01 0. -1.
        -11    1    6    6    0    0 -0.33703940596E+02  0.95947813949E+02 -0.22723596549E+03  0.24895405726E+03  0.00000000000E+00 0.  1.
         12    1    6    6    0    0 -0.10288774355E+02 -0.16085691278E+02 -0.22867297659E+02  0.29791301480E+02  0.00000000000E+00 0. -1.
         -5    1    3    3    0  503 -0.66226330496E+02 -0.10977371668E+03 -0.25140926586E+03  0.28224972043E+03  0.47000000000E+01 0.  1.
         11    1    4    4    0    0  0.70675387013E+01 -0.13729860161E+02 -0.26056394983E+01  0.15660412528E+02  0.00000000000E+00 0. -1.
        -12    1    4    4    0    0  0.27161516381E+02 -0.18668417961E+02 -0.27856184086E+03  0.28050482524E+03  0.00000000000E+00 0.  1.
</event>
<event>
12    1  0.1046899E+000  0.2961347E+03  0.7818608E-02  0.1087206E+00
         21   -1    0    0  503  502  0.00000000000E+00  0.00000000000E+00  0.13958456995E+03  0.13958456995E+03  0.00000000000E+00 0. -1.
         21   -1    0    0  501  503 -0.00000000000E+00 -0.00000000000E+00 -0.69769781370E+03  0.69769781370E+03  0.00000000000E+00 0. -1.
          6    2    1    2  501    0 -0.82220278743E+02 -0.22855461879E+03 -0.14667025061E+03  0.33034935952E+03  0.16917786176E+03 0.  0.
         24    2    3    3    0    0 -0.26200650037E+02 -0.11401094465E+03 -0.84781249908E+01  0.14226000397E+03  0.80505034399E+02 0.  0.
         -6    2    1    2    0  502  0.82220278743E+02  0.22855461879E+03 -0.41144299314E+03  0.50693302413E+03  0.16940592182E+03 0.  0.
        -24    2    5    5    0    0  0.52529410916E+02  0.12939592219E+03 -0.13110057368E+03  0.20805519476E+03  0.81221671713E+02 0.  0.
          5    1    3    3  501    0 -0.56019628705E+02 -0.11454367415E+03 -0.13819212562E+03  0.18808935555E+03  0.47000000000E+01 0. -1.
        -11    1    4    4    0    0 -0.25607177708E+02 -0.28533304496E+02  0.29841738855E+02  0.48584013765E+02  0.00000000000E+00 0.  1.
         12    1    4    4    0    0 -0.59347232916E+00 -0.85477640151E+02 -0.38319863845E+02  0.93675990202E+02  0.00000000000E+00 0. -1.
         -5    1    5    5    0  502  0.29690867827E+02  0.99158696598E+02 -0.28034241946E+03  0.29887782937E+03  0.47000000000E+01 0.  1.
         13    1    6    6    0    0 -0.84027881344E+01  0.74258914235E+02 -0.37876750499E+02  0.83783300366E+02  0.00000000000E+00 0. -1.
        -14    1    6    6    0    0  0.60932199051E+02  0.55137007959E+02 -0.93223823183E+02  0.12427189440E+03  0.00000000000E+00 0.  1.
</event>
<event>
12    1  0.1046899E+000  0.1999949E+03  0.7818608E-02  0.1150266E+00
         21   -1    0    0  501  502  0.00000000000E+00  0.00000000000E+00  0.20788944308E+03  0.20788944308E+03  0.00000000000E+00 0. -1.
         21   -1    0    0  502  503 -0.00000000000E+00 -0.00000000000E+00 -0.64692722497E+03  0.64692722497E+03  0.00000000000E+00 0. -1.
         -6    2    1    2    0  503  0.66376544857E+02  0.72320148799E+02  0.13926677157E+03  0.24370715731E+03  0.17424665056E+03 0.  0.
        -24    2    3    3    0    0  0.95791627162E+02  0.10079245765E+03  0.11572250038E+03  0.19624831046E+03  0.76069355934E+02 0.  0.
          6    2    1    2  501    0 -0.66376544857E+02 -0.72320148799E+02 -0.57830455346E+03  0.61110951074E+03  0.17141361654E+03 0.  0.
         24    2    5    5    0    0 -0.47124651204E+01 -0.86446525672E+02 -0.47865276590E+03  0.49297999699E+03  0.80159827893E+02 0.  0.
          5    1    5    5  501    0 -0.61664079737E+02  0.14126376873E+02 -0.99651787566E+02  0.11812951375E+03  0.47000000000E+01 0. -1.
        -13    1    6    6    0    0 -0.38530303535E+02 -0.42994135425E+02 -0.31680589687E+03  0.32202337844E+03  0.00000000000E+00 0.  1.
         14    1    6    6    0    0  0.33817838415E+02 -0.43452390247E+02 -0.16184686903E+03  0.17095661855E+03  0.00000000000E+00 0. -1.
         -5    1    3    3    0  503 -0.29415082305E+02 -0.28472308847E+02  0.23544271190E+02  0.47458846846E+02  0.47000000000E+01 0.  1.
         11    1    4    4    0    0 -0.53690959753E+01 -0.79500695724E+01  0.10554132567E+02  0.14262556294E+02  0.00000000000E+00 0. -1.
        -12    1    4    4    0    0  0.10116072314E+03  0.10874252722E+03  0.10516836781E+03  0.18198575417E+03  0.00000000000E+00 0.  1.
</event>
<event>
12    1  0.1046899E+000  0.2703075E+03  0.7818608E-02  0.1101147E+00
         21   -1    0    0  501  502  0.00000000000E+00  0.00000000000E+00  0.17311793661E+03  0.17311793661E+03  0.00000000000E+00 0. -1.
         21   -1    0    0  502  503 -0.00000000000E+00 -0.00000000000E+00 -0.88926654249E+03  0.88926654249E+03  0.00000000000E+00 0.  1.
         -6    2    1    2    0  503  0.87782309398E+02  0.18922083836E+03  0.27243449165E+02  0.27137381169E+03  0.17143885392E+03 0.  0.
        -24    2    3    3    0    0  0.18078899856E+02  0.13267638512E+03  0.71003156351E+02  0.17140960576E+03  0.80062069328E+02 0.  0.
          6    2    1    2  501    0 -0.87782309398E+02 -0.18922083836E+03 -0.74339205504E+03  0.79101066741E+03  0.17191820422E+03 0.  0.
         24    2    5    5    0    0 -0.18848067131E+02 -0.13619332338E+03 -0.61920034035E+03  0.63932177823E+03  0.80121181110E+02 0.  0.
          5    1    5    5  501    0 -0.68934242266E+02 -0.53027514985E+02 -0.12419171469E+03  0.15168888918E+03  0.47000000000E+01 0. -1.
        -11    1    6    6    0    0 -0.44411039612E+02 -0.77721910343E+02 -0.44218685119E+03  0.45115656612E+03  0.00000000000E+00 0.  1.
         12    1    6    6    0    0  0.25562972480E+02 -0.58471413036E+02 -0.17701348916E+03  0.18816521212E+03  0.00000000000E+00 0. -1.
         -5    1    3    3    0  503  0.69703409542E+02  0.56544453239E+02 -0.43759707186E+02  0.99964205928E+02  0.47000000000E+01 0.  1.
         11    1    4    4    0    0 -0.13298674240E+01 -0.10946142624E+02  0.62371781549E+01  0.12668424411E+02  0.00000000000E+00 0. -1.
        -12    1    4    4    0    0  0.19408767280E+02  0.14362252775E+03  0.64765978196E+02  0.15874118135E+03  0.00000000000E+00 0.  1.
</event>
<event>
12    1  0.1046899E+000  0.2100572E+03  0.7818608E-02  0.1141543E+00
         21   -1    0    0  501  502  0.00000000000E+00  0.00000000000E+00  0.26859233803E+03  0.26859233803E+03  0.00000000000E+00 0. -1.
         21   -1    0    0  502  503 -0.00000000000E+00 -0.00000000000E+00 -0.16622155103E+03  0.16622155103E+03  0.00000000000E+00 0. -1.
         -6    2    1    2    0  503  0.77758024945E+02  0.10451604904E+03  0.75206346062E+02  0.22300750338E+03  0.16464032655E+03 0.  0.
        -24    2    3    3    0    0  0.84251228151E+02  0.39321834943E+02 -0.53130823999E+00  0.12275417666E+03  0.80148795691E+02 0.  0.
          6    2    1    2  501    0 -0.77758024945E+02 -0.10451604904E+03  0.27164440941E+02  0.21180638568E+03  0.16478508189E+03 0.  0.
         24    2    5    5    0    0 -0.32202743383E+02 -0.13211781161E+03  0.15895210678E+02  0.15716000862E+03  0.77165262667E+02 0.  0.
          5    1    5    5  501    0 -0.45555281562E+02  0.27601762567E+02  0.11269230263E+02  0.54646377060E+02  0.47000000000E+01 0. -1.
        -13    1    6    6    0    0 -0.53869063056E+02 -0.11882453796E+03  0.17779263794E+02  0.13167098768E+03  0.00000000000E+00 0.  1.
         14    1    6    6    0    0  0.21666319673E+02 -0.13293273648E+02 -0.18840531160E+01  0.25489020942E+02  0.00000000000E+00 0. -1.
         -5    1    3    3    0  503 -0.64932032058E+01  0.65194214097E+02  0.75737654302E+02  0.10025332672E+03  0.47000000000E+01 0.  1.
         11    1    4    4    0    0  0.51378593895E+02 -0.19109066350E+02  0.71129114970E+01  0.55276666301E+02  0.00000000000E+00 0. -1.
        -12    1    4    4    0    0  0.32872634256E+02  0.58430901293E+02 -0.76442197370E+01  0.67477510359E+02  0.00000000000E+00 0.  1.
</event>
<event>
12    1  0.1046899E+000  0.3491591E+03  0.7818608E-02  0.1062986E+00
         21   -1    0    0  501  502  0.00000000000E+00  0.00000000000E+00  0.25257473193E+03  0.25257473193E+03  0.00000000000E+00 0.  1.
         21   -1    0    0  502  503 -0.00000000000E+00 -0.00000000000E+00 -0.10137674457E+04  0.10137674457E+04  0.00000000000E+00 0. -1.
         -6    2    1    2    0  503  0.23165444139E+03 -0.19599818698E+03  0.77771181814E+02  0.35771554072E+03  0.17272226793E+03 0.  0.
        -24    2    3    3    0    0  0.13189907464E+03 -0.10759144596E+03  0.11313399592E+03  0.21973183272E+03  0.80681423776E+02 0.  0.
          6    2    1    2  501    0 -0.23165444139E+03  0.19599818698E+03 -0.83896389558E+03  0.90862663689E+03  0.17222914293E+03 0.  0.
         24    2    5    5    0    0 -0.18574696226E+03  0.71311109009E+02 -0.55383618336E+03  0.59402487859E+03  0.80893943710E+02 0.  0.
          5    1    5    5  501    0 -0.45907479133E+02  0.12468707797E+03 -0.28512771221E+03  0.31460175830E+03  0.47000000000E+01 0. -1.
        -13    1    6    6    0    0 -0.91727085358E+01  0.22135004552E+02 -0.13095227995E+03  0.13312624322E+03  0.00000000000E+00 0.  1.
         14    1    6    6    0    0 -0.17657425372E+03  0.49176104458E+02 -0.42288390341E+03  0.46089863538E+03  0.00000000000E+00 0. -1.
         -5    1    3    3    0  503  0.99755366749E+02 -0.88406741018E+02 -0.35362814107E+02  0.13798370800E+03  0.47000000000E+01 0.  1.
         11    1    4    4    0    0  0.12543069491E+00 -0.29965438779E+02  0.80878597499E+00  0.29976614032E+02  0.00000000000E+00 0. -1.
        -12    1    4    4    0    0  0.13177364395E+03 -0.77626007179E+02  0.11232520995E+03  0.18975521869E+03  0.00000000000E+00 0.  1.
</event>
<event>
12    1  0.1046899E+000  0.3858186E+03  0.7818608E-02  0.1049050E+00
         21   -1    0    0  503  502  0.00000000000E+00  0.00000000000E+00  0.42393980021E+03  0.42393980021E+03  0.00000000000E+00 0.  1.
         21   -1    0    0  501  503 -0.00000000000E+00 -0.00000000000E+00 -0.35767117438E+03  0.35767117438E+03  0.00000000000E+00 0.  1.
          6    2    1    2  501    0  0.29622480361E+03 -0.17370628465E+03  0.95239007862E+02  0.39739958420E+03  0.17587766572E+03 0.  0.
         24    2    3    3    0    0  0.18497777436E+03 -0.17890909092E+03  0.92485693917E+02  0.28589782884E+03  0.83418973472E+02 0.  0.
         -6    2    1    2    0  502 -0.29622480361E+03  0.17370628465E+03 -0.28970382026E+02  0.38421139039E+03  0.16987083878E+03 0.  0.
        -24    2    5    5    0    0 -0.20915066276E+03  0.14148868574E+03  0.40385989193E+02  0.26822744360E+03  0.80943717795E+02 0.  0.
          5    1    3    3  501    0  0.11124702925E+03  0.52028062696E+01  0.27533139455E+01  0.11150175536E+03  0.47000000000E+01 0. -1.
        -11    1    4    4    0    0  0.47017572937E+02 -0.17185307658E+02 -0.81282250962E+01  0.50715431649E+02  0.00000000000E+00 0.  1.
         12    1    4    4    0    0  0.13796020143E+03 -0.16172378326E+03  0.10061391901E+03  0.23518239719E+03  0.00000000000E+00 0. -1.
         -5    1    5    5    0  502 -0.87074140853E+02  0.32217598906E+02 -0.69356371219E+02  0.11598394679E+03  0.47000000000E+01 0.  1.
         13    1    6    6    0    0 -0.82696800090E+02  0.69082427555E+02 -0.21559776892E+02  0.10989070262E+03  0.00000000000E+00 0. -1.
        -14    1    6    6    0    0 -0.12645386267E+03  0.72406258187E+02  0.61945766085E+02  0.15833674098E+03  0.00000000000E+00 0.  1.
</event>
<event>
12    1  0.1046899E+000  0.2062720E+03  0.7818608E-02  0.1144907E+00
         21   -1    0    0  501  502  0.00000000000E+00  0.00000000000E+00  0.98074800108E+02  0.98074800108E+02  0.00000000000E+00 0.  1.
         21   -1    0    0  502  503 -0.00000000000E+00 -0.00000000000E+00 -0.44324622480E+03  0.44324622480E+03  0.00000000000E+00 0.  1.
         -6    2    1    2    0  503 -0.97889651925E+01  0.11060009383E+03 -0.12682539318E+03  0.24214213389E+03  0.17383879904E+03 0.  0.
        -24    2    3    3    0    0 -0.52777981999E+02  0.69631848030E+02 -0.21382369740E+02  0.12103567690E+03  0.80983453269E+02 0.  0.
          6    2    1    2  501    0  0.97889651925E+01 -0.11060009383E+03 -0.21834603151E+03  0.29917889102E+03  0.17176965611E+03 0.  0.
         24    2    5    5    0    0 -0.45089680552E+02 -0.73639174404E+02 -0.19779325763E+03  0.22973623959E+03  0.78744902795E+02 0.  0.
          5    1    5    5  501    0  0.54878645745E+02 -0.36960919430E+02 -0.20552773874E+02  0.69442651431E+02  0.47000000000E+01 0. -1.
        -11    1    6    6    0    0 -0.44083602476E+02 -0.23961676080E+02 -0.39588632509E+02  0.63912328637E+02  0.00000000000E+00 0.  1.
         12    1    6    6    0    0 -0.10060780759E+01 -0.49677498324E+02 -0.15820462513E+03  0.16582391095E+03  0.00000000000E+00 0. -1.
         -5    1    3    3    0  503  0.42989016807E+02  0.40968245804E+02 -0.10544302344E+03  0.12110645698E+03  0.47000000000E+01 0.  1.
         13    1    4    4    0    0 -0.16036336628E+01  0.35454763093E+02 -0.43051171423E+02  0.55794401402E+02  0.00000000000E+00 0. -1.
        -14    1    4    4    0    0 -0.51174348337E+02  0.34177084937E+02  0.21668801684E+02  0.65241275500E+02  0.00000000000E+00 0.  1.
</event>
<event>
12    1  0.1046899E+000  0.2971623E+03  0.7818608E-02  0.1086809E+00
         21   -1    0    0  503  502  0.00000000000E+00  0.00000000000E+00  0.21848372033E+04  0.21848372033E+04  0.00000000000E+00 0.  1.
         21   -1    0    0  501  503 -0.00000000000E+00 -0.00000000000E+00 -0.49004319329E+02  0.49004319329E+02  0.00000000000E+00 0.  1.
          6    2    1    2  501    0 -0.79762086234E+02 -0.22854570317E+03  0.59791378791E+03  0.66768728174E+03  0.17236670091E+03 0.  0.
         24    2    3    3    0    0 -0.10531253520E+03 -0.13148662409E+03  0.28254352182E+03  0.33669818070E+03  0.71800841065E+02 0.  0.
         -6    2    1    2    0  502  0.79762086234E+02  0.22854570317E+03  0.15379190960E+04  0.15661542409E+04  0.17043717728E+03 0.  0.
        -24    2    5    5    0    0  0.58798154653E+02  0.12454908794E+03  0.55919113238E+03  0.58168214921E+03  0.81790597767E+02 0.  0.
          5    1    3    3  501    0  0.25550448963E+02 -0.97059079071E+02  0.31537026609E+03  0.33098910104E+03  0.47000000000E+01 0. -1.
        -11    1    4    4    0    0 -0.45682961207E+02 -0.55899657493E+02  0.58758407744E+02  0.93081980711E+02  0.00000000000E+00 0.  1.
         12    1    4    4    0    0 -0.59629573989E+02 -0.75586966602E+02  0.22378511408E+03  0.24361619999E+03  0.00000000000E+00 0. -1.
         -5    1    5    5    0  502  0.20963931581E+02  0.10399661523E+03  0.97872796365E+03  0.98447209165E+03  0.47000000000E+01 0.  1.
         11    1    6    6    0    0  0.26677455468E+02  0.11195644940E+03  0.50084764757E+03  0.51390105980E+03  0.00000000000E+00 0. -1.
        -12    1    6    6    0    0  0.32120699185E+02  0.12592638540E+02  0.58343484811E+02  0.67781089408E+02  0.00000000000E+00 0.  1.
</event>
<event>
12    1  0.1046899E+000  0.3616529E+03  0.7818608E-02  0.1057951E+00
         21   -1    0    0  501  502  0.00000000000E+00  0.00000000000E+00  0.17643136765E+03  0.17643136765E+03  0.00000000000E+00 0. -1.
         21   -1    0    0  502  503 -0.00000000000E+00 -0.00000000000E+00 -0.74434397880E+03  0.74434397880E+03  0.00000000000E+00 0. -1.
         -6    2    1    2    0  503 -0.21199816307E+03 -0.23605278862E+03 -0.25260680633E+03  0.44097272073E+03  0.17315484882E+03 0.  0.
        -24    2    3    3    0    0 -0.60276235818E+02 -0.41249567695E+02 -0.12288350932E+03  0.16201383151E+03  0.76245480505E+02 0.  0.
          6    2    1    2  501    0  0.21199816307E+03  0.23605278862E+03 -0.31530580482E+03  0.47980262572E+03  0.17357611855E+03 0.  0.
         24    2    5    5    0    0  0.15692403368E+03  0.84698928328E+02 -0.13014742575E+03  0.23435025540E+03  0.78629695228E+02 0.  0.
          5    1    5    5  501    0  0.55074129391E+02  0.15135386030E+03 -0.18515837907E+03  0.24545237032E+03  0.47000000000E+01 0. -1.
        -11    1    6    6    0    0  0.15764405479E+03  0.91499818777E+02 -0.13424760573E+03  0.22637642212E+03  0.00000000000E+00 0.  1.
         12    1    6    6    0    0 -0.72002111167E+00 -0.68008904491E+01  0.41001799833E+01  0.79738332813E+01  0.00000000000E+00 0. -1.
         -5    1    3    3    0  503 -0.15172192725E+03 -0.19480322093E+03 -0.12972329701E+03  0.27895888923E+03  0.47000000000E+01 0.  1.
         13    1    4    4    0    0 -0.24892537614E+02 -0.38412613650E+01  0.36071532777E+01  0.25444159890E+02  0.00000000000E+00 0. -1.
        -14    1    4    4    0    0 -0.35383698204E+02 -0.37408306330E+02 -0.12649066260E+03  0.13656967162E+03  0.00000000000E+00 0.  1.
</event>
<event>
12    1  0.1046899E+000  0.1921157E+03  0.7818608E-02  0.1156916E+00
         21   -1    0    0  501  502  0.00000000000E+00  0.00000000000E+00  0.48011021967E+03  0.48011021967E+03  0.00000000000E+00 0. -1.
         21   -1    0    0  502  503 -0.00000000000E+00 -0.00000000000E+00 -0.77605591492E+02  0.77605591492E+02  0.00000000000E+00 0. -1.
         -6    2    1    2    0  503  0.79780238729E+02  0.26668117116E+02  0.23890583845E+03  0.30656884415E+03  0.17272053032E+03 0.  0.
        -24    2    3    3    0    0 -0.14743716513E+02 -0.24153017696E+02  0.10178453928E+03  0.13237956048E+03  0.79771612470E+02 0.  0.
          6    2    1    2  501    0 -0.79780238729E+02 -0.26668117116E+02  0.16359878973E+03  0.25114696701E+03  0.17097999906E+03 0.  0.
         24    2    5    5    0    0 -0.78989998683E+02 -0.42302828999E+02  0.18650318345E+03  0.22300856005E+03  0.83189129014E+02 0.  0.
          5    1    5    5  501    0 -0.79024004587E+00  0.15634711883E+02 -0.22904393718E+02  0.28138406966E+02  0.47000000000E+01 0. -1.
        -13    1    6    6    0    0 -0.65197729925E+02  0.64930520270E+01  0.13834820163E+03  0.15307883135E+03  0.00000000000E+00 0.  1.
         14    1    6    6    0    0 -0.13792268758E+02 -0.48795881026E+02  0.48154981812E+02  0.69929728699E+02  0.00000000000E+00 0. -1.
         -5    1    3    3    0  503  0.94523955242E+02  0.50821134812E+02  0.13712129917E+03  0.17418928367E+03  0.47000000000E+01 0.  1.
         13    1    4    4    0    0 -0.37251051614E+02  0.83193042162E+01  0.23864952313E+02  0.45015415336E+02  0.00000000000E+00 0. -1.
        -14    1    4    4    0    0  0.22507335100E+02 -0.32472321912E+02  0.77919586966E+02  0.87364145144E+02  0.00000000000E+00 0.  1.
</event>
<event>
12    1  0.1046899E+000  0.3585023E+03  0.7818608E-02  0.1059338E+00
         21   -1    0    0  501  502  0.00000000000E+00  0.00000000000E+00  0.65531560007E+03  0.65531560007E+03  0.00000000000E+00 0. -1.
         21   -1    0    0  502  503 -0.00000000000E+00 -0.00000000000E+00 -0.20087961786E+03  0.20087961786E+03  0.00000000000E+00 0.  1.
         -6    2    1    2    0  503 -0.30279116748E+03 -0.84507508572E+02  0.15605707867E+03  0.39099580858E+03  0.17233659047E+03 0.  0.
        -24    2    3    3    0    0 -0.12339411706E+03 -0.59124763139E+02  0.13808343856E+03  0.20886199183E+03  0.76383570785E+02 0.  0.
          6    2    1    2  501    0  0.30279116748E+03  0.84507508572E+02  0.29837890354E+03  0.46519940935E+03  0.16898671625E+03 0.  0.
         24    2    5    5    0    0  0.71096604241E+02 -0.35093917963E+01  0.10740524844E+03  0.15227390331E+03  0.81144385337E+02 0.  0.
          5    1    5    5  501    0  0.23169456324E+03  0.88016900368E+02  0.19097365510E+03  0.31292550604E+03  0.47000000000E+01 0. -1.
        -11    1    6    6    0    0  0.62922204015E+02  0.31080981983E+02  0.56035099087E+02  0.89806255511E+02  0.00000000000E+00 0.  1.
         12    1    6    6    0    0  0.81744002260E+01 -0.34590373779E+02  0.51370149349E+02  0.62467647798E+02  0.00000000000E+00 0. -1.
         -5    1    3    3    0  503 -0.17939705042E+03 -0.25382745433E+02  0.17973640110E+02  0.18213381675E+03  0.47000000000E+01 0.  1.
         13    1    4    4    0    0 -0.38679701550E+02 -0.24329595394E+02  0.31752058893E+01  0.45805354016E+02  0.00000000000E+00 0. -1.
        -14    1    4    4    0    0 -0.84714415510E+02 -0.34795167745E+02  0.13490823267E+03  0.16305663781E+03  0.00000000000E+00 0.  1.
</event>
<event>
12    1  0.1046899E+000  0.3514470E+03  0.7818608E-02  0.1062047E+00
         21   -1    0    0  503  502  0.00000000000E+00  0.00000000000E+00  0.16003061486E+03  0.16003061486E+03  0.00000000000E+00 0. -1.
         21   -1    0    0  501  503 -0.00000000000E+00 -0.00000000000E+00 -0.10024944052E+04  0.10024944052E+04  0.00000000000E+00 0. -1.
          6    2    1    2  501    0 -0.24768026627E+03 -0.18040781784E+03 -0.14198149761E+03  0.37882197087E+03  0.17162413848E+03 0.  0.
         24    2    3    3    0    0 -0.60012195308E+02 -0.58146856001E+02 -0.95812327170E+02  0.15008471997E+03  0.79767792263E+02 0.  0.
         -6    2    1    2    0  502  0.24768026627E+03  0.18040781784E+03 -0.70048229268E+03  0.78370304915E+03  0.17211197478E+03 0.  0.
        -24    2    5    5    0    0  0.70579336654E+02  0.12796681435E+03 -0.31837872589E+03  0.35927399281E+03  0.79723525222E+02 0.  0.
          5    1    3    3  501    0 -0.18766807096E+03 -0.12226096184E+03 -0.46169170445E+02  0.22873725090E+03  0.47000000000E+01 0. -1.
        -13    1    4    4    0    0 -0.33881253824E+02 -0.15365141182E+02  0.49600825688E+01  0.37531711169E+02  0.00000000000E+00 0.  1.
         14    1    4    4    0    0 -0.26130941485E+02 -0.42781714820E+02 -0.10077240974E+03  0.11255300880E+03  0.00000000000E+00 0. -1.
         -5    1    5    5    0  502  0.17710092961E+03  0.52441003493E+02 -0.38210356679E+03  0.42442905635E+03  0.47000000000E+01 0.  1.
         13    1    6    6    0    0  0.18003639758E+02  0.30060564822E+01 -0.67990701970E+01  0.19478058827E+02  0.00000000000E+00 0. -1.
        -14    1    6    6    0    0  0.52575696897E+02  0.12496075787E+03 -0.31157965569E+03  0.33979593398E+03  0.00000000000E+00 0.  1.
</event>
<event>
12    1  0.1046899E+000  0.5243238E+03  0.7818608E-02  0.1007621E+00
         21   -1    0    0  503  502  0.00000000000E+00  0.00000000000E+00  0.11318437032E+04  0.11318437032E+04  0.00000000000E+00 0. -1.
         21   -1    0    0  501  503 -0.00000000000E+00 -0.00000000000E+00 -0.44048631128E+03  0.44048631128E+03  0.00000000000E+00 0.  1.
          6    2    1    2  501    0  0.75884547238E+02 -0.48925106896E+03  0.87224700124E+03  0.10176801220E+04  0.17243238233E+03 0.  0.
         24    2    3    3    0    0  0.35286915916E+02 -0.22161572588E+03  0.28333515359E+03  0.36951648611E+03  0.76843528401E+02 0.  0.
         -6    2    1    2    0  502 -0.75884547238E+02  0.48925106896E+03 -0.18088960927E+03  0.55464989257E+03  0.17259889802E+03 0.  0.
        -24    2    5    5    0    0 -0.10444660708E+03  0.42387086155E+03 -0.11600750185E+03  0.45809865930E+03  0.76295741425E+02 0.  0.
          5    1    3    3  501    0  0.40597631322E+02 -0.26763534308E+03  0.58891184765E+03  0.64816363585E+03  0.47000000000E+01 0. -1.
        -11    1    4    4    0    0 -0.21200896116E+02 -0.92509738064E+02  0.94900562189E+02  0.13421492591E+03  0.00000000000E+00 0.  1.
         12    1    4    4    0    0  0.56487812032E+02 -0.12910598781E+03  0.18843459140E+03  0.23530156020E+03  0.00000000000E+00 0. -1.
         -5    1    5    5    0  502  0.28562059842E+02  0.65380207403E+02 -0.64882107423E+02  0.96551233270E+02  0.47000000000E+01 0.  1.
         11    1    6    6    0    0 -0.34139640539E+02  0.42008099533E+02 -0.55691042438E+01  0.54417004737E+02  0.00000000000E+00 0. -1.
        -12    1    6    6    0    0 -0.70306966540E+02  0.38186276202E+03 -0.11043839760E+03  0.40368165456E+03  0.00000000000E+00 0.  1.
</event>
<event>
12    1  0.1046899E+000  0.2495088E+03  0.7818608E-02  0.1113685E+00
         21   -1    0    0  503  502  0.00000000000E+00  0.00000000000E+00  0.13038498399E+04  0.13038498399E+04  0.00000000000E+00 0.  1.
         21   -1    0    0  501  503 -0.00000000000E+00 -0.00000000000E+00 -0.48086735047E+02  0.48086735047E+02  0.00000000000E+00 0.  1.
          6    2    1    2  501    0 -0.13442659797E+02  0.17918274824E+03  0.56391575709E+03  0.61647250767E+03  0.17248248967E+03 0.  0.
         24    2    3    3    0    0 -0.19456968557E+02  0.11932199100E+03  0.52683609926E+03  0.54564544227E+03  0.74541009030E+02 0.  0.
         -6    2    1    2    0  502  0.13442659797E+02 -0.17918274824E+03  0.69184734779E+03  0.73546406730E+03  0.17311117609E+03 0.  0.
        -24    2    5    5    0    0 -0.19420398066E+02 -0.17667706304E+03  0.43085689113E+03  0.47235882696E+03  0.76767599334E+02 0.  0.
          5    1    3    3  501    0  0.60143087603E+01  0.59860757242E+02  0.37079657831E+02  0.70827065394E+02  0.47000000000E+01 0. -1.
        -13    1    4    4    0    0  0.71769923758E+01  0.18134066335E+02  0.23153046479E+03  0.23235040286E+03  0.00000000000E+00 0.  1.
         14    1    4    4    0    0 -0.26633960933E+02  0.10118792467E+03  0.29530563447E+03  0.31329503941E+03  0.00000000000E+00 0. -1.
         -5    1    5    5    0  502  0.32863057863E+02 -0.25056851974E+01  0.26099045665E+03  0.26310524034E+03  0.47000000000E+01 0.  1.
         13    1    6    6    0    0  0.15293259741E+02 -0.41539835555E+02  0.17946606016E+03  0.18484455220E+03  0.00000000000E+00 0. -1.
        -14    1    6    6    0    0 -0.34713657807E+02 -0.13513722749E+03  0.25139083098E+03  0.28751427476E+03  0.00000000000E+00 0.  1.
</event>
<event>
12    1  0.1046899E+000  0.1788806E+03  0.7818608E-02  0.1169999E+00
         21   -1    0    0  501  502  0.00000000000E+00  0.00000000000E+00  0.10743495358E+04  0.10743495358E+04  0.00000000000E+00 0.  1.
         21   -1    0    0  502  503 -0.00000000000E+00 -0.00000000000E+00 -0.38968520496E+02  0.38968520496E+02  0.00000000000E+00 0.  1.
         -6    2    1    2    0  503 -0.65710592669E+01 -0.48201799104E+02  0.24165410368E+03  0.30065759928E+03  0.17213858929E+03 0.  0.
        -24    2    3    3    0    0 -0.49536762951E+02  0.64524023786E+01  0.77817143928E+02  0.12261891580E+03  0.80525562672E+02 0.  0.
          6    2    1    2  501    0  0.65710592669E+01  0.48201799104E+02  0.79372691160E+03  0.81266045699E+03  0.16747541880E+03 0.  0.
         24    2    5    5    0    0  0.62728799962E+02  0.52391683322E+02  0.60125703207E+03  0.61206636063E+03  0.80221071878E+02 0.  0.
          5    1    5    5  501    0 -0.56157740695E+02 -0.41898842177E+01  0.19246987953E+03  0.20059409636E+03  0.47000000000E+01 0. -1.
        -11    1    6    6    0    0  0.19574242518E+02  0.66038303944E+02  0.33796197081E+03  0.34490941169E+03  0.00000000000E+00 0.  1.
         12    1    6    6    0    0  0.43154557444E+02 -0.13646620623E+02  0.26329506125E+03  0.26715694893E+03  0.00000000000E+00 0. -1.
         -5    1    3    3    0  503  0.42965703684E+02 -0.54654201483E+02  0.16383695975E+03  0.17803868347E+03  0.47000000000E+01 0.  1.
         13    1    4    4    0    0 -0.31647443429E-01 -0.21679197317E+02  0.58667977107E+02  0.62545344636E+02  0.00000000000E+00 0. -1.
        -14    1    4    4    0    0 -0.49505115507E+02  0.28131599696E+02  0.19149166821E+02  0.60073571168E+02  0.00000000000E+00 0.  1.
</event>
<event>
12    1  0.1046899E+000  0.1872800E+03  0.7818608E-02  0.1162015E+00
         21   -1    0    0  501  502  0.00000000000E+00  0.00000000000E+00  0.19661693620E+03  0.19661693620E+03  0.00000000000E+00 0.  1.
         21   -1    0    0  502  503 -0.00000000000E+00 -0.00000000000E+00 -0.23605275332E+03  0.23605275332E+03  0.00000000000E+00 0.  1.
         -6    2    1    2    0  503  0.59104529313E+02 -0.23751543749E+02  0.91369307641E+02  0.20423197169E+03  0.17118664278E+03 0.  0.
        -24    2    3    3    0    0  0.76080024866E+02 -0.39282725273E+02  0.84807401200E+01  0.11808100145E+03  0.80869631268E+02 0.  0.
          6    2    1    2  501    0 -0.59104529313E+02  0.23751543749E+02 -0.13080512476E+03  0.22843771782E+03  0.17611453388E+03 0.  0.
         24    2    5    5    0    0 -0.25578811590E+02  0.21094781852E+02 -0.16121083597E+03  0.18285669757E+03  0.79676676570E+02 0.  0.
          5    1    5    5  501    0 -0.33525717723E+02  0.26567618972E+01  0.30405711211E+02  0.45581020248E+02  0.47000000000E+01 0. -1.
        -11    1    6    6    0    0 -0.17351579058E+01 -0.23207393311E+02 -0.13707143130E+02  0.27008880948E+02  0.00000000000E+00 0.  1.
         12    1    6    6    0    0 -0.23843653684E+02  0.44302175163E+02 -0.14750369284E+03  0.15584781663E+03  0.00000000000E+00 0. -1.
         -5    1    3    3    0  503 -0.16975495553E+02  0.15531181524E+02  0.82888567521E+02  0.86150970247E+02  0.47000000000E+01 0.  1.
         11    1    4    4    0    0  0.56853605510E+02  0.15609261549E+02  0.10495662082E+02  0.59884392191E+02  0.00000000000E+00 0. -1.
        -12    1    4    4    0    0  0.19226419357E+02 -0.54891986822E+02 -0.20149219623E+01  0.58196609257E+02  0.00000000000E+00 0.  1.
</event>
<event>
12    1  0.1046899E+000  0.1754661E+03  0.7818608E-02  0.1172517E+00
         21   -1    0    0  501  502  0.00000000000E+00  0.00000000000E+00  0.91510998233E+03  0.91510998233E+03  0.00000000000E+00 0.  1.
         21   -1    0    0  502  503 -0.00000000000E+00 -0.00000000000E+00 -0.35069096448E+02  0.35069096448E+02  0.00000000000E+00 0.  1.
         -6    2    1    2    0  503  0.25330837783E+02  0.22570270829E+02  0.54084587115E+03  0.56828694654E+03  0.17112781422E+03 0.  0.
        -24    2    3    3    0    0  0.74600427077E+02  0.11929971594E+02  0.25232439819E+03  0.27535787875E+03  0.80292038997E+02 0.  0.
          6    2    1    2  501    0 -0.25330837783E+02 -0.22570270829E+02  0.33919501474E+03  0.38189213225E+03  0.17215479714E+03 0.  0.
         24    2    5    5    0    0 -0.48777338983E+02  0.44295160012E+02  0.21552349909E+03  0.23928267238E+03  0.80402292520E+02 0.  0.
          5    1    5    5  501    0  0.23446501200E+02 -0.66865430841E+02  0.12367151565E+03  0.14260945987E+03  0.47000000000E+01 0. -1.
        -13    1    6    6    0    0 -0.32652632910E+00  0.53983473762E+02  0.12483106534E+03  0.13600410631E+03  0.00000000000E+00 0.  1.
         14    1    6    6    0    0 -0.48450812654E+02 -0.96883137507E+01  0.90692433746E+02  0.10327856607E+03  0.00000000000E+00 0. -1.
         -5    1    3    3    0  503 -0.49269589295E+02  0.10640299235E+02  0.28852147296E+03  0.29292906779E+03  0.47000000000E+01 0.  1.
         11    1    4    4    0    0 -0.73005504702E+01  0.24796160161E+02  0.81073768529E+02  0.85094673977E+02  0.00000000000E+00 0. -1.
        -12    1    4    4    0    0  0.81900977548E+02 -0.12866188567E+02  0.17125062966E+03  0.19026320477E+03  0.00000000000E+00 0.  1.
</event>
<event>
12    1  0.1046899E+000  0.1760633E+03  0.7818608E-02  0.1171827E+00
         21   -1    0    0  501  502  0.00000000000E+00  0.00000000000E+00  0.47710077423E+02  0.47710077423E+02  0.00000000000E+00 0.  1.
         21   -1    0    0  502  503 -0.00000000000E+00 -0.00000000000E+00 -0.76395426813E+03  0.76395426813E+03  0.00000000000E+00 0.  1.
         -6    2    1    2    0  503  0.24327257752E+02  0.32444532053E+02 -0.19904258128E+03  0.26531664774E+03  0.17067662779E+03 0.  0.
        -24    2    3    3    0    0 -0.19197821969E+02  0.46238457586E+02 -0.37784775413E+02  0.97653667626E+02  0.74846497711E+02 0.  0.
          6    2    1    2  501    0 -0.24327257752E+02 -0.32444532053E+02 -0.51720160942E+03  0.54634769781E+03  0.17132962086E+03 0.  0.
         24    2    5    5    0    0 -0.26181336077E+02  0.47183307287E+02 -0.27611766137E+03  0.29240362836E+03  0.79669267028E+02 0.  0.
          5    1    5    5  501    0  0.18540783250E+01 -0.79627839340E+02 -0.24108394805E+03  0.25394406946E+03  0.47000000000E+01 0. -1.
        -11    1    6    6    0    0 -0.17453321841E+02  0.21332075197E+02 -0.25841127587E+03  0.25987701586E+03  0.00000000000E+00 0.  1.
         12    1    6    6    0    0 -0.87280142363E+01  0.25851232090E+02 -0.17706385507E+02  0.32526612501E+02  0.00000000000E+00 0. -1.
         -5    1    3    3    0  503  0.43525079721E+02 -0.13793925533E+02 -0.16125780587E+03  0.16766298011E+03  0.47000000000E+01 0.  1.
         13    1    4    4    0    0  0.28716741291E+02  0.12170247251E+02 -0.11316798650E+02  0.33178849893E+02  0.00000000000E+00 0. -1.
        -14    1    4    4    0    0 -0.47914563260E+02  0.34068210335E+02 -0.26467976763E+02  0.64474817733E+02  0.00000000000E+00 0.  1.
</event>
<event>
12    1  0.1046899E+000  0.1900808E+03  0.7818608E-02  0.1159021E+00
         21   -1    0    0  503  502  0.00000000000E+00  0.00000000000E+00  0.18329858954E+03  0.18329858954E+03  0.00000000000E+00 0.  1.
         21   -1    0    0  501  503 -0.00000000000E+00 -0.00000000000E+00 -0.22734464782E+03  0.22734464782E+03  0.00000000000E+00 0.  1.
          6    2    1    2  501    0  0.73971785801E+01 -0.72948164533E+02  0.56468996265E+02  0.19562234430E+03  0.17234616645E+03 0.  0.
         24    2    3    3    0    0  0.60158867840E+02 -0.38754357833E+02  0.78518932748E+02  0.12882936586E+03  0.72875188350E+02 0.  0.
         -6    2    1    2    0  502 -0.73971785801E+01  0.72948164533E+02 -0.10051505455E+03  0.21502089306E+03  0.17536976736E+03 0.  0.
        -24    2    5    5    0    0 -0.44197805205E+01  0.80122327471E+02  0.66000176774E+01  0.10752176650E+03  0.71261828630E+02 0.  0.
          5    1    3    3  501    0 -0.52761689260E+02 -0.34193806699E+02 -0.22049936483E+02  0.66792978441E+02  0.47000000000E+01 0. -1.
        -11    1    4    4    0    0  0.29482389867E+02 -0.80245228064E+01  0.79737644462E+02  0.85391429447E+02  0.00000000000E+00 0.  1.
         12    1    4    4    0    0  0.30676477972E+02 -0.30729835027E+02 -0.12187117142E+01  0.43437936413E+02  0.00000000000E+00 0. -1.
         -5    1    5    5    0  502 -0.29773980596E+01 -0.71741629386E+01 -0.10711507223E+03  0.10749912656E+03  0.47000000000E+01 0.  1.
         13    1    6    6    0    0  0.27637732968E+02  0.41218415056E+02 -0.16187891855E+02  0.52200094502E+02  0.00000000000E+00 0. -1.
        -14    1    6    6    0    0 -0.32057513488E+02  0.38903912416E+02  0.22787909533E+02  0.55321672003E+02  0.00000000000E+00 0.  1.
</event>
<event>
12    1  0.1046899E+000  0.2656424E+03  0.7818608E-02  0.1106638E+00
         21   -1    0    0  501  502  0.00000000000E+00  0.00000000000E+00  0.11450137032E+03  0.11450137032E+03  0.00000000000E+00 0.  1.
         21   -1    0    0  502  503 -0.00000000000E+00 -0.00000000000E+00 -0.61742381971E+03  0.61742381971E+03  0.00000000000E+00 0.  1.
         -6    2    1    2    0  503 -0.15989086411E+03 -0.11195912924E+03 -0.16264876033E+03  0.31148114726E+03  0.18018310358E+03 0.  0.
        -24    2    3    3    0    0 -0.12459527100E+03 -0.51605298600E+01 -0.12142603654E+03  0.19159318840E+03  0.80081551360E+02 0.  0.
          6    2    1    2  501    0  0.15989086411E+03  0.11195912924E+03 -0.34027368907E+03  0.42044404277E+03  0.15128474669E+03 0.  0.
         24    2    5    5    0    0  0.12801153868E+03  0.43187565183E+02 -0.28868332775E+03  0.32863187149E+03  0.80054502815E+02 0.  0.
          5    1    5    5  501    0  0.31879325430E+02  0.68771564061E+02 -0.51590361322E+02  0.91812171277E+02  0.47000000000E+01 0. -1.
        -13    1    6    6    0    0  0.40065341880E+02  0.99017557403E+01 -0.24001993305E+02  0.47742769812E+02  0.00000000000E+00 0.  1.
         14    1    6    6    0    0  0.87946196799E+02  0.33285809443E+02 -0.26468133444E+03  0.28088910168E+03  0.00000000000E+00 0. -1.
         -5    1    3    3    0  503 -0.35295593107E+02 -0.10679859938E+03 -0.41222723793E+02  0.11988795886E+03  0.47000000000E+01 0.  1.
         11    1    4    4    0    0 -0.54120808192E+02  0.25942400633E+02 -0.90482489803E+02  0.10857785682E+03  0.00000000000E+00 0. -1.
        -12    1    4    4    0    0 -0.70474462811E+02 -0.31102930493E+02 -0.30943546733E+02  0.83015331585E+02  0.00000000000E+00 0.  1.
</event>
<event>
12    1  0.1046899E+000  0.2431263E+03  0.7818608E-02  0.1117818E+00
         21   -1    0    0  501  502  0.00000000000E+00  0.00000000000E+00  0.69781678460E+02  0.69781678460E+02  0.00000000000E+00 0.  1.
         21   -1    0    0  502  503 -0.00000000000E+00 -0.00000000000E+00 -0.11625023078E+04  0.11625023078E+04  0.00000000000E+00 0.  1.
         -6    2    1    2    0  503  0.14271108098E+02  0.17176264231E+03 -0.22399007091E+03  0.33017358754E+03  0.17069556592E+03 0.  0.
        -24    2    3    3    0    0 -0.18155068873E+02  0.74560616811E+02 -0.34626312273E+02  0.11481246339E+03  0.78064256494E+02 0.  0.
          6    2    1    2  501    0 -0.14271108098E+02 -0.17176264231E+03 -0.86873055847E+03  0.90211039876E+03  0.17147687456E+03 0.  0.
         24    2    5    5    0    0  0.54292196577E+02 -0.11258811309E+03 -0.61166965620E+03  0.62952105720E+03  0.80828629341E+02 0.  0.
          5    1    5    5  501    0 -0.68563304675E+02 -0.59174529215E+02 -0.25706090227E+03  0.27258934156E+03  0.47000000000E+01 0. -1.
        -11    1    6    6    0    0  0.51936555737E+02 -0.74885357416E+02 -0.25385101022E+03  0.26971384460E+03  0.00000000000E+00 0.  1.
         12    1    6    6    0    0  0.23556408402E+01 -0.37702755674E+02 -0.35781864598E+03  0.35980721260E+03  0.00000000000E+00 0. -1.
         -5    1    3    3    0  503  0.32426176971E+02  0.97202025494E+02 -0.18936375864E+03  0.21536112416E+03  0.47000000000E+01 0.  1.
         11    1    4    4    0    0 -0.40480504537E+02  0.71192534264E+02 -0.11863543556E+02  0.82751385778E+02  0.00000000000E+00 0. -1.
        -12    1    4    4    0    0  0.22325435665E+02  0.33680825477E+01 -0.22762768718E+02  0.32061077608E+02  0.00000000000E+00 0.  1.
</event>
<event>
12    1  0.1046899E+000  0.3300350E+03  0.7818608E-02  0.1071132E+00
         21   -1    0    0  501  502  0.00000000000E+00  0.00000000000E+00  0.94575867669E+02  0.94575867669E+02  0.00000000000E+00 0. -1.
         21   -1    0    0  502  503 -0.00000000000E+00 -0.00000000000E+00 -0.11910777151E+04  0.11910777151E+04  0.00000000000E+00 0. -1.
         -6    2    1    2    0  503 -0.17340117523E+02  0.28080454518E+03 -0.43081257704E+03  0.54264259779E+03  0.17236484600E+03 0.  0.
        -24    2    3    3    0    0  0.24714883037E+02  0.76817980364E+02 -0.95508178576E+02  0.14788916675E+03  0.78978262294E+02 0.  0.
          6    2    1    2  501    0  0.17340117523E+02 -0.28080454518E+03 -0.66568927037E+03  0.74301098496E+03  0.17254346354E+03 0.  0.
         24    2    5    5    0    0  0.51443154840E+02 -0.10688630227E+03 -0.38807155248E+03  0.41361113727E+03  0.80022267125E+02 0.  0.
          5    1    5    5  501    0 -0.34103037317E+02 -0.17391824291E+03 -0.27761771790E+03  0.32939984769E+03  0.47000000000E+01 0. -1.
        -11    1    6    6    0    0 -0.65702935516E+01 -0.44126756127E+02 -0.22625357259E+03  0.23061010054E+03  0.00000000000E+00 0.  1.
         12    1    6    6    0    0  0.58013448392E+02 -0.62759546142E+02 -0.16181797989E+03  0.18300103672E+03  0.00000000000E+00 0. -1.
         -5    1    3    3    0  503 -0.42055000560E+02  0.20398656481E+03 -0.33530439846E+03  0.39475343105E+03  0.47000000000E+01 0.  1.
         11    1    4    4    0    0  0.29394764155E+02  0.92008648671E+02 -0.86251531161E+02  0.12949505866E+03  0.00000000000E+00 0. -1.
        -12    1    4    4    0    0 -0.46798811180E+01 -0.15190668306E+02 -0.92566474156E+01  0.18394108085E+02  0.00000000000E+00 0.  1.
</event>
<event>
12    1  0.1046899E+000  0.1866755E+03  0.7818608E-02  0.1161720E+00
         21   -1    0    0  503  502  0.00000000000E+00  0.00000000000E+00  0.50552056432E+02  0.50552056432E+02  0.00000000000E+00 0. -1.
         21   -1    0    0  501  503 -0.00000000000E+00 -0.00000000000E+00 -0.93861783465E+03  0.93861783465E+03  0.00000000000E+00 0. -1.
          6    2    1    2  501    0  0.11341620009E+02 -0.70309977066E+02 -0.18817133995E+03  0.26505887141E+03  0.17255615584E+03 0.  0.
         24    2    3    3    0    0 -0.52307492781E+02 -0.61636625387E+02 -0.15077451925E+03  0.19058035916E+03  0.83980773125E+02 0.  0.
         -6    2    1    2    0  502 -0.11341620009E+02  0.70309977066E+02 -0.69989443826E+03  0.72411101966E+03  0.17150049232E+03 0.  0.
        -24    2    5    5    0    0 -0.69139534399E+02  0.62432806685E+02 -0.54131885491E+03  0.55508157147E+03  0.80070704605E+02 0.  0.
          5    1    3    3  501    0  0.63649112790E+02 -0.86733516790E+01 -0.37396820706E+02  0.74478512252E+02  0.47000000000E+01 0. -1.
        -13    1    4    4    0    0 -0.33927034043E+01 -0.66955564399E+02 -0.79890527423E+02  0.10429311776E+03  0.00000000000E+00 0.  1.
         14    1    4    4    0    0 -0.48914789377E+02  0.53189390121E+01 -0.70883991823E+02  0.86287241402E+02  0.00000000000E+00 0. -1.
         -5    1    5    5    0  502  0.57797914391E+02  0.78771703808E+01 -0.15857558336E+03  0.16902944820E+03  0.47000000000E+01 0.  1.
         11    1    6    6    0    0 -0.15480800972E+02 -0.17923615664E+02 -0.15834635137E+03  0.16010770809E+03  0.00000000000E+00 0. -1.
        -12    1    6    6    0    0 -0.53658733427E+02  0.80356422350E+02 -0.38297250353E+03  0.39497386337E+03  0.00000000000E+00 0.  1.
</event>
<event>
12    1  0.1046899E+000  0.1796283E+03  0.7818608E-02  0.1169906E+00
         21   -1    0    0  501  502  0.00000000000E+00  0.00000000000E+00  0.13117152798E+03  0.13117152798E+03  0.00000000000E+00 0. -1.
         21   -1    0    0  502  503 -0.00000000000E+00 -0.00000000000E+00 -0.37860903164E+03  0.37860903164E+03  0.00000000000E+00 0. -1.
         -6    2    1    2    0  503 -0.44248325743E+02 -0.24946505083E+02  0.33989322426E+02  0.17591325496E+03  0.16495440820E+03 0.  0.
        -24    2    3    3    0    0 -0.75295371751E+02  0.33360065970E+02  0.58719926935E+01  0.10396709783E+03  0.63185363215E+02 0.  0.
          6    2    1    2  501    0  0.44248325743E+02  0.24946505083E+02 -0.28142682608E+03  0.33386730466E+03  0.17229647773E+03 0.  0.
         24    2    5    5    0    0  0.17016690656E+02  0.73732032431E+02 -0.24116644858E+03  0.26484138471E+03  0.79080482872E+02 0.  0.
          5    1    5    5  501    0  0.27231635087E+02 -0.48785527348E+02 -0.40260377504E+02  0.69025919950E+02  0.47000000000E+01 0. -1.
        -11    1    6    6    0    0 -0.25049958217E+02  0.59804101987E+02 -0.13349619864E+03  0.14840911722E+03  0.00000000000E+00 0.  1.
         12    1    6    6    0    0  0.42066648872E+02  0.13927930443E+02 -0.10767024993E+03  0.11643226750E+03  0.00000000000E+00 0. -1.
         -5    1    3    3    0  503  0.31047046008E+02 -0.58306571052E+02  0.28117329732E+02  0.71946157125E+02  0.47000000000E+01 0.  1.
         13    1    4    4    0    0 -0.16811733521E+02  0.25444503542E+02  0.27546661795E+02  0.41095933139E+02  0.00000000000E+00 0. -1.
        -14    1    4    4    0    0 -0.58483638230E+02  0.79155624277E+01 -0.21674669101E+02  0.62871164692E+02  0.00000000000E+00 0.  1.
</event>
<event>
12    1  0.1046899E+000  0.2562815E+03  0.7818608E-02  0.1109403E+00
         21   -1    0    0  501  502  0.00000000000E+00  0.00000000000E+00  0.18391247383E+03  0.18391247383E+03  0.00000000000E+00 0. -1.
         21   -1    0    0  502  503 -0.00000000000E+00 -0.00000000000E+00 -0.40660868277E+03  0.40660868277E+03  0.00000000000E+00 0. -1.
         -6    2    1    2    0  503 -0.41524668101E+02  0.18624720078E+03 -0.83100462766E+01  0.25641614630E+03  0.17107853564E+03 0.  0.
        -24    2    3    3    0    0  0.14487875037E+02  0.88457634935E+02  0.51669154649E+02  0.12866717871E+03  0.76491108207E+02 0.  0.
          6    2    1    2  501    0  0.41524668101E+02 -0.18624720078E+03 -0.21438616267E+03  0.33410501029E+03  0.17103336897E+03 0.  0.
         24    2    5    5    0    0 -0.12359526442E+02 -0.10688780547E+03 -0.19447288334E+03  0.23602316315E+03  0.79432174440E+02 0.  0.
          5    1    5    5  501    0  0.53884194543E+02 -0.79359395304E+02 -0.19913279324E+02  0.98081847138E+02  0.47000000000E+01 0. -1.
        -13    1    6    6    0    0  0.26977856719E+02 -0.38254487203E+02 -0.11372729319E+03  0.12298417687E+03  0.00000000000E+00 0.  1.
         14    1    6    6    0    0 -0.39337383161E+02 -0.68633318270E+02 -0.80745590156E+02  0.11303898629E+03  0.00000000000E+00 0. -1.
         -5    1    3    3    0  503 -0.56012543138E+02  0.97789565842E+02 -0.59979200926E+02  0.12774896759E+03  0.47000000000E+01 0.  1.
         13    1    4    4    0    0  0.39361014920E+02  0.45930769795E+02  0.48188025307E+01  0.60680688586E+02  0.00000000000E+00 0. -1.
        -14    1    4    4    0    0 -0.24873139883E+02  0.42526865141E+02  0.46850352119E+02  0.67986490128E+02  0.00000000000E+00 0.  1.
</event>
<event>
12    1  0.1046899E+000  0.2599433E+03  0.7818608E-02  0.1108750E+00
         21   -1    0    0  503  502  0.00000000000E+00  0.00000000000E+00  0.13882864875E+04  0.13882864875E+04  0.00000000000E+00 0. -1.
         21   -1    0    0  501  503 -0.00000000000E+00 -0.00000000000E+00 -0.48870164393E+02  0.48870164393E+02  0.00000000000E+00 0.  1.
          6    2    1    2  501    0  0.11025033984E+03  0.14311645173E+03  0.83144840215E+03  0.87113544481E+03  0.18690388327E+03 0.  0.
         24    2    3    3    0    0  0.14387514332E+03  0.78916759864E+02  0.66224797418E+03  0.68700749291E+03  0.80492261529E+02 0.  0.
         -6    2    1    2    0  502 -0.11025033984E+03 -0.14311645173E+03  0.50796792091E+03  0.56602120703E+03  0.17236920243E+03 0.  0.
        -24    2    5    5    0    0 -0.10986072619E+02 -0.70734358927E+01  0.15628473172E+03  0.17606703990E+03  0.80024732952E+02 0.  0.
          5    1    3    3  501    0 -0.33624803475E+02  0.64199691862E+02  0.16920042797E+03  0.18412795190E+03  0.47000000000E+01 0. -1.
        -11    1    4    4    0    0  0.15884330556E+02 -0.18467835825E-01  0.12863522752E+02  0.20439728860E+02  0.00000000000E+00 0.  1.
         12    1    4    4    0    0  0.12799081276E+03  0.78935227700E+02  0.64938445142E+03  0.66656776405E+03  0.00000000000E+00 0. -1.
         -5    1    5    5    0  502 -0.99264267225E+02 -0.13604301583E+03  0.35168318919E+03  0.38995416713E+03  0.47000000000E+01 0.  1.
         11    1    6    6    0    0 -0.20347128310E+02 -0.32653513793E+01  0.16276335866E+03  0.16406272908E+03  0.00000000000E+00 0. -1.
        -12    1    6    6    0    0  0.93610556909E+01 -0.38080845134E+01 -0.64786269407E+01  0.12004310823E+02  0.00000000000E+00 0.  1.
</event>
<event>
12    1  0.1046899E+000  0.5576642E+03  0.7818608E-02  0.9997550E-01
         21   -1    0    0  501  502  0.00000000000E+00  0.00000000000E+00  0.38939900429E+03  0.38939900429E+03  0.00000000000E+00 0.  1.
         21   -1    0    0  502  503 -0.00000000000E+00 -0.00000000000E+00 -0.12578210529E+04  0.12578210529E+04  0.00000000000E+00 0.  1.
         -6    2    1    2    0  503 -0.16472781095E+03 -0.50372875796E+03  0.63769044527E+02  0.56095599418E+03  0.17241584347E+03 0.  0.
        -24    2    3    3    0    0 -0.72247612070E+02 -0.14587168149E+03  0.61237332808E+02  0.19130376042E+03  0.79679689453E+02 0.  0.
          6    2    1    2  501    0  0.16472781095E+03  0.50372875796E+03 -0.93219109317E+03  0.10862640630E+04  0.17352656036E+03 0.  0.
         24    2    5    5    0    0  0.32941485034E+02  0.14672636064E+03 -0.35601402413E+03  0.39574219351E+03  0.85159450502E+02 0.  0.
          5    1    5    5  501    0  0.13178632591E+03  0.35700239731E+03 -0.57617706904E+03  0.69052186951E+03  0.47000000000E+01 0. -1.
        -11    1    6    6    0    0  0.47281347441E+02  0.10315664652E+03 -0.31270540068E+03  0.33265821371E+03  0.00000000000E+00 0.  1.
         12    1    6    6    0    0 -0.14339862407E+02  0.43569714127E+02 -0.43308623449E+02  0.63083979805E+02  0.00000000000E+00 0. -1.
         -5    1    3    3    0  503 -0.92480198876E+02 -0.35785707646E+03  0.25317117194E+01  0.36965223376E+03  0.47000000000E+01 0.  1.
         13    1    4    4    0    0 -0.17022620301E+01 -0.27314768155E+02 -0.17474410978E+02  0.32470745209E+02  0.00000000000E+00 0. -1.
        -14    1    4    4    0    0 -0.70545350040E+02 -0.11855691334E+03  0.78711743786E+02  0.15883301521E+03  0.00000000000E+00 0.  1.
</event>
<event>
12    1  0.1046899E+000  0.1813073E+03  0.7818608E-02  0.1167358E+00
         21   -1    0    0  503  502  0.00000000000E+00  0.00000000000E+00  0.15396501036E+03  0.15396501036E+03  0.00000000000E+00 0. -1.
         21   -1    0    0  501  503 -0.00000000000E+00 -0.00000000000E+00 -0.23656271480E+03  0.23656271480E+03  0.00000000000E+00 0. -1.
          6    2    1    2  501    0 -0.17370257515E+02 -0.45624751854E+02  0.24324466574E+02  0.18293174785E+03  0.17461099870E+03 0.  0.
         24    2    3    3    0    0 -0.28155180489E+02 -0.94597659046E+02  0.26466322834E+02  0.13252006517E+03  0.84378137822E+02 0.  0.
         -6    2    1    2    0  502  0.17370257515E+02  0.45624751854E+02 -0.10692217101E+03  0.20759597731E+03  0.17111515221E+03 0.  0.
        -24    2    5    5    0    0 -0.10961592173E+02  0.40925447711E+02 -0.13513007170E+03  0.16706755731E+03  0.88636243462E+02 0.  0.
          5    1    3    3  501    0  0.10784922975E+02  0.48972907192E+02 -0.21418562595E+01  0.50411682680E+02  0.47000000000E+01 0. -1.
        -13    1    4    4    0    0 -0.10034820594E+01 -0.55106836519E+02  0.54074035897E+02  0.77212510421E+02  0.00000000000E+00 0.  1.
         14    1    4    4    0    0 -0.27151698430E+02 -0.39490822527E+02 -0.27607713063E+02  0.55307554746E+02  0.00000000000E+00 0. -1.
         -5    1    5    5    0  502  0.28331849688E+02  0.46993041428E+01  0.28207900694E+02  0.40528420001E+02  0.47000000000E+01 0.  1.
         13    1    6    6    0    0  0.34841943242E+02  0.36557004892E+02 -0.86185586936E+02  0.99891596298E+02  0.00000000000E+00 0. -1.
        -14    1    6    6    0    0 -0.45803535416E+02  0.43684428195E+01 -0.48944484764E+02  0.67175961014E+02  0.00000000000E+00 0.  1.
</event>
<event>
12    1  0.1046899E+000  0.2013389E+03  0.7818608E-02  0.1149318E+00
         21   -1    0    0  501  502  0.00000000000E+00  0.00000000000E+00  0.25815699497E+03  0.25815699497E+03  0.00000000000E+00 0.  1.
         21   -1    0    0  502  503 -0.00000000000E+00 -0.00000000000E+00 -0.15444866693E+03  0.15444866693E+03  0.00000000000E+00 0.  1.
         -6    2    1    2    0  503 -0.10067925239E+03  0.24998640119E+02  0.49394379675E+02  0.20406944658E+03  0.16865138723E+03 0.  0.
        -24    2    3    3    0    0 -0.59261915990E+02  0.72791989906E+02  0.14147703703E+01  0.12454754427E+03  0.81850111344E+02 0.  0.
          6    2    1    2  501    0  0.10067925239E+03 -0.24998640119E+02  0.54313948365E+02  0.20853621533E+03  0.17255753894E+03 0.  0.
         24    2    5    5    0    0  0.43795738993E+02  0.51386110025E+02  0.39086341950E+02  0.11197362346E+03  0.80322793563E+02 0.  0.
          5    1    5    5  501    0  0.56883513397E+02 -0.76384750144E+02  0.15227606414E+02  0.96562591867E+02  0.47000000000E+01 0. -1.
        -13    1    6    6    0    0 -0.13864458871E+02  0.86979419467E+01  0.36708333860E+02  0.40191780113E+02  0.00000000000E+00 0.  1.
         14    1    6    6    0    0  0.57660197863E+02  0.42688168078E+02  0.23780080903E+01  0.71781843345E+02  0.00000000000E+00 0. -1.
         -5    1    3    3    0  503 -0.41417336400E+02 -0.47793349787E+02  0.47979609305E+02  0.79521902312E+02  0.47000000000E+01 0.  1.
         13    1    4    4    0    0 -0.60530060334E+02  0.67888225934E+02  0.29801693829E+02  0.95712279148E+02  0.00000000000E+00 0. -1.
        -14    1    4    4    0    0  0.12681443446E+01  0.49037639721E+01 -0.28386923459E+02  0.28835265122E+02  0.00000000000E+00 0.  1.
</event>
<event>
12    1  0.1046899E+000  0.3417157E+03  0.7818608E-02  0.1066121E+00
         21   -1    0    0  501  502  0.00000000000E+00  0.00000000000E+00  0.19143898002E+04  0.19143898002E+04  0.00000000000E+00 0.  1.
         21   -1    0    0  502  503 -0.00000000000E+00 -0.00000000000E+00 -0.64345644975E+02  0.64345644975E+02  0.00000000000E+00 0. -1.
         -6    2    1    2    0  503  0.25972557824E+03  0.13805952922E+03  0.69559508733E+03  0.77477437681E+03  0.17293062148E+03 0.  0.
        -24    2    3    3    0    0  0.47331226123E+02  0.65621959845E+02  0.28663618713E+03  0.30826817716E+03  0.79514015695E+02 0.  0.
          6    2    1    2  501    0 -0.25972557824E+03 -0.13805952922E+03  0.11544490679E+04  0.12039610684E+04  0.17393042912E+03 0.  0.
         24    2    5    5    0    0 -0.16002862473E+03 -0.15242795949E+03  0.90066694551E+03  0.93087978016E+03  0.80577756273E+02 0.  0.
          5    1    5    5  501    0 -0.99696953507E+02  0.14368430265E+02  0.25378212240E+03  0.27308128822E+03  0.47000000000E+01 0. -1.
        -13    1    6    6    0    0 -0.12605721342E+03 -0.66918471222E+02  0.57704458729E+03  0.59443162648E+03  0.00000000000E+00 0.  1.
         14    1    6    6    0    0 -0.33971411313E+02 -0.85509488264E+02  0.32362235822E+03  0.33644815367E+03  0.00000000000E+00 0. -1.
         -5    1    3    3    0  503  0.21239435211E+03  0.72437569376E+02  0.40895890020E+03  0.46650619966E+03  0.47000000000E+01 0.  1.
         11    1    4    4    0    0  0.48512678285E+02  0.33441208960E+02  0.81212464189E+02  0.10033573018E+03  0.00000000000E+00 0. -1.
        -12    1    4    4    0    0 -0.11814521621E+01  0.32180750885E+02  0.20542372295E+03  0.20793244698E+03  0.00000000000E+00 0.  1.
</event>
<event>
12    1  0.1046899E+000  0.2766404E+03  0.7818608E-02  0.1097544E+00
         21   -1    0    0  501  502  0.00000000000E+00  0.00000000000E+00  0.19664355042E+03  0.19664355042E+03  0.00000000000E+00 0.  1.
         21   -1    0    0  502  503 -0.00000000000E+00 -0.00000000000E+00 -0.45442053907E+03  0.45442053907E+03  0.00000000000E+00 0.  1.
         -6    2    1    2    0  503 -0.12108801329E+03  0.17955319190E+03 -0.54960132003E+01  0.27669499044E+03  0.17212860276E+03 0.  0.
        -24    2    3    3    0    0 -0.56984017191E+02  0.58108089908E+02  0.53610906347E+02  0.12711573702E+03  0.81612211048E+02 0.  0.
          6    2    1    2  501    0  0.12108801329E+03 -0.17955319190E+03 -0.25228097544E+03  0.37436909905E+03  0.17206067555E+03 0.  0.
         24    2    5    5    0    0  0.13522267528E+03 -0.14749579841E+03 -0.26048217934E+03  0.33808115488E+03  0.80048229654E+02 0.  0.
          5    1    5    5  501    0 -0.14134661995E+02 -0.32057393492E+02  0.82012038956E+01  0.36287944177E+02  0.47000000000E+01 0. -1.
        -13    1    6    6    0    0  0.99747528351E+00 -0.69697810704E+01 -0.54292629105E+02  0.54747259111E+02  0.00000000000E+00 0.  1.
         14    1    6    6    0    0  0.13422520000E+03 -0.14052601734E+03 -0.20618955023E+03  0.28333389576E+03  0.00000000000E+00 0. -1.
         -5    1    3    3    0  503 -0.64103996097E+02  0.12144510199E+03 -0.59106919547E+02  0.14957925341E+03  0.47000000000E+01 0.  1.
         11    1    4    4    0    0 -0.52988929587E+02 -0.30706203411E+01  0.32682933077E+02  0.62333213318E+02  0.00000000000E+00 0. -1.
        -12    1    4    4    0    0 -0.39950876041E+01  0.61178710249E+02  0.20927973270E+02  0.64782523707E+02  0.00000000000E+00 0.  1.
</event>
<event>
12    1  0.1046899E+000  0.1814207E+03  0.7818608E-02  0.1166473E+00
         21   -1    0    0  503  502  0.00000000000E+00  0.00000000000E+00  0.11097931192E+03  0.11097931192E+03  0.00000000000E+00 0. -1.
         21   -1    0    0  501  503 -0.00000000000E+00 -0.00000000000E+00 -0.34597049825E+03  0.34597049825E+03  0.00000000000E+00 0. -1.
          6    2    1    2  501    0  0.53993511970E+02 -0.14713529813E+02 -0.30980215268E+02  0.18404690069E+03  0.17257375415E+03 0.  0.
         24    2    3    3    0    0  0.32850651638E+02 -0.24930252699E+02 -0.83390186870E+02  0.12642488153E+03  0.85607503120E+02 0.  0.
         -6    2    1    2    0  502 -0.53993511970E+02  0.14713529813E+02 -0.20401097106E+03  0.27290290948E+03  0.17240572611E+03 0.  0.
        -24    2    5    5    0    0 -0.19295954767E+02  0.71361862082E+02 -0.90620952869E+02  0.14140256633E+03  0.79483831278E+02 0.  0.
          5    1    3    3  501    0  0.21142860332E+02  0.10216722886E+02  0.52409971602E+02  0.57622019167E+02  0.47000000000E+01 0. -1.
        -13    1    4    4    0    0  0.61207024956E+02 -0.13240889745E+02 -0.66763857717E+02  0.91537062234E+02  0.00000000000E+00 0.  1.
         14    1    4    4    0    0 -0.28356373317E+02 -0.11689362954E+02 -0.16626329154E+02  0.34887819294E+02  0.00000000000E+00 0. -1.
         -5    1    5    5    0  502 -0.34697557203E+02 -0.56648332269E+02 -0.11339001819E+03  0.13150034315E+03  0.47000000000E+01 0.  1.
         13    1    6    6    0    0  0.14034816194E+02  0.56279759860E+02 -0.87104316067E+02  0.10464965032E+03  0.00000000000E+00 0. -1.
        -14    1    6    6    0    0 -0.33330770961E+02  0.15082102222E+02 -0.35166368022E+01  0.36752916002E+02  0.00000000000E+00 0.  1.
</event>
<event>
12    1  0.1046899E+000  0.1973184E+03  0.7818608E-02  0.1153410E+00
         21   -1    0    0  503  502  0.00000000000E+00  0.00000000000E+00  0.55114958328E+03  0.55114958328E+03  0.00000000000E+00 0.  1.
         21   -1    0    0  501  503 -0.00000000000E+00 -0.00000000000E+00 -0.76458293874E+02  0.76458293874E+02  0.00000000000E+00 0.  1.
          6    2    1    2  501    0  0.85736347204E+02 -0.41335069891E+02  0.33582960192E+03  0.38632567470E+03  0.16554967885E+03 0.  0.
         24    2    3    3    0    0  0.94240932457E+02  0.21399189792E+02  0.25100798928E+03  0.28037893676E+03  0.79171073141E+02 0.  0.
         -6    2    1    2    0  502 -0.85736347204E+02  0.41335069891E+02  0.13886168748E+03  0.24128220245E+03  0.17284450739E+03 0.  0.
        -24    2    5    5    0    0 -0.80302025344E+02 -0.35940705997E+02  0.73171330416E+02  0.13960432677E+03  0.79969837031E+02 0.  0.
          5    1    3    3  501    0 -0.85045852531E+01 -0.62734259683E+02  0.84821612646E+02  0.10594673794E+03  0.47000000000E+01 0. -1.
        -11    1    4    4    0    0  0.26687008080E+01 -0.10242482952E+02 -0.76106325574E+00  0.10611768858E+02  0.00000000000E+00 0.  1.
         12    1    4    4    0    0  0.91572231649E+02  0.31641672744E+02  0.25176905253E+03  0.26976716790E+03  0.00000000000E+00 0. -1.
         -5    1    5    5    0  502 -0.54343218600E+01  0.77275775888E+02  0.65690357065E+02  0.10167787569E+03  0.47000000000E+01 0.  1.
         13    1    6    6    0    0 -0.55016058430E+02 -0.41880391571E+02  0.81926197943E+01  0.69626524416E+02  0.00000000000E+00 0. -1.
        -14    1    6    6    0    0 -0.25285966915E+02  0.59396855737E+01  0.64978710621E+02  0.69977802349E+02  0.00000000000E+00 0.  1.
</event>
<event>
12    1  0.1046899E+000  0.1930990E+03  0.7818608E-02  0.1155714E+00
         21   -1    0    0  501  502  0.00000000000E+00  0.00000000000E+00  0.29569760972E+03  0.29569760972E+03  0.00000000000E+00 0.  1.
         21   -1    0    0  502  503 -0.00000000000E+00 -0.00000000000E+00 -0.21076796032E+03  0.21076796032E+03  0.00000000000E+00 0.  1.
         -6    2    1    2    0  503  0.85097384965E+02 -0.21232727398E+02  0.20301270941E+03  0.28012324884E+03  0.17193743256E+03 0.  0.
        -24    2    3    3    0    0  0.53367126148E+02 -0.71413406438E+02  0.18033384130E+03  0.21639467650E+03  0.79739807663E+02 0.  0.
          6    2    1    2  501    0 -0.85097384965E+02  0.21232727398E+02 -0.11808306001E+03  0.22634232120E+03  0.17203151939E+03 0.  0.
         24    2    5    5    0    0 -0.96154771893E+02  0.76738945372E+01 -0.20372030368E+02  0.12696605105E+03  0.80004560389E+02 0.  0.
          5    1    5    5  501    0  0.11057386929E+02  0.13558832860E+02 -0.97711029646E+02  0.99376270149E+02  0.47000000000E+01 0. -1.
        -13    1    6    6    0    0 -0.71513563007E+02  0.16756223722E+01 -0.50516568348E+02  0.87572376250E+02  0.00000000000E+00 0.  1.
         14    1    6    6    0    0 -0.24641208886E+02  0.59982721649E+01  0.30144537980E+02  0.39393674802E+02  0.00000000000E+00 0. -1.
         -5    1    3    3    0  503  0.31730258817E+02  0.50180679040E+02  0.22678868108E+02  0.63728572338E+02  0.47000000000E+01 0.  1.
         13    1    4    4    0    0  0.15386989150E+01 -0.50235023395E+02  0.36692820053E+02  0.62227712583E+02  0.00000000000E+00 0. -1.
        -14    1    4    4    0    0  0.51828427233E+02 -0.21178383043E+02  0.14364102125E+03  0.15416696392E+03  0.00000000000E+00 0.  1.
</event>
<event>
12    1  0.1046899E+000  0.2857163E+03  0.7818608E-02  0.1092692E+00
         21   -1    0    0  503  502  0.00000000000E+00  0.00000000000E+00  0.13660178752E+03  0.13660178752E+03  0.00000000000E+00 0. -1.
         21   -1    0    0  501  503 -0.00000000000E+00 -0.00000000000E+00 -0.69004818011E+03  0.69004818011E+03  0.00000000000E+00 0. -1.
          6    2    1    2  501    0 -0.20593222884E+03  0.97360880017E+02 -0.42882407938E+03  0.51493773221E+03  0.17141631534E+03 0.  0.
         24    2    3    3    0    0 -0.57007835201E+02  0.91577137453E+02 -0.22512586133E+03  0.26249569780E+03  0.81154621239E+02 0.  0.
         -6    2    1    2    0  502  0.20593222884E+03 -0.97360880017E+02 -0.12462231320E+03  0.31171223542E+03  0.17247194825E+03 0.  0.
        -24    2    5    5    0    0  0.20370267641E+03 -0.63336134359E+02 -0.14538994613E+03  0.27151225037E+03  0.84109567665E+02 0.  0.
          5    1    3    3  501    0 -0.14892439363E+03  0.57837425634E+01 -0.20369821806E+03  0.25244203441E+03  0.47000000000E+01 0. -1.
        -11    1    4    4    0    0 -0.44852401875E+02  0.68813819308E+02 -0.22174496432E+03  0.23646967857E+03  0.00000000000E+00 0.  1.
         12    1    4    4    0    0 -0.12155433326E+02  0.22763318145E+02 -0.33808970018E+01  0.26026019228E+02  0.00000000000E+00 0. -1.
         -5    1    5    5    0  502  0.22295524214E+01 -0.34024745658E+02  0.20767632922E+02  0.40199985053E+02  0.47000000000E+01 0.  1.
         11    1    6    6    0    0  0.66088476058E+02  0.11167680150E+02 -0.72964828818E+02  0.99077091157E+02  0.00000000000E+00 0. -1.
        -12    1    6    6    0    0  0.13761420036E+03 -0.74503814509E+02 -0.72425117309E+02  0.17243515921E+03  0.00000000000E+00 0.  1.
</event>
<event>
12    1  0.1046899E+000  0.2226728E+03  0.7818608E-02  0.1132114E+00
         21   -1    0    0  503  502  0.00000000000E+00  0.00000000000E+00  0.81223062868E+03  0.81223062868E+03  0.00000000000E+00 0.  1.
         21   -1    0    0  501  503 -0.00000000000E+00 -0.00000000000E+00 -0.18333826908E+03  0.18333826908E+03  0.00000000000E+00 0.  1.
          6    2    1    2  501    0 -0.71587064643E+01  0.14018425398E+03  0.72177792361E+03  0.75534531634E+03  0.17285920216E+03 0.  0.
         24    2    3    3    0    0 -0.34413267011E+02  0.48130423033E+02  0.17613824648E+03  0.20130428346E+03  0.77446252966E+02 0.  0.
         -6    2    1    2    0  502  0.71587064643E+01 -0.14018425398E+03 -0.92885563999E+02  0.24022358142E+03  0.17139652542E+03 0.  0.
        -24    2    5    5    0    0  0.52706831579E+02 -0.37476987588E+02 -0.15957969255E+02  0.10397616271E+03  0.79836401062E+02 0.  0.
          5    1    3    3  501    0  0.27254560546E+02  0.92053830952E+02  0.54563967713E+03  0.55404103289E+03  0.47000000000E+01 0. -1.
        -11    1    4    4    0    0  0.21877557286E+02  0.31511298498E+02  0.78763494990E+02  0.87608661609E+02  0.00000000000E+00 0.  1.
         12    1    4    4    0    0 -0.56290824297E+02  0.16619124535E+02  0.97374751485E+02  0.11369562185E+03  0.00000000000E+00 0. -1.
         -5    1    5    5    0  502 -0.45548125115E+02 -0.10270726640E+03 -0.76927594744E+02  0.13624741871E+03  0.47000000000E+01 0.  1.
         13    1    6    6    0    0  0.30893343308E+02 -0.62324152673E+01 -0.45786160736E+02  0.55584297924E+02  0.00000000000E+00 0. -1.
        -14    1    6    6    0    0  0.21813488271E+02 -0.31244572320E+02  0.29828191481E+02  0.48391864781E+02  0.00000000000E+00 0.  1.
</event>
<event>
12    1  0.1046899E+000  0.1786922E+03  0.7818608E-02  0.1169726E+00
         21   -1    0    0  503  502  0.00000000000E+00  0.00000000000E+00  0.35949917550E+03  0.35949917550E+03  0.00000000000E+00 0. -1.
         21   -1    0    0  501  503 -0.00000000000E+00 -0.00000000000E+00 -0.17072826514E+03  0.17072826514E+03  0.00000000000E+00 0. -1.
          6    2    1    2  501    0  0.20941678034E+02  0.44359487895E+02  0.27911307726E+03  0.32999602451E+03  0.16907675255E+03 0.  0.
         24    2    3    3    0    0  0.48007720132E+02  0.70168382778E+02  0.21439281191E+03  0.25509961314E+03  0.10901005317E+03 0.  0.
         -6    2    1    2    0  502 -0.20941678034E+02 -0.44359487895E+02 -0.90342166908E+02  0.20023141613E+03  0.17182722380E+03 0.  0.
        -24    2    5    5    0    0 -0.74844145756E+02 -0.46137822498E+02 -0.39499662488E+02  0.12596373301E+03  0.81094351697E+02 0.  0.
          5    1    3    3  501    0 -0.27066042098E+02 -0.25808894883E+02  0.64720265354E+02  0.74896411379E+02  0.47000000000E+01 0. -1.
        -13    1    4    4    0    0  0.17994306561E+02  0.81107458063E+02  0.20592360997E+03  0.22205122825E+03  0.00000000000E+00 0.  1.
         14    1    4    4    0    0  0.30013413571E+02 -0.10939075285E+02  0.84692019312E+01  0.33048384887E+02  0.00000000000E+00 0. -1.
         -5    1    5    5    0  502  0.53902467722E+02  0.17783346025E+01 -0.50842504420E+02  0.74267683121E+02  0.47000000000E+01 0.  1.
         11    1    6    6    0    0  0.76161890126E-01  0.19529584075E+02 -0.10651074808E+02  0.22245355680E+02  0.00000000000E+00 0. -1.
        -12    1    6    6    0    0 -0.74920307646E+02 -0.65667406573E+02 -0.28848587680E+02  0.10371837733E+03  0.00000000000E+00 0.  1.
</event>
<event>
12    1  0.1046899E+000  0.2660554E+03  0.7818608E-02  0.1103677E+00
         21   -1    0    0  503  502  0.00000000000E+00  0.00000000000E+00  0.70470434758E+03  0.70470434758E+03  0.00000000000E+00 0.  1.
         21   -1    0    0  501  503 -0.00000000000E+00 -0.00000000000E+00 -0.10021741827E+03  0.10021741827E+03  0.00000000000E+00 0.  1.
          6    2    1    2  501    0 -0.15366262396E+03  0.13145518228E+03  0.31384025695E+03  0.41143796224E+03  0.17289541040E+03 0.  0.
         24    2    3    3    0    0 -0.70220120534E+02  0.84250272443E+02  0.70338465358E+02  0.14970113373E+03  0.73715371503E+02 0.  0.
         -6    2    1    2    0  502  0.15366262396E+03 -0.13145518228E+03  0.29064667236E+03  0.39348380361E+03  0.17164308491E+03 0.  0.
        -24    2    5    5    0    0  0.18125341912E+03 -0.93855905406E+02  0.25072206699E+03  0.33191253017E+03  0.75117507193E+02 0.  0.
          5    1    3    3  501    0 -0.83442503426E+02  0.47204909834E+02  0.24350179159E+03  0.26173682851E+03  0.47000000000E+01 0. -1.
        -11    1    4    4    0    0 -0.29312253194E+01  0.22418824793E+02 -0.12951061357E+02  0.26056204199E+02  0.00000000000E+00 0.  1.
         12    1    4    4    0    0 -0.67288895215E+02  0.61831447649E+02  0.83289526715E+02  0.12364492953E+03  0.00000000000E+00 0. -1.
         -5    1    5    5    0  502 -0.27590795159E+02 -0.37599276871E+02  0.39924605368E+02  0.61571273435E+02  0.47000000000E+01 0.  1.
         13    1    6    6    0    0  0.13363305702E+03 -0.65153190380E+02  0.12423784181E+03  0.19374667347E+03  0.00000000000E+00 0. -1.
        -14    1    6    6    0    0  0.47620362096E+02 -0.28702715026E+02  0.12648422519E+03  0.13816585670E+03  0.00000000000E+00 0.  1.
</event>
<event>
12    1  0.1046899E+000  0.1916787E+03  0.7818608E-02  0.1157357E+00
         21   -1    0    0  503  502  0.00000000000E+00  0.00000000000E+00  0.71552237038E+02  0.71552237038E+02  0.00000000000E+00 0.  1.
         21   -1    0    0  501  503 -0.00000000000E+00 -0.00000000000E+00 -0.55871736970E+03  0.55871736970E+03  0.00000000000E+00 0.  1.
          6    2    1    2  501    0  0.66029812872E+02  0.43114237607E+02 -0.14825655584E+03  0.24091147281E+03  0.17274130285E+03 0.  0.
         24    2    3    3    0    0  0.27487149119E+02 -0.37370374495E+02 -0.41990607299E+02  0.10206676988E+03  0.80637002393E+02 0.  0.
         -6    2    1    2    0  502 -0.66029812872E+02 -0.43114237607E+02 -0.33890857682E+03  0.38935813393E+03  0.17470535006E+03 0.  0.
        -24    2    5    5    0    0 -0.32176257755E+02 -0.93681127857E+02 -0.19830030723E+03  0.23607457622E+03  0.81220246324E+02 0.  0.
          5    1    3    3  501    0  0.38542663754E+02  0.80484612102E+02 -0.10626594854E+03  0.13884470294E+03  0.47000000000E+01 0. -1.
        -11    1    4    4    0    0 -0.22697323690E+02  0.26834761276E+01  0.38447274749E+01  0.23176528561E+02  0.00000000000E+00 0.  1.
         12    1    4    4    0    0  0.50184472808E+02 -0.40053850622E+02 -0.45835334774E+02  0.78890241314E+02  0.00000000000E+00 0. -1.
         -5    1    5    5    0  502 -0.33853555117E+02  0.50566890250E+02 -0.14060826959E+03  0.15328355770E+03  0.47000000000E+01 0.  1.
         11    1    6    6    0    0 -0.25027358993E+01 -0.61094009830E+02 -0.17672493811E+03  0.18700386487E+03  0.00000000000E+00 0. -1.
        -12    1    6    6    0    0 -0.29673521856E+02 -0.32587118027E+02 -0.21575369115E+02  0.49070711357E+02  0.00000000000E+00 0.  1.
</event>
<event>
12    1  0.1046899E+000  0.2438294E+03  0.7818608E-02  0.1117327E+00
         21   -1    0    0  501  502  0.00000000000E+00  0.00000000000E+00  0.14590516349E+03  0.14590516349E+03  0.00000000000E+00 0.  1.
         21   -1    0    0  502  503 -0.00000000000E+00 -0.00000000000E+00 -0.66648377249E+03  0.66648377249E+03  0.00000000000E+00 0.  1.
         -6    2    1    2    0  503  0.13715480462E+03 -0.10225168863E+03 -0.66582353159E+01  0.24355949026E+03  0.17323407557E+03 0.  0.
        -24    2    3    3    0    0  0.16811401031E+03 -0.10234327308E+03 -0.25633228357E+01  0.21197881401E+03  0.78689141293E+02 0.  0.
          6    2    1    2  501    0 -0.13715480462E+03  0.10225168863E+03 -0.51392037368E+03  0.56882944573E+03  0.17374101296E+03 0.  0.
         24    2    5    5    0    0 -0.52188904627E+01  0.38416782686E+02 -0.27057116584E+03  0.28471167504E+03  0.79679960546E+02 0.  0.
          5    1    5    5  501    0 -0.13193591416E+03  0.63834905945E+02 -0.24334920784E+03  0.28411777068E+03  0.47000000000E+01 0. -1.
        -13    1    6    6    0    0  0.88683074414E+00  0.47767044421E+02 -0.75663205909E+02  0.89484064111E+02  0.00000000000E+00 0.  1.
         14    1    6    6    0    0 -0.61057212069E+01 -0.93502617349E+01 -0.19490795993E+03  0.19522761093E+03  0.00000000000E+00 0. -1.
         -5    1    3    3    0  503 -0.30959205683E+02  0.91584450295E-01 -0.40949124802E+01  0.31580676251E+02  0.47000000000E+01 0.  1.
         13    1    4    4    0    0  0.10988106376E+03 -0.66074282258E+02  0.36136319852E+02  0.13321220875E+03  0.00000000000E+00 0. -1.
        -14    1    4    4    0    0  0.58232946550E+02 -0.36268990822E+02 -0.38699642687E+02  0.78766605255E+02  0.00000000000E+00 0.  1.
</event>
<event>
12    1  0.1046899E+000  0.4578903E+03  0.7818608E-02  0.1025455E+00
         21   -1    0    0  501  502  0.00000000000E+00  0.00000000000E+00  0.34086133379E+03  0.34086133379E+03  0.00000000000E+00 0.  1.
         21   -1    0    0  502  503 -0.00000000000E+00 -0.00000000000E+00 -0.67151121943E+03  0.67151121943E+03  0.00000000000E+00 0.  1.
         -6    2    1    2    0  503 -0.24757143725E+03 -0.34307760093E+03 -0.31333240932E+03  0.55415487095E+03  0.17296405832E+03 0.  0.
        -24    2    3    3    0    0 -0.24423395766E+03 -0.32442038447E+03 -0.24094492156E+03  0.47917974921E+03  0.81608607987E+02 0.  0.
          6    2    1    2  501    0  0.24757143725E+03  0.34307760093E+03 -0.17317476321E+02  0.45821768227E+03  0.17512764648E+03 0.  0.
         24    2    5    5    0    0  0.14717403965E+03  0.28334537567E+03  0.32827597889E+02  0.33100056610E+03  0.80863611813E+02 0.  0.
          5    1    5    5  501    0  0.10039739760E+03  0.59732225255E+02 -0.50145074210E+02  0.12721711617E+03  0.47000000000E+01 0. -1.
        -13    1    6    6    0    0  0.29878302253E+02  0.45088018297E+02 -0.24401997021E+02  0.59338855720E+02  0.00000000000E+00 0.  1.
         14    1    6    6    0    0  0.11729573739E+03  0.23825735738E+03  0.57229594909E+02  0.27166171038E+03  0.00000000000E+00 0. -1.
         -5    1    3    3    0  503 -0.33374795916E+01 -0.18657216465E+02 -0.72387487759E+02  0.74975121743E+02  0.47000000000E+01 0.  1.
         13    1    4    4    0    0 -0.11427844972E+03 -0.14397986112E+03 -0.62792227777E+02  0.19424888249E+03  0.00000000000E+00 0. -1.
        -14    1    4    4    0    0 -0.12995550793E+03 -0.18044052334E+03 -0.17815269378E+03  0.28493086672E+03  0.00000000000E+00 0.  1.
</event>
<event>
12    1  0.1046899E+000  0.1842687E+03  0.7818608E-02  0.1164015E+00
         21   -1    0    0  501  502  0.00000000000E+00  0.00000000000E+00  0.72440613600E+02  0.72440613600E+02  0.00000000000E+00 0. -1.
         21   -1    0    0  502  503 -0.00000000000E+00 -0.00000000000E+00 -0.49183875157E+03  0.49183875157E+03  0.00000000000E+00 0. -1.
         -6    2    1    2    0  503  0.54486243963E+02  0.39682879220E+02 -0.14402529586E+03  0.23294094907E+03  0.17021961762E+03 0.  0.
        -24    2    3    3    0    0 -0.30741479231E+01 -0.28465368728E+02 -0.32039268700E+02  0.89691716292E+02  0.78729674395E+02 0.  0.
          6    2    1    2  501    0 -0.54486243963E+02 -0.39682879220E+02 -0.27537284211E+03  0.33133841610E+03  0.17149770298E+03 0.  0.
         24    2    5    5    0    0 -0.84665544661E+02 -0.74616991685E+02 -0.20661738012E+03  0.24838911859E+03  0.79186252368E+02 0.  0.
          5    1    5    5  501    0  0.30179300697E+02  0.34934112465E+02 -0.68755461995E+02  0.82949297517E+02  0.47000000000E+01 0. -1.
        -13    1    6    6    0    0 -0.15771084571E+02 -0.63594223324E+02 -0.76314928604E+02  0.10058290449E+03  0.00000000000E+00 0.  1.
         14    1    6    6    0    0 -0.68894460089E+02 -0.11022768361E+02 -0.13030245152E+03  0.14780621409E+03  0.00000000000E+00 0. -1.
         -5    1    3    3    0  503  0.57560391886E+02  0.68148247948E+02 -0.11198602716E+03  0.14324923278E+03  0.47000000000E+01 0.  1.
         11    1    4    4    0    0  0.85515007160E+01 -0.53830365970E+02 -0.28672790649E+02  0.61587055365E+02  0.00000000000E+00 0. -1.
        -12    1    4    4    0    0 -0.11625648639E+02  0.25364997242E+02 -0.33664780513E+01  0.28104660927E+02  0.00000000000E+00 0.  1.
</event>
<event>
12    1  0.1046899E+000  0.1847102E+03  0.7818608E-02  0.1163874E+00
         21   -1    0    0  503  502  0.00000000000E+00  0.00000000000E+00  0.48633455625E+02  0.48633455625E+02  0.00000000000E+00 0. -1.
         21   -1    0    0  501  503 -0.00000000000E+00 -0.00000000000E+00 -0.69969599801E+03  0.69969599801E+03  0.00000000000E+00 0. -1.
          6    2    1    2  501    0 -0.65074880321E+02 -0.17261412228E+02 -0.36515724483E+03  0.40921590196E+03  0.17200332720E+03 0.  0.
         24    2    3    3    0    0 -0.92345249691E+02 -0.42100020808E-01 -0.35402138044E+03  0.37477355543E+03  0.81218428533E+02 0.  0.
         -6    2    1    2    0  502  0.65074880321E+02  0.17261412228E+02 -0.28590529756E+03  0.33911355168E+03  0.16947998513E+03 0.  0.
        -24    2    5    5    0    0 -0.21691115370E+02  0.23136819742E+02 -0.92179388146E+02  0.12671139444E+03  0.80950114069E+02 0.  0.
          5    1    3    3  501    0  0.27270369370E+02 -0.17219312208E+02 -0.11135864390E+02  0.34442346525E+02  0.47000000000E+01 0. -1.
        -13    1    4    4    0    0 -0.14390221229E+01  0.60093444219E+01 -0.16321314794E+03  0.16333007888E+03  0.00000000000E+00 0.  1.
         14    1    4    4    0    0 -0.90906227568E+02 -0.60514444427E+01 -0.19080823250E+03  0.21144347656E+03  0.00000000000E+00 0. -1.
         -5    1    5    5    0  502  0.86765995691E+02 -0.58754075137E+01 -0.19372590942E+03  0.21240215724E+03  0.47000000000E+01 0.  1.
         11    1    6    6    0    0 -0.21824618543E+02 -0.19746257079E+02 -0.74904724175E+02  0.80479477800E+02  0.00000000000E+00 0. -1.
        -12    1    6    6    0    0  0.13350317318E+00  0.42883076822E+02 -0.17274663971E+02  0.46231916639E+02  0.00000000000E+00 0.  1.
</event>
<event>
12    1  0.1046899E+000  0.2697242E+03  0.7818608E-02  0.1101609E+00
         21   -1    0    0  501  502  0.00000000000E+00  0.00000000000E+00  0.30458537030E+03  0.30458537030E+03  0.00000000000E+00 0. -1.
         21   -1    0    0  502  503 -0.00000000000E+00 -0.00000000000E+00 -0.30113609546E+03  0.30113609546E+03  0.00000000000E+00 0. -1.
         -6    2    1    2    0  503  0.55709489438E+02 -0.20036627469E+03  0.14061795885E+03  0.30312210353E+03  0.16988056996E+03 0.  0.
        -24    2    3    3    0    0  0.75459393322E+02 -0.21340960818E+03  0.14176886062E+03  0.27896425125E+03  0.80528645409E+02 0.  0.
          6    2    1    2  501    0 -0.55709489438E+02  0.20036627469E+03 -0.13716868402E+03  0.30259936223E+03  0.17175836195E+03 0.  0.
         24    2    5    5    0    0  0.16300061834E+02  0.93356278764E+02 -0.11886399417E+03  0.17223960474E+03  0.80973733584E+02 0.  0.
          5    1    5    5  501    0 -0.72009551272E+02  0.10700999593E+03 -0.18304689849E+02  0.13035975749E+03  0.47000000000E+01 0. -1.
        -11    1    6    6    0    0 -0.31180171144E+02  0.50044009783E+02 -0.43979010073E+02  0.73557863718E+02  0.00000000000E+00 0.  1.
         12    1    6    6    0    0  0.47480232978E+02  0.43312268980E+02 -0.74884984095E+02  0.98681741021E+02  0.00000000000E+00 0. -1.
         -5    1    3    3    0  503 -0.19749903884E+02  0.13043333484E+02 -0.11509017700E+01  0.24157852278E+02  0.47000000000E+01 0.  1.
         11    1    4    4    0    0  0.19878649916E+02 -0.30129300336E+02  0.61480294045E+02  0.71293492108E+02  0.00000000000E+00 0. -1.
        -12    1    4    4    0    0  0.55580743406E+02 -0.18328030784E+03  0.80288566579E+02  0.20767075914E+03  0.00000000000E+00 0.  1.
</event>
<event>
12    1  0.1046899E+000  0.1845185E+03  0.7818608E-02  0.1164135E+00
         21   -1    0    0  501  502  0.00000000000E+00  0.00000000000E+00  0.77475464719E+03  0.77475464719E+03  0.00000000000E+00 0. -1.
         21   -1    0    0  502  503 -0.00000000000E+00 -0.00000000000E+00 -0.88462349265E+02  0.88462349265E+02  0.00000000000E+00 0. -1.
         -6    2    1    2    0  503 -0.53521201154E+02 -0.23524326190E+02  0.33554354844E+02  0.18490002601E+03  0.17217494589E+03 0.  0.
        -24    2    3    3    0    0  0.64225608666E+01 -0.63333963192E+02 -0.77752528875E+01  0.10178391278E+03  0.79038409403E+02 0.  0.
          6    2    1    2  501    0  0.53521201154E+02  0.23524326190E+02  0.65273794308E+03  0.67831697045E+03  0.17501193434E+03 0.  0.
         24    2    5    5    0    0 -0.18521652829E+02  0.59467282777E+02  0.30252080274E+03  0.31893388191E+03  0.79502047740E+02 0.  0.
          5    1    5    5  501    0  0.72042853982E+02 -0.35942956587E+02  0.35021714034E+03  0.35938308854E+03  0.47000000000E+01 0. -1.
        -13    1    6    6    0    0 -0.26542802090E+02 -0.11449977120E+02  0.70889976149E+02  0.76557240267E+02  0.00000000000E+00 0.  1.
         14    1    6    6    0    0  0.80211492612E+01  0.70917259897E+02  0.23163082659E+03  0.24237664164E+03  0.00000000000E+00 0. -1.
         -5    1    3    3    0  503 -0.59943762020E+02  0.39809637003E+02  0.41329607732E+02  0.83116113231E+02  0.47000000000E+01 0.  1.
         11    1    4    4    0    0 -0.26422529928E+02 -0.85265849075E+01 -0.23052878391E+02  0.36087226827E+02  0.00000000000E+00 0. -1.
        -12    1    4    4    0    0  0.32845090795E+02 -0.54807378285E+02  0.15277625503E+02  0.65696685950E+02  0.00000000000E+00 0.  1.
</event>
<event>
12    1  0.1046899E+000  0.2529064E+03  0.7818608E-02  0.1112022E+00
         21   -1    0    0  503  502  0.00000000000E+00  0.00000000000E+00  0.43184240788E+03  0.43184240788E+03  0.00000000000E+00 0. -1.
         21   -1    0    0  501  503 -0.00000000000E+00 -0.00000000000E+00 -0.30379202830E+03  0.30379202830E+03  0.00000000000E+00 0.  1.
          6    2    1    2  501    0  0.13803028282E+03  0.11876884448E+03  0.32923463207E+03  0.41515911688E+03  0.17550855245E+03 0.  0.
         24    2    3    3    0    0  0.87789165939E+02  0.15057264113E+03  0.22020587890E+03  0.29088116097E+03  0.75777059815E+02 0.  0.
         -6    2    1    2    0  502 -0.13803028282E+03 -0.11876884448E+03 -0.20118425249E+03  0.32047531930E+03  0.17050199247E+03 0.  0.
        -24    2    5    5    0    0 -0.12697159915E+03 -0.13572618798E+03 -0.21524726318E+03  0.29538141062E+03  0.79846154171E+02 0.  0.
          5    1    3    3  501    0  0.50241116883E+02 -0.31803796656E+02  0.10902875317E+03  0.12427795591E+03  0.47000000000E+01 0. -1.
        -13    1    4    4    0    0  0.63552739217E+02  0.67169568670E+02  0.65011163360E+02  0.11303606937E+03  0.00000000000E+00 0.  1.
         14    1    4    4    0    0  0.24236426722E+02  0.83403072464E+02  0.15519471554E+03  0.17784509160E+03  0.00000000000E+00 0. -1.
         -5    1    5    5    0  502 -0.11058683669E+02  0.16957343506E+02  0.14063010693E+02  0.25093908683E+02  0.47000000000E+01 0.  1.
         11    1    6    6    0    0 -0.20766051549E+01 -0.51206924175E+02 -0.48592529596E+02  0.70623617190E+02  0.00000000000E+00 0. -1.
        -12    1    6    6    0    0 -0.12489499400E+03 -0.84519263809E+02 -0.16665473359E+03  0.22475779343E+03  0.00000000000E+00 0.  1.
</event>
<event>
12    1  0.1046899E+000  0.1827841E+03  0.7818608E-02  0.1165158E+00
         21   -1    0    0  501  502  0.00000000000E+00  0.00000000000E+00  0.48444702479E+03  0.48444702479E+03  0.00000000000E+00 0. -1.
         21   -1    0    0  502  503 -0.00000000000E+00 -0.00000000000E+00 -0.11827957496E+03  0.11827957496E+03  0.00000000000E+00 0. -1.
         -6    2    1    2    0  503  0.23882706443E+02 -0.56714134248E+02  0.37771792254E+03  0.41957786695E+03  0.17201128084E+03 0.  0.
        -24    2    3    3    0    0  0.21434987631E+02  0.33883545112E+02  0.21902466277E+03  0.23676766065E+03  0.80495769469E+02 0.  0.
          6    2    1    2  501    0 -0.23882706443E+02  0.56714134248E+02 -0.11550472708E+02  0.18314873280E+03  0.17211382343E+03 0.  0.
         24    2    5    5    0    0 -0.65919551159E+02  0.63646885419E+02  0.14442039834E+02  0.13302029715E+03  0.95338941108E+02 0.  0.
          5    1    5    5  501    0  0.42036844716E+02 -0.69327511705E+01 -0.25992512542E+02  0.50128435650E+02  0.47000000000E+01 0. -1.
        -13    1    6    6    0    0 -0.38116390155E+02  0.80053690545E+02 -0.14282795185E+02  0.89807854927E+02  0.00000000000E+00 0.  1.
         14    1    6    6    0    0 -0.27803161004E+02 -0.16406805126E+02  0.28724835019E+02  0.43212442226E+02  0.00000000000E+00 0. -1.
         -5    1    3    3    0  503  0.24477188120E+01 -0.90597679360E+02  0.15869325977E+03  0.18281020630E+03  0.47000000000E+01 0.  1.
         11    1    4    4    0    0 -0.15476657225E+02  0.44850374723E+02  0.85275377563E+02  0.97585721548E+02  0.00000000000E+00 0. -1.
        -12    1    4    4    0    0  0.36911644856E+02 -0.10966829611E+02  0.13374928521E+03  0.13918193910E+03  0.00000000000E+00 0.  1.
</event>
<event>
12    1  0.1046899E+000  0.1790989E+03  0.7818608E-02  0.1169219E+00
         21   -1    0    0  503  502  0.00000000000E+00  0.00000000000E+00  0.44744058829E+02  0.44744058829E+02  0.00000000000E+00 0. -1.
         21   -1    0    0  501  503 -0.00000000000E+00 -0.00000000000E+00 -0.10721165554E+04  0.10721165554E+04  0.00000000000E+00 0. -1.
          6    2    1    2  501    0 -0.19092344096E+02 -0.42094847443E+02 -0.18618758874E+03  0.25682081587E+03  0.17074723857E+03 0.  0.
         24    2    3    3    0    0 -0.14280724880E+02 -0.64850720575E+02 -0.48007237313E+02  0.11661781675E+03  0.82978703818E+02 0.  0.
         -6    2    1    2    0  502  0.19092344096E+02  0.42094847443E+02 -0.84118490785E+03  0.86003979838E+03  0.17303153416E+03 0.  0.
        -24    2    5    5    0    0 -0.20992746427E+02  0.72071750858E+02 -0.35871587757E+03  0.37495848107E+03  0.79257485654E+02 0.  0.
          5    1    3    3  501    0 -0.48116192169E+01  0.22755873132E+02 -0.13818035142E+03  0.14020299911E+03  0.47000000000E+01 0. -1.
        -13    1    4    4    0    0 -0.17968804292E+02 -0.15713070099E+02 -0.61129491570E+02  0.65624638964E+02  0.00000000000E+00 0.  1.
         14    1    4    4    0    0  0.36880794120E+01 -0.49137650476E+02  0.13122254257E+02  0.50993177788E+02  0.00000000000E+00 0. -1.
         -5    1    5    5    0  502  0.40085090523E+02 -0.29976903415E+02 -0.48246903028E+03  0.48508131731E+03  0.47000000000E+01 0.  1.
         13    1    6    6    0    0 -0.33908249708E+02  0.78684636470E+02 -0.34312347941E+03  0.35365910640E+03  0.00000000000E+00 0. -1.
        -14    1    6    6    0    0  0.12915503281E+02 -0.66128856124E+01 -0.15592398157E+02  0.21299374672E+02  0.00000000000E+00 0.  1.
</event>
<event>
12    1  0.1046899E+000  0.1890270E+03  0.7818608E-02  0.1159673E+00
         21   -1    0    0  501  502  0.00000000000E+00  0.00000000000E+00  0.14447369814E+03  0.14447369814E+03  0.00000000000E+00 0.  1.
         21   -1    0    0  502  503 -0.00000000000E+00 -0.00000000000E+00 -0.10497140613E+04  0.10497140613E+04  0.00000000000E+00 0.  1.
         -6    2    1    2    0  503 -0.76061104592E+02 -0.10065784512E+02  0.69624202718E+02  0.20144163129E+03  0.17275586694E+03 0.  0.
        -24    2    3    3    0    0 -0.40115200342E+02  0.41125025685E+02  0.93700145184E+02  0.13425273275E+03  0.77094630210E+02 0.  0.
          6    2    1    2  501    0  0.76061104592E+02  0.10065784512E+02 -0.97486456586E+03  0.99274612813E+03  0.17116466192E+03 0.  0.
         24    2    5    5    0    0  0.22791371307E+02  0.65006296294E+02 -0.70879233396E+03  0.71584786720E+03  0.72844568226E+02 0.  0.
          5    1    5    5  501    0  0.53269733285E+02 -0.54940511783E+02 -0.26607223190E+03  0.27689826093E+03  0.47000000000E+01 0. -1.
        -11    1    6    6    0    0  0.33866647265E+02  0.76506623068E+02 -0.56280744032E+03  0.56899246748E+03  0.00000000000E+00 0.  1.
         12    1    6    6    0    0 -0.11075275959E+02 -0.11500326774E+02 -0.14598489364E+03  0.14685539971E+03  0.00000000000E+00 0. -1.
         -5    1    3    3    0  503 -0.35945904250E+02 -0.51190810197E+02 -0.24075942466E+02  0.67188898536E+02  0.47000000000E+01 0.  1.
         13    1    4    4    0    0 -0.61434468789E+02  0.16579598610E+02  0.62463551873E+02  0.89167103564E+02  0.00000000000E+00 0. -1.
        -14    1    4    4    0    0  0.21319268447E+02  0.24545427075E+02  0.31236593312E+02  0.45085629186E+02  0.00000000000E+00 0.  1.
</event>
<event>
12    1  0.1046899E+000  0.1822473E+03  0.7818608E-02  0.1166062E+00
         21   -1    0    0  501  502  0.00000000000E+00  0.00000000000E+00  0.52229680570E+03  0.52229680570E+03  0.00000000000E+00 0.  1.
         21   -1    0    0  502  503 -0.00000000000E+00 -0.00000000000E+00 -0.64932835898E+02  0.64932835898E+02  0.00000000000E+00 0.  1.
         -6    2    1    2    0  503  0.54173486356E+02  0.67052896228E+01  0.17678740332E+03  0.25265933152E+03  0.17205587552E+03 0.  0.
        -24    2    3    3    0    0 -0.85655235433E+01  0.35198812718E+02  0.15658590703E+03  0.18069924068E+03  0.82587799900E+02 0.  0.
          6    2    1    2  501    0 -0.54173486356E+02 -0.67052896228E+01  0.28057656649E+03  0.33457031008E+03  0.17388028983E+03 0.  0.
         24    2    5    5    0    0  0.19596228153E+02 -0.28960946196E+02  0.21839281450E+03  0.23544314912E+03  0.80717448430E+02 0.  0.
          5    1    5    5  501    0 -0.73769714509E+02  0.22255656573E+02  0.62183751996E+02  0.99127160962E+02  0.47000000000E+01 0. -1.
        -11    1    6    6    0    0  0.18865809753E+02 -0.98243378889E+01  0.58787869764E+01  0.22067997845E+02  0.00000000000E+00 0.  1.
         12    1    6    6    0    0  0.73041840045E+00 -0.19136608307E+02  0.21251402752E+03  0.21337515127E+03  0.00000000000E+00 0. -1.
         -5    1    3    3    0  503  0.62739009899E+02 -0.28493523095E+02  0.20201496285E+02  0.71960090839E+02  0.47000000000E+01 0.  1.
         13    1    4    4    0    0  0.21337699345E+02 -0.10620137390E+02  0.13236903440E+02  0.27263535065E+02  0.00000000000E+00 0. -1.
        -14    1    4    4    0    0 -0.29903222888E+02  0.45818950108E+02  0.14334900359E+03  0.15343570562E+03  0.00000000000E+00 0.  1.
</event>
<event>
12    1  0.1046899E+000  0.1753273E+03  0.7818608E-02  0.1172504E+00
         21   -1    0    0  501  502  0.00000000000E+00  0.00000000000E+00  0.35249997543E+03  0.35249997543E+03  0.00000000000E+00 0.  1.
         21   -1    0    0  502  503 -0.00000000000E+00 -0.00000000000E+00 -0.87186937097E+02  0.87186937097E+02  0.00000000000E+00 0.  1.
         -6    2    1    2    0  503 -0.31674982557E+02  0.33907570270E+01  0.14285929502E+03  0.22616019269E+03  0.17240896970E+03 0.  0.
        -24    2    3    3    0    0  0.17085911987E+02 -0.53183164783E+02  0.11382860780E+03  0.14589124312E+03  0.72159028955E+02 0.  0.
          6    2    1    2  501    0  0.31674982557E+02 -0.33907570270E+01  0.12245374331E+03  0.21352671983E+03  0.17199982290E+03 0.  0.
         24    2    5    5    0    0 -0.59879817370E+01 -0.65035571649E+02  0.72489142986E+02  0.12556574363E+03  0.79035426344E+02 0.  0.
          5    1    5    5  501    0  0.37662964294E+02  0.61644814622E+02  0.49964600324E+02  0.87960976204E+02  0.47000000000E+01 0. -1.
        -13    1    6    6    0    0 -0.55644298254E+01 -0.78026586877E+01  0.67430522638E+02  0.68108147421E+02  0.00000000000E+00 0.  1.
         14    1    6    6    0    0 -0.42355191160E+00 -0.57232912961E+02  0.50586203482E+01  0.57457596209E+02  0.00000000000E+00 0. -1.
         -5    1    3    3    0  503 -0.48760894544E+02  0.56573921810E+02  0.29030687225E+02  0.80268949578E+02  0.47000000000E+01 0.  1.
         13    1    4    4    0    0 -0.18466779067E+02  0.64969698690E+01  0.39913190116E+02  0.44455542869E+02  0.00000000000E+00 0. -1.
        -14    1    4    4    0    0  0.35552691054E+02 -0.59680134652E+02  0.73915417682E+02  0.10143570025E+03  0.00000000000E+00 0.  1.
</event>
<event>
12    1  0.1046899E+000  0.5006797E+03  0.7818608E-02  0.1013611E+00
         21   -1    0    0  501  502  0.00000000000E+00  0.00000000000E+00  0.89524040249E+03  0.89524040249E+03  0.00000000000E+00 0.  1.
         21   -1    0    0  502  503 -0.00000000000E+00 -0.00000000000E+00 -0.28213971419E+03  0.28213971419E+03  0.00000000000E+00 0.  1.
         -6    2    1    2    0  503 -0.46862709032E+03  0.67011386100E+01  0.35860381081E+03  0.61585456302E+03  0.17613601172E+03 0.  0.
        -24    2    3    3    0    0 -0.30321588405E+03  0.65738104455E+02  0.19063361293E+03  0.37278603797E+03  0.79792762869E+02 0.  0.
          6    2    1    2  501    0  0.46862709032E+03 -0.67011386100E+01  0.25449687749E+03  0.56152555366E+03  0.17574422244E+03 0.  0.
         24    2    5    5    0    0  0.37454865706E+03  0.56643033550E+02  0.19343164882E+03  0.43262913049E+03  0.79101403501E+02 0.  0.
          5    1    5    5  501    0  0.94078433260E+02 -0.63344172160E+02  0.61065228674E+02  0.12889642316E+03  0.47000000000E+01 0. -1.
        -13    1    6    6    0    0  0.15700396569E+03  0.55890122640E+02  0.10973193039E+03  0.19953708327E+03  0.00000000000E+00 0.  1.
         14    1    6    6    0    0  0.21754469136E+03  0.75291091078E+00  0.83699718426E+02  0.23309204723E+03  0.00000000000E+00 0. -1.
         -5    1    3    3    0  503 -0.16541120626E+03 -0.59036965845E+02  0.16797019788E+03  0.24306852505E+03  0.47000000000E+01 0.  1.
         11    1    4    4    0    0 -0.11883279226E+03 -0.85215513082E+01  0.49547769986E+02  0.12903034862E+03  0.00000000000E+00 0. -1.
        -12    1    4    4    0    0 -0.18438309179E+03  0.74259655763E+02  0.14108584294E+03  0.24375568935E+03  0.00000000000E+00 0.  1.
</event>
<event>
12    1  0.1046899E+000  0.2000176E+03  0.7818608E-02  0.1149892E+00
         21   -1    0    0  501  502  0.00000000000E+00  0.00000000000E+00  0.18009317671E+03  0.18009317671E+03  0.00000000000E+00 0.  1.
         21   -1    0    0  502  503 -0.00000000000E+00 -0.00000000000E+00 -0.23947942835E+03  0.23947942835E+03  0.00000000000E+00 0.  1.
         -6    2    1    2    0  503 -0.41808612689E+02 -0.91070834494E+02 -0.87497994894E+02  0.21758916378E+03  0.17218387873E+03 0.  0.
        -24    2    3    3    0    0 -0.35949127672E+02 -0.94245836507E+01 -0.10128914380E+03  0.13444633709E+03  0.80219476114E+02 0.  0.
          6    2    1    2  501    0  0.41808612689E+02  0.91070834494E+02  0.28111743252E+02  0.20198344127E+03  0.17310454485E+03 0.  0.
         24    2    5    5    0    0 -0.31393806204E+02  0.16353034857E+02 -0.13700952790E+02  0.89237109782E+02  0.80762323133E+02 0.  0.
          5    1    5    5  501    0  0.73202418893E+02  0.74717799637E+02  0.41812696041E+02  0.11274633149E+03  0.47000000000E+01 0. -1.
        -11    1    6    6    0    0 -0.12921389462E+02 -0.21408691759E+02  0.22592062990E+02  0.33700084549E+02  0.00000000000E+00 0.  1.
         12    1    6    6    0    0 -0.18472416741E+02  0.37761726616E+02 -0.36293015780E+02  0.55537025233E+02  0.00000000000E+00 0. -1.
         -5    1    3    3    0  503 -0.58594850174E+01 -0.81646250843E+02  0.13791148911E+02  0.83142826688E+02  0.47000000000E+01 0.  1.
         13    1    4    4    0    0 -0.44023255134E+02 -0.32731408788E+02 -0.38594338761E+02  0.67073952457E+02  0.00000000000E+00 0. -1.
        -14    1    4    4    0    0  0.80741274622E+01  0.23306825137E+02 -0.62694805044E+02  0.67372384638E+02  0.00000000000E+00 0.  1.
</event>
<event>
12    1  0.1046899E+000  0.1998380E+03  0.7818608E-02  0.1151086E+00
         21   -1    0    0  503  502  0.00000000000E+00  0.00000000000E+00  0.14409775787E+03  0.14409775787E+03  0.00000000000E+00 0.  1.
         21   -1    0    0  501  503 -0.00000000000E+00 -0.00000000000E+00 -0.27650662418E+03  0.27650662418E+03  0.00000000000E+00 0.  1.
          6    2    1    2  501    0  0.89031950386E+02 -0.10058484017E+02 -0.10091583101E+03  0.22387322683E+03  0.17862630112E+03 0.  0.
         24    2    3    3    0    0 -0.20973086165E+02  0.30216238216E+01 -0.19819613696E+02  0.86501891572E+02  0.81490855957E+02 0.  0.
         -6    2    1    2    0  502 -0.89031950386E+02  0.10058484017E+02 -0.31493035298E+02  0.19673115521E+03  0.17228892846E+03 0.  0.
        -24    2    5    5    0    0 -0.12861017683E+03  0.77360601767E+01 -0.36862624837E+02  0.15644775723E+03  0.80725605734E+02 0.  0.
          5    1    3    3  501    0  0.11000503655E+03 -0.13080107839E+02 -0.81096217317E+02  0.13737133526E+03  0.47000000000E+01 0. -1.
        -13    1    4    4    0    0 -0.28712461847E+02  0.30497440455E+02 -0.34625585134E+02  0.54345473459E+02  0.00000000000E+00 0.  1.
         14    1    4    4    0    0  0.77393756821E+01 -0.27475816633E+02  0.14805971438E+02  0.32156418113E+02  0.00000000000E+00 0. -1.
         -5    1    5    5    0  502  0.39578226447E+02  0.23224238404E+01  0.53695895390E+01  0.40283397982E+02  0.47000000000E+01 0.  1.
         11    1    6    6    0    0 -0.89963720049E+02 -0.25745519873E+02 -0.46377151066E+02  0.10443726758E+03  0.00000000000E+00 0. -1.
        -12    1    6    6    0    0 -0.38646456784E+02  0.33481580049E+02  0.95145262285E+01  0.52010489653E+02  0.00000000000E+00 0.  1.
</event>
<event>
12    1  0.1046899E+000  0.4035940E+03  0.7818608E-02  0.1042563E+00
         21   -1    0    0  503  502  0.00000000000E+00  0.00000000000E+00  0.46917934128E+03  0.46917934128E+03  0.00000000000E+00 0. -1.
         21   -1    0    0  501  503 -0.00000000000E+00 -0.00000000000E+00 -0.46143217249E+03  0.46143217249E+03  0.00000000000E+00 0. -1.
          6    2    1    2  501    0  0.15095078545E+03  0.33206343779E+03  0.23562451014E+03  0.46712881031E+03  0.17215733878E+03 0.  0.
         24    2    3    3    0    0  0.39140776490E+02  0.10559278723E+03  0.13999711064E+03  0.19702304732E+03  0.80852044415E+02 0.  0.
         -6    2    1    2    0  502 -0.15095078545E+03 -0.33206343779E+03 -0.22787734136E+03  0.46348270346E+03  0.17273062078E+03 0.  0.
        -24    2    5    5    0    0 -0.15607417081E+03 -0.18355023268E+03 -0.15607648841E+03  0.29837705954E+03  0.81358249191E+02 0.  0.
          5    1    3    3  501    0  0.11181000896E+03  0.22647065056E+03  0.95627399504E+02  0.27010576300E+03  0.47000000000E+01 0. -1.
        -11    1    4    4    0    0  0.63440257244E+02  0.87701543502E+02  0.11388868292E+03  0.15712052402E+03  0.00000000000E+00 0.  1.
         12    1    4    4    0    0 -0.24299480754E+02  0.17891243731E+02  0.26108427717E+02  0.39902523291E+02  0.00000000000E+00 0. -1.
         -5    1    5    5    0  502  0.51233853633E+01 -0.14851320511E+03 -0.71800852945E+02  0.16510564392E+03  0.47000000000E+01 0.  1.
         13    1    6    6    0    0 -0.74462420802E+02 -0.96331069464E+02 -0.12597106596E+03  0.17519428220E+03  0.00000000000E+00 0. -1.
        -14    1    6    6    0    0 -0.81611750010E+02 -0.87219163214E+02 -0.30105422452E+02  0.12318277734E+03  0.00000000000E+00 0.  1.
</event>
<event>
12    1  0.1046899E+000  0.2684630E+03  0.7818608E-02  0.1102434E+00
         21   -1    0    0  501  502  0.00000000000E+00  0.00000000000E+00  0.14289751372E+03  0.14289751372E+03  0.00000000000E+00 0. -1.
         21   -1    0    0  502  503 -0.00000000000E+00 -0.00000000000E+00 -0.51273724406E+03  0.51273724406E+03  0.00000000000E+00 0.  1.
         -6    2    1    2    0  503 -0.40561091790E+02  0.20085756753E+03 -0.13436970458E+03  0.29853738695E+03  0.17052973142E+03 0.  0.
        -24    2    3    3    0    0  0.19359045376E+02  0.16154139368E+03 -0.43170017969E+02  0.18245268856E+03  0.70391324739E+02 0.  0.
          6    2    1    2  501    0  0.40561091790E+02 -0.20085756753E+03 -0.23547002577E+03  0.35709737083E+03  0.17344576852E+03 0.  0.
         24    2    5    5    0    0  0.83253478007E+02 -0.19101478394E+03 -0.21221264840E+03  0.30727251928E+03  0.77229551872E+02 0.  0.
          5    1    5    5  501    0 -0.42692386217E+02 -0.98427835904E+01 -0.23257377371E+02  0.49824851549E+02  0.47000000000E+01 0. -1.
        -11    1    6    6    0    0  0.14162357515E+02 -0.12148909015E+03 -0.13749276227E+03  0.18402290910E+03  0.00000000000E+00 0.  1.
         12    1    6    6    0    0  0.69091120492E+02 -0.69525693783E+02 -0.74719886127E+02  0.12324961018E+03  0.00000000000E+00 0. -1.
         -5    1    3    3    0  503 -0.59920137166E+02  0.39316173841E+02 -0.91199686610E+02  0.11608469839E+03  0.47000000000E+01 0.  1.
         11    1    4    4    0    0  0.18245125911E+02  0.10665138273E+03 -0.61641370447E+02  0.12452734883E+03  0.00000000000E+00 0. -1.
        -12    1    4    4    0    0  0.11139194653E+01  0.54890010959E+02  0.18471352479E+02  0.57925339723E+02  0.00000000000E+00 0.  1.
</event>
<event>
12    1  0.1046899E+000  0.4432252E+03  0.7818608E-02  0.1029903E+00
         21   -1    0    0  501  502  0.00000000000E+00  0.00000000000E+00  0.28715130350E+03  0.28715130350E+03  0.00000000000E+00 0.  1.
         21   -1    0    0  502  503 -0.00000000000E+00 -0.00000000000E+00 -0.68545176827E+03  0.68545176827E+03  0.00000000000E+00 0.  1.
         -6    2    1    2    0  503 -0.18026916201E+03 -0.36599207498E+03 -0.23757302707E+03  0.50288124721E+03  0.17320922574E+03 0.  0.
        -24    2    3    3    0    0 -0.64899376785E+02 -0.28150264002E+03 -0.15974570755E+03  0.34000757338E+03  0.81429683964E+02 0.  0.
          6    2    1    2  501    0  0.18026916201E+03  0.36599207498E+03 -0.16072743770E+03  0.46972182456E+03  0.16839867436E+03 0.  0.
         24    2    5    5    0    0  0.90054488804E+02  0.15493542037E+03 -0.14502503406E+03  0.23960825653E+03  0.65307431824E+02 0.  0.
          5    1    5    5  501    0  0.90214673201E+02  0.21105665461E+03 -0.15702403632E+02  0.23011356804E+03  0.47000000000E+01 0. -1.
        -11    1    6    6    0    0 -0.65471307257E+01  0.16753626307E+02 -0.31743722238E+02  0.36485789243E+02  0.00000000000E+00 0.  1.
         12    1    6    6    0    0  0.96601619530E+02  0.13818179406E+03 -0.11328131182E+03  0.20312246728E+03  0.00000000000E+00 0. -1.
         -5    1    3    3    0  503 -0.11536978522E+03 -0.84489434963E+02 -0.77827319526E+02  0.16287367383E+03  0.47000000000E+01 0.  1.
         11    1    4    4    0    0 -0.63720959247E+02 -0.22756011799E+03 -0.92452456016E+02  0.25375465428E+03  0.00000000000E+00 0. -1.
        -12    1    4    4    0    0 -0.11784175378E+01 -0.53942522028E+02 -0.67293251533E+02  0.86252919095E+02  0.00000000000E+00 0.  1.
</event>
<event>
12    1  0.1046899E+000  0.2907962E+03  0.7818608E-02  0.1090560E+00
         21   -1    0    0  503  502  0.00000000000E+00  0.00000000000E+00  0.33419753594E+03  0.33419753594E+03  0.00000000000E+00 0.  1.
         21   -1    0    0  501  503 -0.00000000000E+00 -0.00000000000E+00 -0.25343947131E+03  0.25343947131E+03  0.00000000000E+00 0.  1.
          6    2    1    2  501    0  0.23019448281E+03  0.27051891591E+01  0.80039498056E+02  0.30161022817E+03  0.17766707777E+03 0.  0.
         24    2    3    3    0    0  0.10826744386E+03 -0.37846408169E+02  0.99129200894E+02  0.17162122238E+03  0.80455301186E+02 0.  0.
         -6    2    1    2    0  502 -0.23019448281E+03 -0.27051891591E+01  0.71856657853E+00  0.28602677908E+03  0.16974682339E+03 0.  0.
        -24    2    5    5    0    0 -0.84509235379E+02  0.24143743991E+02 -0.50872245757E+02  0.12909125586E+03  0.79698404714E+02 0.  0.
          5    1    3    3  501    0  0.12192703895E+03  0.40551597328E+02 -0.19089702838E+02  0.12998900580E+03  0.47000000000E+01 0. -1.
        -11    1    4    4    0    0  0.40915997303E+01 -0.22011043244E+02 -0.55771217904E+01  0.23072310255E+02  0.00000000000E+00 0.  1.
         12    1    4    4    0    0  0.10417584413E+03 -0.15835364925E+02  0.10470632268E+03  0.14854891212E+03  0.00000000000E+00 0. -1.
         -5    1    5    5    0  502 -0.14568524743E+03 -0.26848933150E+02  0.51590812336E+02  0.15693552322E+03  0.47000000000E+01 0.  1.
         11    1    6    6    0    0 -0.73409846818E+02  0.23751530372E+02 -0.13916714682E+00  0.77156724739E+02  0.00000000000E+00 0. -1.
        -12    1    6    6    0    0 -0.11099388560E+02  0.39221361855E+00 -0.50733078610E+02  0.51934531125E+02  0.00000000000E+00 0.  1.
</event>
<event>
12    1  0.1046899E+000  0.1762116E+03  0.7818608E-02  0.1171740E+00
         21   -1    0    0  501  502  0.00000000000E+00  0.00000000000E+00  0.77882066747E+03  0.77882066747E+03  0.00000000000E+00 0.  1.
         21   -1    0    0  502  503 -0.00000000000E+00 -0.00000000000E+00 -0.39689106617E+02  0.39689106617E+02  0.00000000000E+00 0.  1.
         -6    2    1    2    0  503 -0.12429522310E+02 -0.33322397222E+02  0.37951125720E+03  0.41842481121E+03  0.17258520535E+03 0.  0.
        -24    2    3    3    0    0 -0.58239272038E+02 -0.66190961576E+02  0.24027584546E+03  0.26813354208E+03  0.79937840062E+02 0.  0.
          6    2    1    2  501    0  0.12429522310E+02  0.33322397222E+02  0.35962030365E+03  0.40008496288E+03  0.17168674831E+03 0.  0.
         24    2    5    5    0    0  0.11049858325E+02 -0.45029023851E+02  0.23676781850E+03  0.25429171282E+03  0.80346518106E+02 0.  0.
          5    1    5    5  501    0  0.13796639848E+01  0.78351421074E+02  0.12285248514E+03  0.14579325006E+03  0.47000000000E+01 0. -1.
        -13    1    6    6    0    0 -0.28224480670E+02 -0.10398316521E+02  0.36525979471E+02  0.47316946984E+02  0.00000000000E+00 0.  1.
         14    1    6    6    0    0  0.39274338995E+02 -0.34630707330E+02  0.20024183903E+03  0.20697476584E+03  0.00000000000E+00 0. -1.
         -5    1    3    3    0  503  0.45809749728E+02  0.32868564353E+02  0.13923541175E+03  0.15029126913E+03  0.47000000000E+01 0.  1.
         11    1    4    4    0    0 -0.18955867411E+02 -0.76049873972E+02  0.15237949708E+03  0.17135465962E+03  0.00000000000E+00 0. -1.
        -12    1    4    4    0    0 -0.39283404627E+02  0.98589123965E+01  0.87896348374E+02  0.96778882460E+02  0.00000000000E+00 0.  1.
</event>
<event>
12    1  0.1046899E+000  0.2771304E+03  0.7818608E-02  0.1097332E+00
         21   -1    0    0  501  502  0.00000000000E+00  0.00000000000E+00  0.10735486583E+03  0.10735486583E+03  0.00000000000E+00 0. -1.
         21   -1    0    0  502  503 -0.00000000000E+00 -0.00000000000E+00 -0.79224815330E+03  0.79224815330E+03  0.00000000000E+00 0. -1.
         -6    2    1    2    0  503 -0.20502580047E+03 -0.70894724567E+02 -0.20099157601E+03  0.34196326246E+03  0.17169629704E+03 0.  0.
        -24    2    3    3    0    0 -0.12134478242E+03 -0.10492795679E+03 -0.16777226151E+03  0.24559736324E+03  0.80225312467E+02 0.  0.
          6    2    1    2  501    0  0.20502580047E+03  0.70894724567E+02 -0.48390171145E+03  0.55763975667E+03  0.17245170639E+03 0.  0.
         24    2    5    5    0    0  0.60383266371E+02 -0.19570879758E+02 -0.23734850283E+03  0.25777968443E+03  0.78018560092E+02 0.  0.
          5    1    5    5  501    0  0.14464253410E+03  0.90465604325E+02 -0.24655320863E+03  0.29986007223E+03  0.47000000000E+01 0. -1.
        -11    1    6    6    0    0  0.67787333788E+02 -0.28738010346E+02 -0.12696422394E+03  0.14676821870E+03  0.00000000000E+00 0.  1.
         12    1    6    6    0    0 -0.74040674163E+01  0.91671305879E+01 -0.11038427889E+03  0.11101146573E+03  0.00000000000E+00 0. -1.
         -5    1    3    3    0  503 -0.83681018052E+02  0.34033232223E+02 -0.33219314501E+02  0.96365899226E+02  0.47000000000E+01 0.  1.
         13    1    4    4    0    0 -0.23531527359E+02 -0.62456516626E+02 -0.35186236125E+02  0.75449456337E+02  0.00000000000E+00 0. -1.
        -14    1    4    4    0    0 -0.97813255061E+02 -0.42471440164E+02 -0.13258602538E+03  0.17014790690E+03  0.00000000000E+00 0.  1.
</event>
<event>
12    1  0.1046899E+000  0.3446260E+03  0.7818608E-02  0.1064897E+00
         21   -1    0    0  503  502  0.00000000000E+00  0.00000000000E+00  0.30588575246E+03  0.30588575246E+03  0.00000000000E+00 0.  1.
         21   -1    0    0  501  503 -0.00000000000E+00 -0.00000000000E+00 -0.12513730117E+04  0.12513730117E+04  0.00000000000E+00 0.  1.
          6    2    1    2  501    0 -0.62141138197E+01 -0.29843469273E+03 -0.11195011673E+04  0.11711914876E+04  0.17118632012E+03 0.  0.
         24    2    3    3    0    0 -0.36798161575E+02 -0.92520854275E+02 -0.30751062428E+03  0.33292743335E+03  0.79772668602E+02 0.  0.
         -6    2    1    2    0  502  0.62141138197E+01  0.29843469273E+03  0.17401390800E+03  0.38606727653E+03  0.17223594514E+03 0.  0.
        -24    2    5    5    0    0 -0.46218711048E+02  0.14066544039E+03  0.40375573900E+02  0.17270928524E+03  0.79217263709E+02 0.  0.
          5    1    3    3  501    0  0.30584047755E+02 -0.20591383846E+03 -0.81199054297E+03  0.83826405429E+03  0.47000000000E+01 0. -1.
        -11    1    4    4    0    0 -0.30638250136E+02 -0.99624766707E+02 -0.30617554708E+03  0.32343045952E+03  0.00000000000E+00 0.  1.
         12    1    4    4    0    0 -0.61599114384E+01  0.71039124322E+01 -0.13350772028E+01  0.94969738291E+01  0.00000000000E+00 0. -1.
         -5    1    5    5    0  502  0.52432824867E+02  0.15776925234E+03  0.13363833410E+03  0.21335799129E+03  0.47000000000E+01 0.  1.
         11    1    6    6    0    0 -0.91499357046E+01  0.75664913242E+02  0.58070510133E+02  0.95817976218E+02  0.00000000000E+00 0. -1.
        -12    1    6    6    0    0 -0.37068775343E+02  0.65000527145E+02 -0.17694936234E+02  0.76891309021E+02  0.00000000000E+00 0.  1.
</event>
<event>
12    1  0.1046899E+000  0.2649938E+03  0.7818608E-02  0.1104278E+00
         21   -1    0    0  503  502  0.00000000000E+00  0.00000000000E+00  0.45436924146E+03  0.45436924146E+03  0.00000000000E+00 0.  1.
         21   -1    0    0  501  503 -0.00000000000E+00 -0.00000000000E+00 -0.36819238644E+03  0.36819238644E+03  0.00000000000E+00 0.  1.
          6    2    1    2  501    0 -0.96495017283E+02 -0.17688686813E+03  0.35668789877E+03  0.44435115805E+03  0.17210880876E+03 0.  0.
         24    2    3    3    0    0  0.14107886231E+02 -0.56382872324E+02  0.16433411996E+03  0.19181149483E+03  0.80049271225E+02 0.  0.
         -6    2    1    2    0  502  0.96495017283E+02  0.17688686813E+03 -0.27051104375E+03  0.37821046984E+03  0.17107507775E+03 0.  0.
        -24    2    5    5    0    0 -0.54035810088E+01  0.12815636754E+03 -0.15608642597E+03  0.21735939220E+03  0.80180295452E+02 0.  0.
          5    1    3    3  501    0 -0.11060290351E+03 -0.12050399581E+03  0.19235377882E+03  0.25253966322E+03  0.47000000000E+01 0. -1.
        -11    1    4    4    0    0  0.41146440624E+01 -0.19526063656E+02  0.14952868966E+03  0.15085432208E+03  0.00000000000E+00 0.  1.
         12    1    4    4    0    0  0.99932421687E+01 -0.36856808667E+02  0.14805430297E+02  0.40957172760E+02  0.00000000000E+00 0. -1.
         -5    1    5    5    0  502  0.10189859829E+03  0.48730500596E+02 -0.11442461779E+03  0.16085107764E+03  0.47000000000E+01 0.  1.
         13    1    6    6    0    0  0.19967529725E+01  0.11494343108E+03 -0.16399412730E+03  0.20027494391E+03  0.00000000000E+00 0. -1.
        -14    1    6    6    0    0 -0.74003339813E+01  0.13212936461E+02  0.79077013331E+01  0.17084448289E+02  0.00000000000E+00 0.  1.
</event>
<event>
12    1  0.1046899E+000  0.3818730E+03  0.7818608E-02  0.1050267E+00
         21   -1    0    0  503  502  0.00000000000E+00  0.00000000000E+00  0.13221148531E+04  0.13221148531E+04  0.00000000000E+00 0. -1.
         21   -1    0    0  501  503 -0.00000000000E+00 -0.00000000000E+00 -0.11274149823E+03  0.11274149823E+03  0.00000000000E+00 0.  1.
          6    2    1    2  501    0  0.32823421574E+03 -0.91293640358E+02  0.71206593806E+03  0.80800057243E+03  0.17249578475E+03 0.  0.
         24    2    3    3    0    0  0.28210909396E+03 -0.59279538688E+02  0.45180110647E+03  0.54170693352E+03  0.78883188391E+02 0.  0.
         -6    2    1    2    0  502 -0.32823421574E+03  0.91293640358E+02  0.49730741682E+03  0.62685577891E+03  0.17193391631E+03 0.  0.
        -24    2    5    5    0    0 -0.99054754548E+02  0.75751341732E+02  0.15739157951E+03  0.21657580751E+03  0.81134831759E+02 0.  0.
          5    1    3    3  501    0  0.46125121777E+02 -0.32014101670E+02  0.26026483159E+03  0.26629363891E+03  0.47000000000E+01 0. -1.
        -11    1    4    4    0    0  0.27554606124E+03 -0.42811794815E+02  0.43803541183E+03  0.51926246124E+03  0.00000000000E+00 0.  1.
         12    1    4    4    0    0  0.65630327237E+01 -0.16467743873E+02  0.13765694643E+02  0.22444472277E+02  0.00000000000E+00 0. -1.
         -5    1    5    5    0  502 -0.22917946119E+03  0.15542298627E+02  0.33991583731E+03  0.41027997140E+03  0.47000000000E+01 0.  1.
         11    1    6    6    0    0 -0.53959310105E+02  0.69262701468E+02  0.14474585561E+03  0.16929350749E+03  0.00000000000E+00 0. -1.
        -12    1    6    6    0    0 -0.45095444442E+02  0.64886402640E+01  0.12645723896E+02  0.47282300015E+02  0.00000000000E+00 0.  1.
</event>
<event>
12    1  0.1046899E+000  0.2469122E+03  0.7818608E-02  0.1115336E+00
         21   -1    0    0  503  502  0.00000000000E+00  0.00000000000E+00  0.54577522172E+03  0.54577522172E+03  0.00000000000E+00 0. -1.
         21   -1    0    0  501  503 -0.00000000000E+00 -0.00000000000E+00 -0.17496080508E+03  0.17496080508E+03  0.00000000000E+00 0. -1.
          6    2    1    2  501    0  0.17060913529E+03  0.46020393505E+02  0.40249456286E+03  0.47219433671E+03  0.17245365994E+03 0.  0.
         24    2    3    3    0    0  0.13533162136E+03  0.21248959985E+02  0.39911135342E+03  0.42870108420E+03  0.75687390770E+02 0.  0.
         -6    2    1    2    0  502 -0.17060913529E+03 -0.46020393505E+02 -0.31680146221E+02  0.24854169009E+03  0.17188364200E+03 0.  0.
        -24    2    5    5    0    0 -0.82422927269E+02 -0.77418653264E+02 -0.59098516196E+02  0.15088660823E+03  0.80541586239E+02 0.  0.
          5    1    3    3  501    0  0.35277513926E+02  0.24771433520E+02  0.33832094333E+01  0.43493252505E+02  0.47000000000E+01 0. -1.
        -11    1    4    4    0    0  0.12658871053E+03  0.23373086968E+02  0.26832855510E+03  0.29760916705E+03  0.00000000000E+00 0.  1.
         12    1    4    4    0    0  0.87429108274E+01 -0.21241269832E+01  0.13078279832E+03  0.13109191715E+03  0.00000000000E+00 0. -1.
         -5    1    5    5    0  502 -0.88186208018E+02  0.31398259759E+02  0.27418369976E+02  0.97655081858E+02  0.47000000000E+01 0.  1.
         13    1    6    6    0    0 -0.76533848983E+01 -0.10128677807E+02  0.19473796147E+02  0.23246357798E+02  0.00000000000E+00 0. -1.
        -14    1    6    6    0    0 -0.74769542370E+02 -0.67289975457E+02 -0.78572312343E+02  0.12764025043E+03  0.00000000000E+00 0.  1.
</event>
<event>
12    1  0.1046899E+000  0.2208617E+03  0.7818608E-02  0.1133358E+00
         21   -1    0    0  503  502  0.00000000000E+00  0.00000000000E+00  0.55758839812E+02  0.55758839812E+02  0.00000000000E+00 0. -1.
         21   -1    0    0  501  503 -0.00000000000E+00 -0.00000000000E+00 -0.28586886688E+04  0.28586886688E+04  0.00000000000E+00 0. -1.
          6    2    1    2  501    0 -0.12291413908E+03  0.64948142903E+02 -0.18737476207E+03  0.28963628647E+03  0.17162089071E+03 0.  0.
         24    2    3    3    0    0 -0.37084058336E+02  0.80597822384E+02 -0.15852947048E+03  0.19762619966E+03  0.77802862581E+02 0.  0.
         -6    2    1    2    0  502  0.12291413908E+03 -0.64948142903E+02 -0.26155550670E+04  0.26248112222E+04  0.17082007190E+03 0.  0.
        -24    2    5    5    0    0  0.55351365293E+02 -0.53102074346E+02 -0.75091119095E+03  0.75890020285E+03  0.78602145338E+02 0.  0.
          5    1    3    3  501    0 -0.85830080739E+02 -0.15649679481E+02 -0.28845291592E+02  0.92010086809E+02  0.47000000000E+01 0. -1.
        -13    1    4    4    0    0 -0.61003074777E+02  0.50319986381E+02 -0.99372933344E+02  0.12699785842E+03  0.00000000000E+00 0.  1.
         14    1    4    4    0    0  0.23919016441E+02  0.30277836003E+02 -0.59156537136E+02  0.70628341241E+02  0.00000000000E+00 0. -1.
         -5    1    5    5    0  502  0.67562773782E+02 -0.11846068557E+02 -0.18646438760E+04  0.18659110193E+04  0.47000000000E+01 0.  1.
         13    1    6    6    0    0  0.20151706652E+02 -0.11700318076E+02 -0.43014303668E+02  0.48920538060E+02  0.00000000000E+00 0. -1.
        -14    1    6    6    0    0  0.35199658641E+02 -0.41401756270E+02 -0.70789688728E+03  0.70997966479E+03  0.00000000000E+00 0.  1.
</event>
<event>
12    1  0.1046899E+000  0.2249222E+03  0.7818608E-02  0.1130294E+00
         21   -1    0    0  501  502  0.00000000000E+00  0.00000000000E+00  0.52040611456E+03  0.52040611456E+03  0.00000000000E+00 0. -1.
         21   -1    0    0  502  503 -0.00000000000E+00 -0.00000000000E+00 -0.10038782649E+03  0.10038782649E+03  0.00000000000E+00 0. -1.
         -6    2    1    2    0  503 -0.13844464327E+03  0.44442187747E+02  0.26587352327E+03  0.34825094587E+03  0.17160408977E+03 0.  0.
        -24    2    3    3    0    0 -0.14170614320E+03  0.72513536398E+01  0.11667557666E+03  0.19438115418E+03  0.63542346192E+02 0.  0.
          6    2    1    2  501    0  0.13844464327E+03 -0.44442187747E+02  0.15414476481E+03  0.27254299519E+03  0.17139734073E+03 0.  0.
         24    2    5    5    0    0  0.79284225712E+02 -0.71650920627E+02  0.36565237382E+02  0.13805394203E+03  0.79385335246E+02 0.  0.
          5    1    5    5  501    0  0.59160417554E+02  0.27208732880E+02  0.11757952742E+03  0.13448905316E+03  0.47000000000E+01 0. -1.
        -13    1    6    6    0    0  0.32190198737E+02 -0.77891331523E+02  0.32660960291E+02  0.90388089637E+02  0.00000000000E+00 0.  1.
         14    1    6    6    0    0  0.47094026975E+02  0.62404108953E+01  0.39042770915E+01  0.47665852394E+02  0.00000000000E+00 0. -1.
         -5    1    3    3    0  503  0.32614999380E+01  0.37190834108E+02  0.14919794661E+03  0.15386979169E+03  0.47000000000E+01 0.  1.
         13    1    4    4    0    0 -0.29645053156E+01 -0.31797893421E+00 -0.74754440280E+01  0.80480846034E+01  0.00000000000E+00 0. -1.
        -14    1    4    4    0    0 -0.13874163789E+03  0.75693325740E+01  0.12415102069E+03  0.18633306958E+03  0.00000000000E+00 0.  1.
</event>
<event>
12    1  0.1046899E+000  0.2471546E+03  0.7818608E-02  0.1117095E+00
         21   -1    0    0  503  502  0.00000000000E+00  0.00000000000E+00  0.16338863142E+03  0.16338863142E+03  0.00000000000E+00 0. -1.
         21   -1    0    0  501  503 -0.00000000000E+00 -0.00000000000E+00 -0.40875628012E+03  0.40875628012E+03  0.00000000000E+00 0. -1.
          6    2    1    2  501    0  0.60069004454E+02  0.14829099649E+03 -0.22515210112E+02  0.24817798511E+03  0.18837959728E+03 0.  0.
         24    2    3    3    0    0 -0.22518707958E+02  0.28706085509E+02  0.39747661577E+02  0.90000754236E+02  0.72035599594E+02 0.  0.
         -6    2    1    2    0  502 -0.60069004454E+02 -0.14829099649E+03 -0.22285243858E+03  0.32396692644E+03  0.17231614871E+03 0.  0.
        -24    2    5    5    0    0 -0.57554236506E+01 -0.25211769068E+02 -0.14624483588E+03  0.16908220778E+03  0.80823775980E+02 0.  0.
          5    1    3    3  501    0  0.82587712412E+02  0.11958491098E+03 -0.62262871688E+02  0.15817723087E+03  0.47000000000E+01 0. -1.
        -11    1    4    4    0    0  0.25686648642E+02  0.11264803584E+02  0.22354933686E+02  0.35867015186E+02  0.00000000000E+00 0.  1.
         12    1    4    4    0    0 -0.48205356600E+02  0.17441281925E+02  0.17392727891E+02  0.54133739050E+02  0.00000000000E+00 0. -1.
         -5    1    5    5    0  502 -0.54313580803E+02 -0.12307922742E+03 -0.76607602702E+02  0.15488471866E+03  0.47000000000E+01 0.  1.
         13    1    6    6    0    0  0.31055192400E+02 -0.95109893208E+01 -0.11133708926E+03  0.11597771915E+03  0.00000000000E+00 0. -1.
        -14    1    6    6    0    0 -0.36810616051E+02 -0.15700779747E+02 -0.34907746619E+02  0.53104488631E+02  0.00000000000E+00 0.  1.
</event>
<event>
12    1  0.1046899E+000  0.1792438E+03  0.7818608E-02  0.1168993E+00
         21   -1    0    0  503  502  0.00000000000E+00  0.00000000000E+00  0.57890396388E+02  0.57890396388E+02  0.00000000000E+00 0. -1.
         21   -1    0    0  501  503 -0.00000000000E+00 -0.00000000000E+00 -0.57817510135E+03  0.57817510135E+03  0.00000000000E+00 0. -1.
          6    2    1    2  501    0 -0.50098754573E+02  0.19254670815E+01 -0.18769336690E+03  0.25824896044E+03  0.17014738599E+03 0.  0.
         24    2    3    3    0    0 -0.94699536137E+02  0.30730236426E+02 -0.11687166703E+03  0.16961066384E+03  0.72086345159E+02 0.  0.
         -6    2    1    2    0  502  0.50098754573E+02 -0.19254670815E+01 -0.33259133806E+03  0.37781653729E+03  0.17208935198E+03 0.  0.
        -24    2    5    5    0    0  0.69843177831E+02 -0.32401805438E+02 -0.12450953922E+03  0.16653763523E+03  0.79399068660E+02 0.  0.
          5    1    3    3  501    0  0.44600781564E+02 -0.28804769344E+02 -0.70821699861E+02  0.88638296600E+02  0.47000000000E+01 0. -1.
        -11    1    4    4    0    0 -0.80575403329E+02  0.29193405628E+02 -0.12624779074E+03  0.15258818834E+03  0.00000000000E+00 0.  1.
         12    1    4    4    0    0 -0.14124132808E+02  0.15368307974E+01  0.93761237067E+01  0.17022475503E+02  0.00000000000E+00 0. -1.
         -5    1    5    5    0  502 -0.19744423258E+02  0.30476338357E+02 -0.20808179884E+03  0.21127890207E+03  0.47000000000E+01 0.  1.
         13    1    6    6    0    0  0.36830474203E+02  0.16612862312E+02 -0.16954490845E+02  0.43816957722E+02  0.00000000000E+00 0. -1.
        -14    1    6    6    0    0  0.33012703628E+02 -0.49014667750E+02 -0.10755504838E+03  0.12272067750E+03  0.00000000000E+00 0.  1.
</event>
<event>
12    1  0.1046899E+000  0.1764703E+03  0.7818608E-02  0.1172848E+00
         21   -1    0    0  503  502  0.00000000000E+00  0.00000000000E+00  0.98367687882E+03  0.98367687882E+03  0.00000000000E+00 0. -1.
         21   -1    0    0  501  503 -0.00000000000E+00 -0.00000000000E+00 -0.48944559335E+02  0.48944559335E+02  0.00000000000E+00 0. -1.
          6    2    1    2  501    0  0.25061198626E+02  0.18172596215E+02  0.14557649345E+03  0.22397522747E+03  0.16737407250E+03 0.  0.
         24    2    3    3    0    0  0.37271239372E+02  0.72960559520E+02  0.97738135353E+02  0.15007391135E+03  0.79101499581E+02 0.  0.
         -6    2    1    2    0  502 -0.25061198626E+02 -0.18172596215E+02  0.78915582603E+03  0.80864621069E+03  0.17373390391E+03 0.  0.
        -24    2    5    5    0    0 -0.48456437994E+02  0.43310559068E+02  0.35153968582E+03  0.36608831415E+03  0.78845875889E+02 0.  0.
          5    1    3    3  501    0 -0.12210040746E+02 -0.54787963306E+02  0.47838358100E+02  0.73901316117E+02  0.47000000000E+01 0. -1.
        -13    1    4    4    0    0  0.38281880229E+02  0.44499224468E+00  0.51095521196E+02  0.63847103757E+02  0.00000000000E+00 0.  1.
         14    1    4    4    0    0 -0.10106408573E+01  0.72515567276E+02  0.46642614157E+02  0.86226807593E+02  0.00000000000E+00 0. -1.
         -5    1    5    5    0  502  0.23395239368E+02 -0.61483155282E+02  0.43761614022E+03  0.44255789654E+03  0.47000000000E+01 0.  1.
         13    1    6    6    0    0 -0.41491536463E+02  0.30294304290E+01  0.28481307955E+03  0.28783539624E+03  0.00000000000E+00 0. -1.
        -14    1    6    6    0    0 -0.69649015310E+01  0.40281128639E+02  0.66726606272E+02  0.78252917916E+02  0.00000000000E+00 0.  1.
</event>
<event>
12    1  0.1046899E+000  0.6569791E+03  0.7818608E-02  0.9794478E-01
         21   -1    0    0  503  502  0.00000000000E+00  0.00000000000E+00  0.11323976673E+04  0.11323976673E+04  0.00000000000E+00 0. -1.
         21   -1    0    0  501  503 -0.00000000000E+00 -0.00000000000E+00 -0.38198477178E+03  0.38198477178E+03  0.00000000000E+00 0.  1.
          6    2    1    2  501    0 -0.35495083107E+03 -0.52316429460E+03  0.32408202949E+03  0.73119696329E+03  0.17299961172E+03 0.  0.
         24    2    3    3    0    0 -0.26115807482E+03 -0.39944984843E+03  0.16992347462E+03  0.51236073375E+03  0.76653850574E+02 0.  0.
         -6    2    1    2    0  502  0.35495083107E+03  0.52316429460E+03  0.42633086603E+03  0.78318547580E+03  0.17869110370E+03 0.  0.
        -24    2    5    5    0    0  0.22074944960E+03  0.21495134608E+03  0.17463982111E+03  0.36321439999E+03  0.80568185765E+02 0.  0.
          5    1    3    3  501    0 -0.93792756251E+02 -0.12371444618E+03  0.15415855488E+03  0.21883622954E+03  0.47000000000E+01 0. -1.
        -11    1    4    4    0    0 -0.57611030692E+02 -0.84329203175E+02  0.41258206339E+01  0.10221285517E+03  0.00000000000E+00 0.  1.
         12    1    4    4    0    0 -0.20354704413E+03 -0.31512064525E+03  0.16579765398E+03  0.41014787858E+03  0.00000000000E+00 0. -1.
         -5    1    5    5    0  502  0.13420138147E+03  0.30821294852E+03  0.25169104492E+03  0.41997107581E+03  0.47000000000E+01 0.  1.
         11    1    6    6    0    0  0.22521035007E+03  0.20878435313E+03  0.17793037778E+03  0.35492228336E+03  0.00000000000E+00 0. -1.
        -12    1    6    6    0    0 -0.44609004624E+01  0.61669929520E+01 -0.32905566658E+01  0.82921166283E+01  0.00000000000E+00 0.  1.
</event>
<event>
12    1  0.1046899E+000  0.2053354E+03  0.7818608E-02  0.1145763E+00
         21   -1    0    0  503  502  0.00000000000E+00  0.00000000000E+00  0.36392321450E+03  0.36392321450E+03  0.00000000000E+00 0.  1.
         21   -1    0    0  501  503 -0.00000000000E+00 -0.00000000000E+00 -0.11506047566E+03  0.11506047566E+03  0.00000000000E+00 0.  1.
          6    2    1    2  501    0  0.46161230687E+02 -0.10214399548E+03  0.13984074672E+03  0.24843123611E+03  0.17204182514E+03 0.  0.
         24    2    3    3    0    0  0.56981892580E+02 -0.67064921953E+02  0.16518108997E+03  0.20357757273E+03  0.80089923184E+02 0.  0.
         -6    2    1    2    0  502 -0.46161230687E+02  0.10214399548E+03  0.10902199211E+03  0.23055245405E+03  0.16942368274E+03 0.  0.
        -24    2    5    5    0    0 -0.49506448017E+02  0.13660321615E+03  0.75991498668E+02  0.18247198124E+03  0.80062406971E+02 0.  0.
          5    1    3    3  501    0 -0.10820661893E+02 -0.35079073525E+02 -0.25340343243E+02  0.44853663382E+02  0.47000000000E+01 0. -1.
        -13    1    4    4    0    0 -0.18695025254E+02 -0.21190381283E+02  0.24622806564E+02  0.37480912892E+02  0.00000000000E+00 0.  1.
         14    1    4    4    0    0  0.75676917834E+02 -0.45874540670E+02  0.14055828340E+03  0.16609665983E+03  0.00000000000E+00 0. -1.
         -5    1    5    5    0  502  0.33452173293E+01 -0.34459220673E+02  0.33030493445E+02  0.48080472810E+02  0.47000000000E+01 0.  1.
         13    1    6    6    0    0 -0.65022206981E+02  0.10410580678E+03  0.79577924460E+02  0.14628244074E+03  0.00000000000E+00 0. -1.
        -14    1    6    6    0    0  0.15515758965E+02  0.32497409367E+02 -0.35864257921E+01  0.36189540502E+02  0.00000000000E+00 0.  1.
</event>
<event>
12    1  0.1046899E+000  0.1814535E+03  0.7818608E-02  0.1170558E+00
         21   -1    0    0  501  502  0.00000000000E+00  0.00000000000E+00  0.18951501940E+03  0.18951501940E+03  0.00000000000E+00 0. -1.
         21   -1    0    0  502  503 -0.00000000000E+00 -0.00000000000E+00 -0.25157935397E+03  0.25157935397E+03  0.00000000000E+00 0. -1.
         -6    2    1    2    0  503  0.18206641114E+02  0.26283095191E+02  0.10223257585E+03  0.20827115530E+03  0.17861436586E+03 0.  0.
        -24    2    3    3    0    0 -0.26328396849E+01  0.53592245076E+02 -0.34987390148E+01  0.96999979470E+02  0.80732238080E+02 0.  0.
          6    2    1    2  501    0 -0.18206641114E+02 -0.26283095191E+02 -0.16429691042E+03  0.23282321807E+03  0.16183600720E+03 0.  0.
         24    2    5    5    0    0 -0.15383576370E+02  0.40832950219E+02 -0.12644478741E+03  0.15557422803E+03  0.79442255244E+02 0.  0.
          5    1    5    5  501    0 -0.28230647448E+01 -0.67116045410E+02 -0.37852123005E+02  0.77248990039E+02  0.47000000000E+01 0. -1.
        -13    1    6    6    0    0  0.25001746168E+02  0.31762805795E+02 -0.96087667283E+02  0.10424395880E+03  0.00000000000E+00 0.  1.
         14    1    6    6    0    0 -0.40385322538E+02  0.90701444241E+01 -0.30357120131E+02  0.51330269228E+02  0.00000000000E+00 0. -1.
         -5    1    3    3    0  503  0.20839480799E+02 -0.27309149886E+02  0.10573131486E+03  0.11127117583E+03  0.47000000000E+01 0.  1.
         11    1    4    4    0    0  0.13553068246E+02 -0.72292365295E+01 -0.25968118593E+02  0.30171024227E+02  0.00000000000E+00 0. -1.
        -12    1    4    4    0    0 -0.16185907931E+02  0.60821481606E+02  0.22469379578E+02  0.66828955243E+02  0.00000000000E+00 0.  1.
</event>
<event>
12    1  0.1046899E+000  0.1846234E+03  0.7818608E-02  0.1163546E+00
         21   -1    0    0  501  502  0.00000000000E+00  0.00000000000E+00  0.50314784275E+02  0.50314784275E+02  0.00000000000E+00 0.  1.
         21   -1    0    0  502  503 -0.00000000000E+00 -0.00000000000E+00 -0.10405170030E+04  0.10405170030E+04  0.00000000000E+00 0.  1.
         -6    2    1    2    0  503  0.68546500833E+02  0.26487246534E+02 -0.17138766519E+03  0.25146114017E+03  0.16869729172E+03 0.  0.
        -24    2    3    3    0    0  0.94028277621E+02  0.45528566185E+02 -0.80026343438E+02  0.15460622851E+03  0.81146182397E+02 0.  0.
          6    2    1    2  501    0 -0.68546500833E+02 -0.26487246534E+02 -0.81881455351E+03  0.83937064707E+03  0.16936827661E+03 0.  0.
         24    2    5    5    0    0 -0.26931942428E+02 -0.74987936371E+02 -0.63246824915E+03  0.64231450397E+03  0.78761130668E+02 0.  0.
          5    1    5    5  501    0 -0.41614558405E+02  0.48500689837E+02 -0.18634630436E+03  0.19705614310E+03  0.47000000000E+01 0. -1.
        -13    1    6    6    0    0 -0.48436950688E+02 -0.54052158600E+02 -0.30688585427E+03  0.31535171094E+03  0.00000000000E+00 0.  1.
         14    1    6    6    0    0  0.21505008260E+02 -0.20935777771E+02 -0.32558239488E+03  0.32696279303E+03  0.00000000000E+00 0. -1.
         -5    1    3    3    0  503 -0.25481776788E+02 -0.19041319651E+02 -0.91361321750E+02  0.96854911668E+02  0.47000000000E+01 0.  1.
         13    1    4    4    0    0  0.27401818494E+02  0.29599653294E+02  0.99254037918E+01  0.41539291909E+02  0.00000000000E+00 0. -1.
        -14    1    4    4    0    0  0.66626459126E+02  0.15928912891E+02 -0.89951747230E+02  0.11306693660E+03  0.00000000000E+00 0.  1.
</event>
<event>
12    1  0.1046899E+000  0.1925150E+03  0.7818608E-02  0.1156923E+00
         21   -1    0    0  501  502  0.00000000000E+00  0.00000000000E+00  0.71827552854E+03  0.71827552854E+03  0.00000000000E+00 0. -1.
         21   -1    0    0  502  503 -0.00000000000E+00 -0.00000000000E+00 -0.50805897573E+02  0.50805897573E+02  0.00000000000E+00 0. -1.
         -6    2    1    2    0  503 -0.28762317308E+02  0.79761564204E+02  0.34925552617E+03  0.39880002512E+03  0.17283766793E+03 0.  0.
        -24    2    3    3    0    0 -0.62053775217E+02  0.24033132018E+02  0.10462306553E+03  0.14565755511E+03  0.76432159902E+02 0.  0.
          6    2    1    2  501    0  0.28762317308E+02 -0.79761564204E+02  0.31821410480E+03  0.37028140099E+03  0.16928946041E+03 0.  0.
         24    2    5    5    0    0  0.74362279121E+02 -0.48448220071E+02  0.27587329362E+03  0.30046223221E+03  0.79337886711E+02 0.  0.
          5    1    5    5  501    0 -0.45599961813E+02 -0.31313344133E+02  0.42340811181E+02  0.69819168783E+02  0.47000000000E+01 0. -1.
        -11    1    6    6    0    0  0.91286513333E+01  0.18744245304E+02  0.24270872703E+02  0.31996160222E+02  0.00000000000E+00 0.  1.
         12    1    6    6    0    0  0.65233627787E+02 -0.67192465375E+02  0.25160242092E+03  0.26846607199E+03  0.00000000000E+00 0. -1.
         -5    1    3    3    0  503  0.33291457910E+02  0.55728432186E+02  0.24463246064E+03  0.25314247001E+03  0.47000000000E+01 0.  1.
         13    1    4    4    0    0  0.56035338419E+01  0.21463541570E+02  0.61515929989E+02  0.65393370082E+02  0.00000000000E+00 0. -1.
        -14    1    4    4    0    0 -0.67657309059E+02  0.25695904482E+01  0.43107135540E+02  0.80264185031E+02  0.00000000000E+00 0.  1.
</event>
<event>
12    1  0.1046899E+000  0.1896305E+03  0.7818608E-02  0.1159044E+00
         21   -1    0    0  503  502  0.00000000000E+00  0.00000000000E+00  0.81692888721E+02  0.81692888721E+02  0.00000000000E+00 0.  1.
         21   -1    0    0  501  503 -0.00000000000E+00 -0.00000000000E+00 -0.44098272935E+03  0.44098272935E+03  0.00000000000E+00 0.  1.
          6    2    1    2  501    0 -0.75549465691E+02  0.82534312766E+01 -0.20190013210E+03  0.27623849976E+03  0.17253464729E+03 0.  0.
         24    2    3    3    0    0 -0.88734372325E+02  0.13761365918E+02 -0.21510089926E+03  0.25622527012E+03  0.10639468108E+03 0.  0.
         -6    2    1    2    0  502  0.75549465691E+02 -0.82534312766E+01 -0.15738970853E+03  0.24643711831E+03  0.17373512033E+03 0.  0.
        -24    2    5    5    0    0  0.62230235293E+02 -0.14677859551E+02 -0.72842426406E+01  0.95531796779E+02  0.70606106389E+02 0.  0.
          5    1    3    3  501    0  0.13184906634E+02 -0.55079346412E+01  0.13200767162E+02  0.20013229640E+02  0.47000000000E+01 0. -1.
        -11    1    4    4    0    0 -0.59952127904E+00 -0.47463600326E+01  0.11461789143E+02  0.12420143706E+02  0.00000000000E+00 0.  1.
         12    1    4    4    0    0 -0.88134851046E+02  0.18507725950E+02 -0.22656268841E+03  0.24380512642E+03  0.00000000000E+00 0. -1.
         -5    1    5    5    0  502  0.13319230398E+02  0.64244282741E+01 -0.15010546588E+03  0.15090532153E+03  0.47000000000E+01 0.  1.
         13    1    6    6    0    0 -0.54728596655E+00 -0.15842640687E+02 -0.25614138782E+02  0.30122630884E+02  0.00000000000E+00 0. -1.
        -14    1    6    6    0    0  0.62777521259E+02  0.11647811358E+01  0.18329896141E+02  0.65409165895E+02  0.00000000000E+00 0.  1.
</event>
<event>
12    1  0.1046899E+000  0.2109842E+03  0.7818608E-02  0.1141877E+00
         21   -1    0    0  501  502  0.00000000000E+00  0.00000000000E+00  0.23740501045E+03  0.23740501045E+03  0.00000000000E+00 0. -1.
         21   -1    0    0  502  503 -0.00000000000E+00 -0.00000000000E+00 -0.19823392764E+03  0.19823392764E+03  0.00000000000E+00 0. -1.
         -6    2    1    2    0  503  0.82709710826E+02 -0.79234544921E+02 -0.41166322323E+02  0.21496280274E+03  0.17718727690E+03 0.  0.
        -24    2    3    3    0    0  0.94458474989E+02 -0.72658071976E+02 -0.86555146994E+02  0.16738634995E+03  0.79528597097E+02 0.  0.
          6    2    1    2  501    0 -0.82709710826E+02  0.79234544921E+02  0.80337405139E+02  0.22067613535E+03  0.17066003830E+03 0.  0.
         24    2    5    5    0    0 -0.70402858699E+02  0.15075016817E+02 -0.11214165532E+02  0.10810756181E+03  0.79860307830E+02 0.  0.
          5    1    5    5  501    0 -0.12306852127E+02  0.64159528104E+02  0.91551570671E+02  0.11256857354E+03  0.47000000000E+01 0. -1.
        -13    1    6    6    0    0 -0.52773755429E+02 -0.75073664080E+01  0.27472535823E+02  0.59968075149E+02  0.00000000000E+00 0.  1.
         14    1    6    6    0    0 -0.17629103270E+02  0.22582383225E+02 -0.38686701355E+02  0.48139486661E+02  0.00000000000E+00 0. -1.
         -5    1    3    3    0  503 -0.11748764163E+02 -0.65764729445E+01  0.45388824671E+02  0.47576452797E+02  0.47000000000E+01 0.  1.
         11    1    4    4    0    0 -0.11126551067E+02 -0.21762816148E+02 -0.25125437240E+02  0.35052930003E+02  0.00000000000E+00 0. -1.
        -12    1    4    4    0    0  0.10558502606E+03 -0.50895255828E+02 -0.61429709754E+02  0.13233341994E+03  0.00000000000E+00 0.  1.
</event>
<event>
12    1  0.1046899E+000  0.7073776E+03  0.7818608E-02  0.9704755E-01
         21   -1    0    0  501  502  0.00000000000E+00  0.00000000000E+00  0.63959884192E+03  0.63959884192E+03  0.00000000000E+00 0. -1.
         21   -1    0    0  502  503 -0.00000000000E+00 -0.00000000000E+00 -0.92922466657E+03  0.92922466657E+03  0.00000000000E+00 0.  1.
         -6    2    1    2    0  503 -0.11298513275E+03 -0.67649120076E+03 -0.45685172663E+03  0.84207868096E+03  0.17313873014E+03 0.  0.
        -24    2    3    3    0    0 -0.55848953839E+02 -0.60003526614E+03 -0.36214334022E+03  0.70753567172E+03  0.79356799521E+02 0.  0.
          6    2    1    2  501    0  0.11298513275E+03  0.67649120076E+03  0.16722590198E+03  0.72674482753E+03  0.17259072145E+03 0.  0.
         24    2    5    5    0    0  0.57255524714E+02  0.23995966767E+03  0.98606212410E+01  0.25935688356E+03  0.79435029927E+02 0.  0.
          5    1    5    5  501    0  0.55729608032E+02  0.43653153308E+03  0.15736528074E+03  0.46738794397E+03  0.47000000000E+01 0. -1.
        -13    1    6    6    0    0  0.50717881045E+02  0.79663106506E+02 -0.19057494437E+02  0.96341590656E+02  0.00000000000E+00 0.  1.
         14    1    6    6    0    0  0.65376436687E+01  0.16029656117E+03  0.28918115678E+02  0.16301529291E+03  0.00000000000E+00 0. -1.
         -5    1    3    3    0  503 -0.57136178906E+02 -0.76455934613E+02 -0.94708386418E+02  0.13454300924E+03  0.47000000000E+01 0.  1.
         13    1    4    4    0    0 -0.35236837222E+02 -0.39402409808E+03 -0.19288549743E+03  0.44011525727E+03  0.00000000000E+00 0. -1.
        -14    1    4    4    0    0 -0.20612116618E+02 -0.20601116806E+03 -0.16925784278E+03  0.26742041445E+03  0.00000000000E+00 0.  1.
</event>
<event>
12    1  0.1046899E+000  0.1758699E+03  0.7818608E-02  0.1171906E+00
         21   -1    0    0  503  502  0.00000000000E+00  0.00000000000E+00  0.19106810911E+03  0.19106810911E+03  0.00000000000E+00 0. -1.
         21   -1    0    0  501  503 -0.00000000000E+00 -0.00000000000E+00 -0.16172805930E+03  0.16172805930E+03  0.00000000000E+00 0. -1.
          6    2    1    2  501    0 -0.15951817672E+02  0.34138740583E+02  0.16253104604E+02  0.17661936386E+03  0.17178568678E+03 0.  0.
         24    2    3    3    0    0 -0.35307610363E+02 -0.22558616818E+02 -0.37365353103E+02  0.96082005731E+02  0.77974763035E+02 0.  0.
         -6    2    1    2    0  502  0.15951817672E+02 -0.34138740583E+02  0.13086945202E+02  0.17617680456E+03  0.17160152748E+03 0.  0.
        -24    2    5    5    0    0  0.39222783576E+02 -0.27992950061E+02 -0.53589649062E+02  0.10513338953E+03  0.76545065836E+02 0.  0.
          5    1    3    3  501    0  0.19355792691E+02  0.56697357402E+02  0.53618457707E+02  0.80537358126E+02  0.47000000000E+01 0. -1.
        -11    1    4    4    0    0  0.23756936568E+02 -0.40447417691E+01 -0.63679140564E+00  0.24107207934E+02  0.00000000000E+00 0.  1.
         12    1    4    4    0    0 -0.59064546931E+02 -0.18513875049E+02 -0.36728561698E+02  0.71974797797E+02  0.00000000000E+00 0. -1.
         -5    1    5    5    0  502 -0.23270965904E+02 -0.61457905222E+01  0.66676594264E+02  0.71043415021E+02  0.47000000000E+01 0.  1.
         11    1    6    6    0    0  0.50282707141E+01  0.20766837963E+00 -0.60121316768E+02  0.60331578485E+02  0.00000000000E+00 0. -1.
        -12    1    6    6    0    0  0.34194512862E+02 -0.28200618441E+02  0.65316677063E+01  0.44801811050E+02  0.00000000000E+00 0.  1.
</event>
<event>
12    1  0.1046899E+000  0.1872097E+03  0.7818608E-02  0.1161049E+00
         21   -1    0    0  501  502  0.00000000000E+00  0.00000000000E+00  0.89448909515E+02  0.89448909515E+02  0.00000000000E+00 0.  1.
         21   -1    0    0  502  503 -0.00000000000E+00 -0.00000000000E+00 -0.40161424218E+03  0.40161424218E+03  0.00000000000E+00 0.  1.
         -6    2    1    2    0  503 -0.16269775062E+02  0.71586213424E+02 -0.11699285314E+03  0.22075961251E+03  0.17221552572E+03 0.  0.
        -24    2    3    3    0    0  0.50264482827E+02  0.20698691323E+02 -0.44371552839E+02  0.10979885082E+03  0.84451162713E+02 0.  0.
          6    2    1    2  501    0  0.16269775062E+02 -0.71586213424E+02 -0.19517247952E+03  0.27030353918E+03  0.17199539237E+03 0.  0.
         24    2    5    5    0    0  0.64950147650E+02 -0.73791892155E+02 -0.10743596005E+03  0.16983249587E+03  0.87388935879E+02 0.  0.
          5    1    5    5  501    0 -0.48680372588E+02  0.22056787309E+01 -0.87736519476E+02  0.10047104331E+03  0.47000000000E+01 0. -1.
        -13    1    6    6    0    0  0.26982616447E+02 -0.76959828196E+02 -0.36576073652E+02  0.89379449037E+02  0.00000000000E+00 0.  1.
         14    1    6    6    0    0  0.37967531203E+02  0.31679360419E+01 -0.70859886396E+02  0.80453046832E+02  0.00000000000E+00 0. -1.
         -5    1    3    3    0  503 -0.66534257890E+02  0.50887522101E+02 -0.72621300298E+02  0.11096076169E+03  0.47000000000E+01 0.  1.
         13    1    4    4    0    0  0.33483167713E+02  0.49106009068E+02 -0.48281374911E+02  0.76574237247E+02  0.00000000000E+00 0. -1.
        -14    1    4    4    0    0  0.16781315114E+02 -0.28407317745E+02  0.39098220717E+01  0.33224613573E+02  0.00000000000E+00 0.  1.
</event>
<event>
12    1  0.1046899E+000  0.1874112E+03  0.7818608E-02  0.1160978E+00
         21   -1    0    0  503  502  0.00000000000E+00  0.00000000000E+00  0.72498560716E+03  0.72498560716E+03  0.00000000000E+00 0.  1.
         21   -1    0    0  501  503 -0.00000000000E+00 -0.00000000000E+00 -0.54600198280E+02  0.54600198280E+02  0.00000000000E+00 0.  1.
          6    2    1    2  501    0 -0.75982612539E+02 -0.12660010987E+02  0.46740880129E+03  0.50332058463E+03  0.17007936414E+03 0.  0.
         24    2    3    3    0    0 -0.57594929775E+02  0.39953798180E+02  0.40917944642E+03  0.42257984175E+03  0.78945686135E+02 0.  0.
         -6    2    1    2    0  502  0.75982612539E+02  0.12660010987E+02  0.20297660760E+03  0.27626522081E+03  0.17084886804E+03 0.  0.
        -24    2    5    5    0    0  0.72565487885E+02 -0.44297914816E+02  0.82686299701E+02  0.14304461345E+03  0.79979259744E+02 0.  0.
          5    1    3    3  501    0 -0.18387682764E+02 -0.52613809167E+02  0.58229354871E+02  0.80740742883E+02  0.47000000000E+01 0. -1.
        -13    1    4    4    0    0 -0.70862129650E+02  0.31478955975E+02  0.39062533867E+03  0.39824680952E+03  0.00000000000E+00 0.  1.
         14    1    4    4    0    0  0.13267199875E+02  0.84748422055E+01  0.18554107750E+02  0.24333032227E+02  0.00000000000E+00 0. -1.
         -5    1    5    5    0  502  0.34171246542E+01  0.56957925803E+02  0.12029030789E+03  0.13322060736E+03  0.47000000000E+01 0.  1.
         11    1    6    6    0    0  0.49792506861E+02 -0.12372867351E+02  0.89575903819E+02  0.10322898881E+03  0.00000000000E+00 0. -1.
        -12    1    6    6    0    0  0.22772981023E+02 -0.31925047465E+02 -0.68896041172E+01  0.39815624637E+02  0.00000000000E+00 0.  1.
</event>
<event>
12    1  0.1046899E+000  0.2157018E+03  0.7818608E-02  0.1137330E+00
         21   -1    0    0  503  502  0.00000000000E+00  0.00000000000E+00  0.16698566872E+03  0.16698566872E+03  0.00000000000E+00 0. -1.
         21   -1    0    0  501  503 -0.00000000000E+00 -0.00000000000E+00 -0.34189345430E+03  0.34189345430E+03  0.00000000000E+00 0. -1.
          6    2    1    2  501    0  0.93463515151E+02 -0.90125236996E+02 -0.19789659109E+03  0.29195572761E+03  0.17093010007E+03 0.  0.
         24    2    3    3    0    0  0.99999782522E+02 -0.12492814574E+03 -0.15449807101E+03  0.23574641528E+03  0.78100705934E+02 0.  0.
         -6    2    1    2    0  502 -0.93463515151E+02  0.90125236996E+02  0.22988805512E+02  0.21692339541E+03  0.17224774973E+03 0.  0.
        -24    2    5    5    0    0 -0.42706564890E+00 -0.60974573820E+01 -0.90806671718E+01  0.79209456651E+02  0.78449462299E+02 0.  0.
          5    1    3    3  501    0 -0.65362673702E+01  0.34802908742E+02 -0.43398520076E+02  0.56209312332E+02  0.47000000000E+01 0. -1.
        -13    1    4    4    0    0  0.81462420528E+02 -0.92085912283E+02 -0.15523708432E+03  0.19802649708E+03  0.00000000000E+00 0.  1.
         14    1    4    4    0    0  0.18537361993E+02 -0.32842233455E+02  0.73901330431E+00  0.37719918195E+02  0.00000000000E+00 0. -1.
         -5    1    5    5    0  502 -0.93036449503E+02  0.96222694378E+02  0.32069472683E+02  0.13771393876E+03  0.47000000000E+01 0.  1.
         13    1    6    6    0    0 -0.29304797600E+02 -0.26666612322E+02  0.70737732138E+01  0.40248200489E+02  0.00000000000E+00 0. -1.
        -14    1    6    6    0    0  0.28877731951E+02  0.20569154940E+02 -0.16154440386E+02  0.38961256162E+02  0.00000000000E+00 0.  1.
</event>
<event>
12    1  0.1046899E+000  0.2756564E+03  0.7818608E-02  0.1098190E+00
         21   -1    0    0  503  502  0.00000000000E+00  0.00000000000E+00  0.12891858557E+03  0.12891858557E+03  0.00000000000E+00 0. -1.
         21   -1    0    0  501  503 -0.00000000000E+00 -0.00000000000E+00 -0.61538275751E+03  0.61538275751E+03  0.00000000000E+00 0. -1.
          6    2    1    2  501    0  0.11531930401E+03 -0.18052140932E+03 -0.16414622626E+03  0.32018426210E+03  0.17230048462E+03 0.  0.
         24    2    3    3    0    0  0.13836007937E+02 -0.62268635378E+02 -0.11501433702E+02  0.10199833079E+03  0.78756323169E+02 0.  0.
         -6    2    1    2    0  502 -0.11531930401E+03  0.18052140932E+03 -0.32231794569E+03  0.42411708097E+03  0.17349328275E+03 0.  0.
        -24    2    5    5    0    0 -0.42299208187E+02  0.75382165672E+02 -0.56713313206E+02  0.12923726521E+03  0.77551124484E+02 0.  0.
          5    1    3    3  501    0  0.10148329608E+03 -0.11825277395E+03 -0.15264479255E+03  0.21818593131E+03  0.47000000000E+01 0. -1.
        -11    1    4    4    0    0  0.41678758092E+02 -0.53390555751E+02 -0.21577214846E+02  0.71086190783E+02  0.00000000000E+00 0.  1.
         12    1    4    4    0    0 -0.27842750156E+02 -0.88780796262E+01  0.10075781144E+02  0.30912140006E+02  0.00000000000E+00 0. -1.
         -5    1    5    5    0  502 -0.73020095827E+02  0.10513924365E+03 -0.26560463248E+03  0.29487981577E+03  0.47000000000E+01 0.  1.
         11    1    6    6    0    0 -0.46743295060E+02  0.73771835541E+02 -0.72031288094E+02  0.11320656260E+03  0.00000000000E+00 0. -1.
        -12    1    6    6    0    0  0.44440868725E+01  0.16103301304E+01  0.15317974888E+02  0.16030702603E+02  0.00000000000E+00 0.  1.
</event>
<event>
12    1  0.1046899E+000  0.4761493E+03  0.7818608E-02  0.1020230E+00
         21   -1    0    0  501  502  0.00000000000E+00  0.00000000000E+00  0.60130743541E+03  0.60130743541E+03  0.00000000000E+00 0.  1.
         21   -1    0    0  502  503 -0.00000000000E+00 -0.00000000000E+00 -0.45238501050E+03  0.45238501050E+03  0.00000000000E+00 0. -1.
         -6    2    1    2    0  503 -0.38992447673E+03 -0.21150970884E+03  0.28999755440E+03  0.55750940289E+03  0.17303380671E+03 0.  0.
        -24    2    3    3    0    0 -0.35501132907E+03 -0.22494192042E+03  0.22824677743E+03  0.48515886285E+03  0.81551330251E+02 0.  0.
          6    2    1    2  501    0  0.38992447673E+03  0.21150970884E+03 -0.14107512949E+03  0.49618304302E+03  0.17180793210E+03 0.  0.
         24    2    5    5    0    0  0.38062640687E+03  0.18034599629E+03 -0.93430875048E+02  0.43830648417E+03  0.77344073230E+02 0.  0.
          5    1    5    5  501    0  0.92980698584E+01  0.31163712554E+02 -0.47644254445E+02  0.57876558854E+02  0.47000000000E+01 0. -1.
        -13    1    6    6    0    0  0.11623887008E+03  0.25899303860E+02 -0.33471881089E+01  0.11913627712E+03  0.00000000000E+00 0.  1.
         14    1    6    6    0    0  0.26438753680E+03  0.15444669243E+03 -0.90083686939E+02  0.31917020705E+03  0.00000000000E+00 0. -1.
         -5    1    3    3    0  503 -0.34913147664E+02  0.13432211579E+02  0.61750776970E+02  0.72350540040E+02  0.47000000000E+01 0.  1.
         13    1    4    4    0    0 -0.24965686251E+03 -0.11547516417E+03  0.13009515747E+03  0.30428245519E+03  0.00000000000E+00 0. -1.
        -14    1    4    4    0    0 -0.10535446656E+03 -0.10946675625E+03  0.98151619961E+02  0.18087640766E+03  0.00000000000E+00 0.  1.
</event>
<event>
12    1  0.1046899E+000  0.2693984E+03  0.7818608E-02  0.1103251E+00
         21   -1    0    0  501  502  0.00000000000E+00  0.00000000000E+00  0.18088450096E+04  0.18088450096E+04  0.00000000000E+00 0. -1.
         21   -1    0    0  502  503 -0.00000000000E+00 -0.00000000000E+00 -0.60293552595E+02  0.60293552595E+02  0.00000000000E+00 0. -1.
         -6    2    1    2    0  503  0.16720496786E+03  0.10757920422E+03  0.32405383046E+03  0.42141000907E+03  0.18178207903E+03 0.  0.
        -24    2    3    3    0    0  0.13931337344E+03  0.35432673881E+02  0.29621466268E+03  0.33906820838E+03  0.80996500839E+02 0.  0.
          6    2    1    2  501    0 -0.16720496786E+03 -0.10757920422E+03  0.14244976266E+04  0.14477285531E+04  0.16490509095E+03 0.  0.
         24    2    5    5    0    0 -0.91412015271E+02 -0.49421657245E+01  0.50098237890E+03  0.51542954745E+03  0.79395798876E+02 0.  0.
          5    1    5    5  501    0 -0.75792952590E+02 -0.10263703850E+03  0.92351524766E+03  0.93229900568E+03  0.47000000000E+01 0. -1.
        -11    1    6    6    0    0 -0.10184604885E+03  0.10656764725E+02  0.42572580244E+03  0.43786829432E+03  0.00000000000E+00 0.  1.
         12    1    6    6    0    0  0.10434033580E+02 -0.15598930449E+02  0.75256576453E+02  0.77561253131E+02  0.00000000000E+00 0. -1.
         -5    1    3    3    0  503  0.27891594418E+02  0.72146530340E+02  0.27839167777E+02  0.82341800696E+02  0.47000000000E+01 0.  1.
         11    1    4    4    0    0  0.14852596119E+03  0.36955160696E+02  0.26033392792E+03  0.30199238248E+03  0.00000000000E+00 0. -1.
        -12    1    4    4    0    0 -0.92125877489E+01 -0.15224868153E+01  0.35880734759E+02  0.37075825897E+02  0.00000000000E+00 0.  1.
</event>
<event>
12    1  0.1046899E+000  0.2036014E+03  0.7818608E-02  0.1146845E+00
         21   -1    0    0  503  502  0.00000000000E+00  0.00000000000E+00  0.12359354598E+03  0.12359354598E+03  0.00000000000E+00 0. -1.
         21   -1    0    0  501  503 -0.00000000000E+00 -0.00000000000E+00 -0.36681851328E+03  0.36681851328E+03  0.00000000000E+00 0. -1.
          6    2    1    2  501    0  0.99826363411E+02 -0.42479447390E+02 -0.49009759163E+02  0.20941700281E+03  0.17228963489E+03 0.  0.
         24    2    3    3    0    0  0.56991851261E+02  0.39626880297E+02 -0.15813752339E+01  0.10526429723E+03  0.79118333975E+02 0.  0.
         -6    2    1    2    0  502 -0.99826363411E+02  0.42479447390E+02 -0.19421520814E+03  0.28099505646E+03  0.17166498886E+03 0.  0.
        -24    2    5    5    0    0 -0.75526086646E+01  0.64617208246E+02 -0.78269174971E+02  0.13109476000E+03  0.82627760772E+02 0.  0.
          5    1    3    3  501    0  0.42834512150E+02 -0.82106327687E+02 -0.47428383929E+02  0.10415270558E+03  0.47000000000E+01 0. -1.
        -13    1    4    4    0    0  0.19252731409E+01  0.43790684092E+02  0.16976608333E+02  0.47005700935E+02  0.00000000000E+00 0.  1.
         14    1    4    4    0    0  0.55066578120E+02 -0.41638037943E+01 -0.18557983567E+02  0.58258596292E+02  0.00000000000E+00 0. -1.
         -5    1    5    5    0  502 -0.92273754747E+02 -0.22137760856E+02 -0.11594603316E+03  0.14990029645E+03  0.47000000000E+01 0.  1.
         13    1    6    6    0    0  0.96858663206E+01  0.78269380951E+02 -0.75053453432E+02  0.10887117558E+03  0.00000000000E+00 0. -1.
        -14    1    6    6    0    0 -0.17238474985E+02 -0.13652172706E+02 -0.32157215393E+01  0.22223584419E+02  0.00000000000E+00 0.  1.
</event>
<event>
12    1  0.1046899E+000  0.3461285E+03  0.7818608E-02  0.1064275E+00
         21   -1    0    0  501  502  0.00000000000E+00  0.00000000000E+00  0.11152343576E+04  0.11152343576E+04  0.00000000000E+00 0.  1.
         21   -1    0    0  502  503 -0.00000000000E+00 -0.00000000000E+00 -0.10736140099E+03  0.10736140099E+03  0.00000000000E+00 0.  1.
         -6    2    1    2    0  503  0.10950299581E+03 -0.27961903634E+03  0.48450577659E+03  0.59544164933E+03  0.17212553161E+03 0.  0.
        -24    2    3    3    0    0  0.11553036008E+03 -0.17148484354E+03  0.23471044711E+03  0.32313827182E+03  0.81086577604E+02 0.  0.
          6    2    1    2  501    0 -0.10950299581E+03  0.27961903634E+03  0.52336718007E+03  0.62715410930E+03  0.17097181073E+03 0.  0.
         24    2    5    5    0    0  0.96626923032E+01  0.11527528589E+03  0.24473425011E+03  0.28238211335E+03  0.80393069374E+02 0.  0.
          5    1    5    5  501    0 -0.11916568811E+03  0.16434375045E+03  0.27863292997E+03  0.34477199596E+03  0.47000000000E+01 0. -1.
        -11    1    6    6    0    0 -0.11897083384E+02 -0.88494249069E+01  0.28405364746E+02  0.32042435310E+02  0.00000000000E+00 0.  1.
         12    1    6    6    0    0  0.21559775688E+02  0.12412471080E+03  0.21632888536E+03  0.25033967804E+03  0.00000000000E+00 0. -1.
         -5    1    3    3    0  503 -0.60273642734E+01 -0.10813419280E+03  0.24979532948E+03  0.27230337751E+03  0.47000000000E+01 0.  1.
         11    1    4    4    0    0  0.91397051760E+02 -0.15024921332E+03  0.23165472719E+03  0.29084731356E+03  0.00000000000E+00 0. -1.
        -12    1    4    4    0    0  0.24133308320E+02 -0.21235630220E+02  0.30557199208E+01  0.32290958263E+02  0.00000000000E+00 0.  1.
</event>
<event>
12    1  0.1046899E+000  0.2876282E+03  0.7818608E-02  0.1091616E+00
         21   -1    0    0  503  502  0.00000000000E+00  0.00000000000E+00  0.80357177434E+02  0.80357177434E+02  0.00000000000E+00 0.  1.
         21   -1    0    0  501  503 -0.00000000000E+00 -0.00000000000E+00 -0.11189266672E+04  0.11189266672E+04  0.00000000000E+00 0.  1.
          6    2    1    2  501    0 -0.16145031045E+03 -0.16537185218E+03 -0.34937322490E+03  0.45253907621E+03  0.17121890371E+03 0.  0.
         24    2    3    3    0    0 -0.41636925425E+02 -0.90410932646E+01 -0.11083361286E+03  0.14315615826E+03  0.79963872970E+02 0.  0.
         -6    2    1    2    0  502  0.16145031045E+03  0.16537185218E+03 -0.68919626484E+03  0.74674476839E+03  0.17094503622E+03 0.  0.
        -24    2    5    5    0    0  0.18395349553E+03  0.16742982721E+03 -0.64376514334E+03  0.69578688969E+03  0.88397966797E+02 0.  0.
          5    1    3    3  501    0 -0.11981338502E+03 -0.15633075892E+03 -0.23853961203E+03  0.30938291796E+03  0.47000000000E+01 0. -1.
        -11    1    4    4    0    0 -0.36022523621E+02 -0.24686152944E+02 -0.15429999755E+02  0.46315367295E+02  0.00000000000E+00 0.  1.
         12    1    4    4    0    0 -0.56144018031E+01  0.15645059680E+02 -0.95403613110E+02  0.96840790963E+02  0.00000000000E+00 0. -1.
         -5    1    5    5    0  502 -0.22503185086E+02 -0.20579750258E+01 -0.45431121501E+02  0.50957878694E+02  0.47000000000E+01 0.  1.
         13    1    6    6    0    0  0.87525243122E+02  0.12793972464E+03 -0.44729939009E+03  0.47339833724E+03  0.00000000000E+00 0. -1.
        -14    1    6    6    0    0  0.96428252411E+02  0.39490102573E+02 -0.19646575324E+03  0.22238855245E+03  0.00000000000E+00 0.  1.
</event>
<event>
12    1  0.1046899E+000  0.2436474E+03  0.7818608E-02  0.1118798E+00
         21   -1    0    0  503  502  0.00000000000E+00  0.00000000000E+00  0.27003837420E+03  0.27003837420E+03  0.00000000000E+00 0.  1.
         21   -1    0    0  501  503 -0.00000000000E+00 -0.00000000000E+00 -0.26849082810E+03  0.26849082810E+03  0.00000000000E+00 0.  1.
          6    2    1    2  501    0 -0.17245599168E+03  0.27265173637E+02 -0.12245606651E+03  0.26514128436E+03  0.15754349776E+03 0.  0.
         24    2    3    3    0    0 -0.15886606689E+03  0.67697766943E+02 -0.91026346962E+02  0.21194919916E+03  0.82554541510E+02 0.  0.
         -6    2    1    2    0  502  0.17245599168E+03 -0.27265173637E+02  0.12400361261E+03  0.27338791794E+03  0.16993998639E+03 0.  0.
        -24    2    5    5    0    0  0.19459613104E+03 -0.27260764680E+02  0.12724250866E+03  0.25052383611E+03  0.89222939561E+02 0.  0.
          5    1    3    3  501    0 -0.13589924787E+02 -0.40432593307E+02 -0.31429719549E+02  0.53192085202E+02  0.47000000000E+01 0. -1.
        -13    1    4    4    0    0 -0.12580236117E+03  0.37073500304E+02 -0.10130967571E+03  0.16572365218E+03  0.00000000000E+00 0.  1.
         14    1    4    4    0    0 -0.33063705724E+02  0.30624266639E+02  0.10283328744E+02  0.46225546978E+02  0.00000000000E+00 0. -1.
         -5    1    5    5    0  502 -0.22140139357E+02 -0.44089567016E-02 -0.32388960443E+01  0.22864081827E+02  0.47000000000E+01 0.  1.
         13    1    6    6    0    0  0.15911393550E+03  0.14202628000E+02  0.10722354568E+03  0.19239503076E+03  0.00000000000E+00 0. -1.
        -14    1    6    6    0    0  0.35482195533E+02 -0.41463392680E+02  0.20018962977E+02  0.58128805347E+02  0.00000000000E+00 0.  1.
</event>
<event>
12    1  0.1046899E+000  0.1922756E+03  0.7818608E-02  0.1156487E+00
         21   -1    0    0  501  502  0.00000000000E+00  0.00000000000E+00  0.57619681443E+02  0.57619681443E+02  0.00000000000E+00 0.  1.
         21   -1    0    0  502  503 -0.00000000000E+00 -0.00000000000E+00 -0.85885339830E+03  0.85885339830E+03  0.00000000000E+00 0.  1.
         -6    2    1    2    0  503  0.84211898788E+02 -0.18255768045E+02 -0.16944491386E+03  0.25607396968E+03  0.17157325594E+03 0.  0.
        -24    2    3    3    0    0  0.10196726975E+03 -0.61404653177E+02 -0.14511908637E+03  0.20324485490E+03  0.77981191845E+02 0.  0.
          6    2    1    2  501    0 -0.84211898788E+02  0.18255768045E+02 -0.63178880300E+03  0.66039911006E+03  0.17188652074E+03 0.  0.
         24    2    5    5    0    0 -0.11615095755E+03 -0.80891704358E+01 -0.56076585830E+03  0.57805527039E+03  0.78313907927E+02 0.  0.
          5    1    5    5  501    0  0.31939058758E+02  0.26344938481E+02 -0.71022944696E+02  0.82343839668E+02  0.47000000000E+01 0. -1.
        -11    1    6    6    0    0 -0.44040311686E+01  0.96504387432E+01 -0.66820825033E+01  0.12537012605E+02  0.00000000000E+00 0.  1.
         12    1    6    6    0    0 -0.11174692638E+03 -0.17739609179E+02 -0.55408377580E+03  0.56551825779E+03  0.00000000000E+00 0. -1.
         -5    1    3    3    0  503 -0.17755370962E+02  0.43148885131E+02 -0.24325827492E+02  0.52829114788E+02  0.47000000000E+01 0.  1.
         11    1    4    4    0    0  0.86416572270E+02 -0.30459486009E+02 -0.55400492104E+02  0.10707389400E+03  0.00000000000E+00 0. -1.
        -12    1    4    4    0    0  0.15550697481E+02 -0.30945167168E+02 -0.89718594265E+02  0.96170960898E+02  0.00000000000E+00 0.  1.
</event>
<event>
12    1  0.1046899E+000  0.3379312E+03  0.7818608E-02  0.1067764E+00
         21   -1    0    0  501  502  0.00000000000E+00  0.00000000000E+00  0.24565992767E+03  0.24565992767E+03  0.00000000000E+00 0. -1.
         21   -1    0    0  502  503 -0.00000000000E+00 -0.00000000000E+00 -0.46677084735E+03  0.46677084735E+03  0.00000000000E+00 0. -1.
         -6    2    1    2    0  503 -0.10824994664E+03 -0.26896041019E+03 -0.81970642684E+02  0.34697556672E+03  0.17209039614E+03 0.  0.
        -24    2    3    3    0    0 -0.51401575233E+01 -0.15821691971E+03 -0.51182135007E+01  0.17719884522E+03  0.79462064745E+02 0.  0.
          6    2    1    2  501    0  0.10824994664E+03  0.26896041019E+03 -0.13914027700E+03  0.36545520830E+03  0.17360800497E+03 0.  0.
         24    2    5    5    0    0  0.87558247798E+02  0.25455645648E+03 -0.16766461631E+03  0.32709705119E+03  0.80097572016E+02 0.  0.
          5    1    5    5  501    0  0.20691698839E+02  0.14403953710E+02  0.28524339310E+02  0.38358157104E+02  0.47000000000E+01 0. -1.
        -13    1    6    6    0    0  0.88268407218E+01  0.20151432325E+02  0.83970931005E+01  0.23547919535E+02  0.00000000000E+00 0.  1.
         14    1    6    6    0    0  0.78731407076E+02  0.23440502416E+03 -0.17606170941E+03  0.30354913166E+03  0.00000000000E+00 0. -1.
         -5    1    3    3    0  503 -0.10310978911E+03 -0.11074349048E+03 -0.76852429184E+02  0.16977672151E+03  0.47000000000E+01 0.  1.
         11    1    4    4    0    0 -0.33756709940E+01 -0.70236944640E+02  0.37203159243E+02  0.79553118133E+02  0.00000000000E+00 0. -1.
        -12    1    4    4    0    0 -0.17644865293E+01 -0.87979975074E+02 -0.42321372744E+02  0.97645727084E+02  0.00000000000E+00 0.  1.
</event>
<event>
12    1  0.1046899E+000  0.3474361E+03  0.7818608E-02  0.1064256E+00
         21   -1    0    0  503  502  0.00000000000E+00  0.00000000000E+00  0.19770847089E+03  0.19770847089E+03  0.00000000000E+00 0. -1.
         21   -1    0    0  501  503 -0.00000000000E+00 -0.00000000000E+00 -0.60424957915E+03  0.60424957915E+03  0.00000000000E+00 0. -1.
          6    2    1    2  501    0 -0.28676692922E+03 -0.94684746693E+02 -0.17452271568E+03  0.38880589127E+03  0.17178873610E+03 0.  0.
         24    2    3    3    0    0 -0.19938018224E+03 -0.13133042030E+03 -0.11664384167E+03  0.27766902521E+03  0.80586384683E+02 0.  0.
         -6    2    1    2    0  502  0.28676692922E+03  0.94684746693E+02 -0.23201839258E+03  0.41315215876E+03  0.16019269286E+03 0.  0.
        -24    2    5    5    0    0  0.17041532233E+03  0.16112221771E+02 -0.75124077560E+02  0.20255953262E+03  0.78011226461E+02 0.  0.
          5    1    3    3  501    0 -0.87386746976E+02  0.36645673606E+02 -0.57878874007E+02  0.11113686606E+03  0.47000000000E+01 0. -1.
        -11    1    4    4    0    0 -0.12019854736E+03 -0.49933600237E+02 -0.97230015947E+02  0.16246455374E+03  0.00000000000E+00 0.  1.
         12    1    4    4    0    0 -0.79181634882E+02 -0.81396820062E+02 -0.19413825725E+02  0.11520447148E+03  0.00000000000E+00 0. -1.
         -5    1    5    5    0  502  0.11635160689E+03  0.78572524922E+02 -0.15689431502E+03  0.21059262614E+03  0.47000000000E+01 0.  1.
         11    1    6    6    0    0  0.24065698019E+02  0.32441887497E+02 -0.22116025816E+02  0.46051628456E+02  0.00000000000E+00 0. -1.
        -12    1    6    6    0    0  0.14634962431E+03 -0.16329665727E+02 -0.53008051744E+02  0.15650790417E+03  0.00000000000E+00 0.  1.
</event>
<event>
12    1  0.1046899E+000  0.4344645E+03  0.7818608E-02  0.1032484E+00
         21   -1    0    0  503  502  0.00000000000E+00  0.00000000000E+00  0.18836107646E+04  0.18836107646E+04  0.00000000000E+00 0. -1.
         21   -1    0    0  501  503 -0.00000000000E+00 -0.00000000000E+00 -0.10013870830E+03  0.10013870830E+03  0.00000000000E+00 0.  1.
          6    2    1    2  501    0  0.24381550244E+03  0.31527717488E+03  0.89349441574E+03  0.99338612454E+03  0.17215697846E+03 0.  0.
         24    2    3    3    0    0  0.24728945054E+03  0.23004663714E+03  0.75126824200E+03  0.82747443907E+03  0.78971186310E+02 0.  0.
         -6    2    1    2    0  502 -0.24381550244E+03 -0.31527717488E+03  0.88997764056E+03  0.99036334837E+03  0.17295567308E+03 0.  0.
        -24    2    5    5    0    0 -0.59195114843E+02 -0.11515460543E+03  0.22403484417E+03  0.27089435780E+03  0.80171671504E+02 0.  0.
          5    1    3    3  501    0 -0.34739480977E+01  0.85230537733E+02  0.14222617374E+03  0.16591168547E+03  0.47000000000E+01 0. -1.
        -13    1    4    4    0    0  0.12855626535E+03  0.83075112351E+02  0.26871331345E+03  0.30924914306E+03  0.00000000000E+00 0.  1.
         14    1    4    4    0    0  0.11873318519E+03  0.14697152479E+03  0.48255492854E+03  0.51822529601E+03  0.00000000000E+00 0. -1.
         -5    1    5    5    0  502 -0.18462038760E+03 -0.20012256945E+03  0.66594279639E+03  0.71946899057E+03  0.47000000000E+01 0.  1.
         11    1    6    6    0    0 -0.78559041160E+02 -0.94403612963E+02  0.19368246845E+03  0.22933918914E+03  0.00000000000E+00 0. -1.
        -12    1    6    6    0    0  0.19363926317E+02 -0.20750992462E+02  0.30352375716E+02  0.41555168657E+02  0.00000000000E+00 0.  1.
</event>
<event>
12    1  0.1046899E+000  0.4668799E+03  0.7818608E-02  0.1022889E+00
         21   -1    0    0  501  502  0.00000000000E+00  0.00000000000E+00  0.11867555827E+04  0.11867555827E+04  0.00000000000E+00 0.  1.
         21   -1    0    0  502  503 -0.00000000000E+00 -0.00000000000E+00 -0.24730259068E+03  0.24730259068E+03  0.00000000000E+00 0. -1.
         -6    2    1    2    0  503 -0.48747497509E+02  0.43079214482E+03  0.10513610663E+03  0.47857125596E+03  0.17325892638E+03 0.  0.
        -24    2    3    3    0    0 -0.31877525866E-01  0.12566009974E+03 -0.86143992105E+01  0.14926889620E+03  0.80103269711E+02 0.  0.
          6    2    1    2  501    0  0.48747497509E+02 -0.43079214482E+03  0.83431688542E+03  0.95548691744E+03  0.17003644773E+03 0.  0.
         24    2    5    5    0    0 -0.20496217629E+02 -0.34578266997E+03  0.61760807055E+03  0.71257519820E+03  0.79611145570E+02 0.  0.
          5    1    5    5  501    0  0.69243715138E+02 -0.85009474842E+02  0.21670881488E+03  0.24291171924E+03  0.47000000000E+01 0. -1.
        -13    1    6    6    0    0  0.18226425971E+02 -0.19508190065E+03  0.29121752517E+03  0.35099401352E+03  0.00000000000E+00 0.  1.
         14    1    6    6    0    0 -0.38722643599E+02 -0.15070076933E+03  0.32639054537E+03  0.36158118468E+03  0.00000000000E+00 0. -1.
         -5    1    3    3    0  503 -0.48715619984E+02  0.30513204508E+03  0.11375050584E+03  0.32930235976E+03  0.47000000000E+01 0.  1.
         13    1    4    4    0    0 -0.31357796146E+02  0.60462564894E+02  0.20752707714E+02  0.71201882069E+02  0.00000000000E+00 0. -1.
        -14    1    4    4    0    0  0.31325918620E+02  0.65197534842E+02 -0.29367106924E+02  0.78067014135E+02  0.00000000000E+00 0.  1.
</event>
<event>
12    1  0.1046899E+000  0.1800605E+03  0.7818608E-02  0.1168392E+00
         21   -1    0    0  501  502  0.00000000000E+00  0.00000000000E+00  0.63117551960E+02  0.63117551960E+02  0.00000000000E+00 0. -1.
         21   -1    0    0  502  503 -0.00000000000E+00 -0.00000000000E+00 -0.50637646488E+03  0.50637646488E+03  0.00000000000E+00 0. -1.
         -6    2    1    2    0  503 -0.18159668680E+02 -0.44862084871E+02 -0.21689117573E+03  0.28189283204E+03  0.17343415585E+03 0.  0.
        -24    2    3    3    0    0  0.15965345322E+02 -0.25921836889E+02 -0.61094225993E+02  0.12121293559E+03  0.10016604926E+03 0.  0.
          6    2    1    2  501    0  0.18159668680E+02  0.44862084871E+02 -0.22636773719E+03  0.28760118480E+03  0.17067427702E+03 0.  0.
         24    2    5    5    0    0  0.73019947321E+02  0.83807015725E+01 -0.14349962277E+03  0.18163064226E+03  0.83638505531E+02 0.  0.
          5    1    5    5  501    0 -0.54860278641E+02  0.36481383298E+02 -0.82868114420E+02  0.10597054255E+03  0.47000000000E+01 0. -1.
        -13    1    6    6    0    0  0.46198984610E+02  0.45735876826E+02 -0.76889625791E+02  0.10068828712E+03  0.00000000000E+00 0.  1.
         14    1    6    6    0    0  0.26820962711E+02 -0.37355175254E+02 -0.66609996975E+02  0.80942355142E+02  0.00000000000E+00 0. -1.
         -5    1    3    3    0  503 -0.34125014002E+02 -0.18940247982E+02 -0.15579694974E+03  0.16067989645E+03  0.47000000000E+01 0.  1.
         13    1    4    4    0    0 -0.98542096514E+01 -0.19931841595E+02  0.23625970965E+02  0.32443339243E+02  0.00000000000E+00 0. -1.
        -14    1    4    4    0    0  0.25819554974E+02 -0.59899952947E+01 -0.84720196957E+02  0.88769596344E+02  0.00000000000E+00 0.  1.
</event>
<event>
12    1  0.1046899E+000  0.5233681E+03  0.7818608E-02  0.1007891E+00
         21   -1    0    0  501  502  0.00000000000E+00  0.00000000000E+00  0.10054953432E+04  0.10054953432E+04  0.00000000000E+00 0.  1.
         21   -1    0    0  502  503 -0.00000000000E+00 -0.00000000000E+00 -0.29012312364E+03  0.29012312364E+03  0.00000000000E+00 0.  1.
         -6    2    1    2    0  503 -0.22386673841E+03 -0.44015354940E+03  0.51934095647E+03  0.73731213226E+03  0.17338595013E+03 0.  0.
        -24    2    3    3    0    0 -0.89192666840E+02 -0.21986579722E+03  0.16658862725E+03  0.30013928878E+03  0.77688617785E+02 0.  0.
          6    2    1    2  501    0  0.22386673841E+03  0.44015354940E+03  0.19603126310E+03  0.55830633458E+03  0.17154079252E+03 0.  0.
         24    2    5    5    0    0  0.16552113382E+03  0.18956795562E+03  0.12207204933E+03  0.29055756299E+03  0.78669286526E+02 0.  0.
          5    1    5    5  501    0  0.58345604594E+02  0.25058559378E+03  0.73959213768E+02  0.26774877159E+03  0.47000000000E+01 0. -1.
        -11    1    6    6    0    0 -0.69479654871E+01  0.19985464691E+02  0.45492134712E+01  0.21642281916E+02  0.00000000000E+00 0.  1.
         12    1    6    6    0    0  0.17246909930E+03  0.16958249093E+03  0.11752283586E+03  0.26891528107E+03  0.00000000000E+00 0. -1.
         -5    1    3    3    0  503 -0.13467407157E+03 -0.22028775218E+03  0.35275232921E+03  0.43717284348E+03  0.47000000000E+01 0.  1.
         11    1    4    4    0    0  0.32460812707E+01  0.42252131122E+01 -0.10249250223E+01  0.54258585275E+01  0.00000000000E+00 0. -1.
        -12    1    4    4    0    0 -0.92438748111E+02 -0.22409101034E+03  0.16761355227E+03  0.29471343025E+03  0.00000000000E+00 0.  1.
</event>
<event>
12    1  0.1046899E+000  0.1765526E+03  0.7818608E-02  0.1171579E+00
         21   -1    0    0  503  502  0.00000000000E+00  0.00000000000E+00  0.38970388976E+02  0.38970388976E+02  0.00000000000E+00 0.  1.
         21   -1    0    0  501  503 -0.00000000000E+00 -0.00000000000E+00 -0.88913482922E+03  0.88913482922E+03  0.00000000000E+00 0.  1.
          6    2    1    2  501    0 -0.36341883349E+02  0.35460346747E+00 -0.57965869885E+03  0.60594969524E+03  0.17277143219E+03 0.  0.
         24    2    3    3    0    0  0.19116024415E+02 -0.53037113443E+02 -0.37235738219E+03  0.38476610440E+03  0.78845274001E+02 0.  0.
         -6    2    1    2    0  502  0.36341883349E+02 -0.35460346747E+00 -0.27050574140E+03  0.32215552296E+03  0.17114311735E+03 0.  0.
        -24    2    5    5    0    0  0.49724943070E+02  0.24148751462E+02 -0.27680050065E+03  0.29315147696E+03  0.79142524087E+02 0.  0.
          5    1    3    3  501    0 -0.55457907764E+02  0.53391716911E+02 -0.20730131665E+03  0.22118359084E+03  0.47000000000E+01 0. -1.
        -11    1    4    4    0    0 -0.12540702290E+02  0.16381247132E+02 -0.80039516181E+02  0.82655541992E+02  0.00000000000E+00 0.  1.
         12    1    4    4    0    0  0.31656726705E+02 -0.69418360575E+02 -0.29231786601E+03  0.30211056241E+03  0.00000000000E+00 0. -1.
         -5    1    5    5    0  502 -0.13383059721E+02 -0.24503354929E+02  0.62947592583E+01  0.29004046001E+02  0.47000000000E+01 0.  1.
         13    1    6    6    0    0 -0.13512934627E+02 -0.12055949174E+02 -0.10478532877E+03  0.10633865919E+03  0.00000000000E+00 0. -1.
        -14    1    6    6    0    0  0.63237877697E+02  0.36204700636E+02 -0.17201517188E+03  0.18681281776E+03  0.00000000000E+00 0.  1.
</event>
<event>
12    1  0.1046899E+000  0.2065934E+03  0.7818608E-02  0.1144302E+00
         21   -1    0    0  503  502  0.00000000000E+00  0.00000000000E+00  0.28576216060E+03  0.28576216060E+03  0.00000000000E+00 0. -1.
         21   -1    0    0  501  503 -0.00000000000E+00 -0.00000000000E+00 -0.15576339352E+03  0.15576339352E+03  0.00000000000E+00 0. -1.
          6    2    1    2  501    0 -0.71815513326E+02  0.87930565126E+02  0.20099987995E+02  0.20752003529E+03  0.17254362721E+03 0.  0.
         24    2    3    3    0    0  0.10328825977E+02  0.57989632382E+01  0.16555167563E+02  0.91210326922E+02  0.88909715686E+02 0.  0.
         -6    2    1    2    0  502  0.71815513326E+02 -0.87930565126E+02  0.10989877908E+03  0.23400551884E+03  0.17260240139E+03 0.  0.
        -24    2    5    5    0    0  0.30330967574E+02 -0.11079284491E+03  0.20882707252E+02  0.13306195828E+03  0.63830832700E+02 0.  0.
          5    1    3    3  501    0 -0.82144339303E+02  0.82131601888E+02  0.35448204321E+01  0.11630970837E+03  0.47000000000E+01 0. -1.
        -11    1    4    4    0    0 -0.30113034105E+02 -0.18047008200E+02 -0.10978679049E+02  0.36783429987E+02  0.00000000000E+00 0.  1.
         12    1    4    4    0    0  0.40441860082E+02  0.23845971438E+02  0.27533846612E+02  0.54426896935E+02  0.00000000000E+00 0. -1.
         -5    1    5    5    0  502  0.41484545752E+02  0.22862279784E+02  0.89016071832E+02  0.10094356056E+03  0.47000000000E+01 0.  1.
         11    1    6    6    0    0 -0.11784619186E+02 -0.72941166472E+02  0.19510692087E+02  0.76419618694E+02  0.00000000000E+00 0. -1.
        -12    1    6    6    0    0  0.42115586760E+02 -0.37851678438E+02  0.13720151649E+01  0.56642339591E+02  0.00000000000E+00 0.  1.
</event>
<event>
12    1  0.1046899E+000  0.2035356E+03  0.7818608E-02  0.1146805E+00
         21   -1    0    0  501  502  0.00000000000E+00  0.00000000000E+00  0.26465045288E+03  0.26465045288E+03  0.00000000000E+00 0. -1.
         21   -1    0    0  502  503 -0.00000000000E+00 -0.00000000000E+00 -0.19329733579E+03  0.19329733579E+03  0.00000000000E+00 0. -1.
         -6    2    1    2    0  503 -0.25850012721E+02  0.10673519260E+03  0.13560761453E+03  0.24451076359E+03  0.17127598751E+03 0.  0.
        -24    2    3    3    0    0 -0.28752636782E+02  0.12032133582E+03  0.46908353683E+02  0.15460716306E+03  0.79994020070E+02 0.  0.
          6    2    1    2  501    0  0.25850012721E+02 -0.10673519260E+03 -0.64254497438E+02  0.21343702507E+03  0.17136539538E+03 0.  0.
         24    2    5    5    0    0  0.13493523055E+02 -0.21782004219E+02 -0.90672741255E+02  0.12349403947E+03  0.79829198323E+02 0.  0.
          5    1    5    5  501    0  0.12356489666E+02 -0.84953188382E+02  0.26418243818E+02  0.89942985605E+02  0.47000000000E+01 0. -1.
        -13    1    6    6    0    0 -0.15758105998E+02 -0.44033464756E+02 -0.56076567989E+02  0.73019486444E+02  0.00000000000E+00 0.  1.
         14    1    6    6    0    0  0.29251629052E+02  0.22251460537E+02 -0.34596173266E+02  0.50474553023E+02  0.00000000000E+00 0. -1.
         -5    1    3    3    0  503  0.29026240615E+01 -0.13586143223E+02  0.88699260849E+02  0.89903600536E+02  0.47000000000E+01 0.  1.
         11    1    4    4    0    0 -0.17678775077E+02  0.55567470415E+02  0.64146292759E+02  0.86689271143E+02  0.00000000000E+00 0. -1.
        -12    1    4    4    0    0 -0.11073861706E+02  0.64753865409E+02 -0.17237939076E+02  0.67917891914E+02  0.00000000000E+00 0.  1.
</event>
<event>
12    1  0.1046899E+000  0.1771406E+03  0.7818608E-02  0.1171512E+00
         21   -1    0    0  501  502  0.00000000000E+00  0.00000000000E+00  0.56552610033E+02  0.56552610033E+02  0.00000000000E+00 0. -1.
         21   -1    0    0  502  503 -0.00000000000E+00 -0.00000000000E+00 -0.54933018767E+03  0.54933018767E+03  0.00000000000E+00 0. -1.
         -6    2    1    2    0  503  0.19976428260E+02 -0.13494962155E+02 -0.21260000858E+03  0.27440388977E+03  0.17180675010E+03 0.  0.
        -24    2    3    3    0    0 -0.28075477793E+02 -0.33747465073E+02 -0.52986030623E+02  0.10642216008E+03  0.81185176368E+02 0.  0.
          6    2    1    2  501    0 -0.19976428260E+02  0.13494962155E+02 -0.28017756905E+03  0.33147890794E+03  0.17549251983E+03 0.  0.
         24    2    5    5    0    0  0.94556312301E+01 -0.64128730719E+01 -0.28373807743E+03  0.29546036758E+03  0.81602685790E+02 0.  0.
          5    1    5    5  501    0 -0.29432059490E+02  0.19907835227E+02  0.35605083718E+01  0.36018540353E+02  0.47000000000E+01 0. -1.
        -13    1    6    6    0    0  0.20245745355E+02  0.21121158817E+02 -0.38044909975E+02  0.47993840540E+02  0.00000000000E+00 0.  1.
         14    1    6    6    0    0 -0.10790114125E+02 -0.27534031889E+02 -0.24569316745E+03  0.24746652704E+03  0.00000000000E+00 0. -1.
         -5    1    3    3    0  503  0.48051906053E+02  0.20252502917E+02 -0.15961397796E+03  0.16798172969E+03  0.47000000000E+01 0.  1.
         11    1    4    4    0    0 -0.51743520193E+02 -0.30019792288E+01 -0.20210824443E+02  0.55631656329E+02  0.00000000000E+00 0. -1.
        -12    1    4    4    0    0  0.23668042399E+02 -0.30745485844E+02 -0.32775206180E+02  0.50790503747E+02  0.00000000000E+00 0.  1.
</event>
<event>
12    1  0.1046899E+000  0.1888613E+03  0.7818608E-02  0.1159621E+00
         21   -1    0    0  503  502  0.00000000000E+00  0.00000000000E+00  0.20739669716E+03  0.20739669716E+03  0.00000000000E+00 0.  1.
         21   -1    0    0  501  503 -0.00000000000E+00 -0.00000000000E+00 -0.46776498075E+03  0.46776498075E+03  0.00000000000E+00 0.  1.
          6    2    1    2  501    0 -0.60552146453E+02  0.45243982086E+02  0.13841894659E+03  0.23415461851E+03  0.17307512888E+03 0.  0.
         24    2    3    3    0    0 -0.38388527333E+02  0.89969651038E+02  0.61947541870E+02  0.14271295833E+03  0.83434245929E+02 0.  0.
         -6    2    1    2    0  502  0.60552146453E+02 -0.45243982086E+02 -0.39878723018E+03  0.44100705940E+03  0.17245982468E+03 0.  0.
        -24    2    5    5    0    0  0.91983008447E+02 -0.44281971262E+02 -0.19240121426E+03  0.23218631781E+03  0.80439369140E+02 0.  0.
          5    1    3    3  501    0 -0.22163619120E+02 -0.44725668951E+02  0.76471404717E+02  0.91441660172E+02  0.47000000000E+01 0. -1.
        -11    1    4    4    0    0 -0.66934636579E+01  0.55281510622E+02  0.75496016916E+02  0.93810961207E+02  0.00000000000E+00 0.  1.
         12    1    4    4    0    0 -0.31695063675E+02  0.34688140415E+02 -0.13548475046E+02  0.48901997126E+02  0.00000000000E+00 0. -1.
         -5    1    5    5    0  502 -0.31430861993E+02 -0.96201082384E+00 -0.20638601592E+03  0.20882074159E+03  0.47000000000E+01 0.  1.
         11    1    6    6    0    0  0.29470094377E+01 -0.37526018694E+02 -0.81757717676E+02  0.90006729433E+02  0.00000000000E+00 0. -1.
        -12    1    6    6    0    0  0.89035999009E+02 -0.67559525682E+01 -0.11064349658E+03  0.14217958838E+03  0.00000000000E+00 0.  1.
</event>
<event>
12    1  0.1046899E+000  0.3710759E+03  0.7818608E-02  0.1054580E+00
         21   -1    0    0  503  502  0.00000000000E+00  0.00000000000E+00  0.25094187265E+03  0.25094187265E+03  0.00000000000E+00 0.  1.
         21   -1    0    0  501  503 -0.00000000000E+00 -0.00000000000E+00 -0.18740828174E+04  0.18740828174E+04  0.00000000000E+00 0. -1.
          6    2    1    2  501    0  0.10736293678E+02 -0.32839813484E+03  0.82506913339E+02  0.38013776533E+03  0.17244340205E+03 0.  0.
         24    2    3    3    0    0 -0.17888804129E+02 -0.33211815584E+03  0.73006481240E+02  0.34938743215E+03  0.78225013206E+02 0.  0.
         -6    2    1    2    0  502 -0.10736293678E+02  0.32839813484E+03 -0.17056478581E+04  0.17448869247E+04  0.16563562811E+03 0.  0.
        -24    2    5    5    0    0  0.35659212838E+02  0.11398651679E+03 -0.81549419003E+03  0.82808785855E+03  0.80213602551E+02 0.  0.
          5    1    3    3  501    0  0.28625097806E+02  0.37200209948E+01  0.95004320985E+01  0.30750333180E+02  0.47000000000E+01 0. -1.
        -11    1    4    4    0    0  0.27695255013E+02 -0.20001164375E+03  0.42230811883E+02  0.20628893876E+03  0.00000000000E+00 0.  1.
         12    1    4    4    0    0 -0.45584059141E+02 -0.13210651209E+03  0.30775669357E+02  0.14309849338E+03  0.00000000000E+00 0. -1.
         -5    1    5    5    0  502 -0.46395506516E+02  0.21441161805E+03 -0.89015366806E+03  0.91679906618E+03  0.47000000000E+01 0.  1.
         11    1    6    6    0    0  0.47243361116E+02  0.12113768562E+03 -0.72330176683E+03  0.73489572046E+03  0.00000000000E+00 0. -1.
        -12    1    6    6    0    0 -0.11584148278E+02 -0.71511688246E+01 -0.92192423196E+02  0.93192138090E+02  0.00000000000E+00 0.  1.
</event>
<event>
12    1  0.1046899E+000  0.2665658E+03  0.7818608E-02  0.1103296E+00
         21   -1    0    0  503  502  0.00000000000E+00  0.00000000000E+00  0.38903147933E+03  0.38903147933E+03  0.00000000000E+00 0. -1.
         21   -1    0    0  501  503 -0.00000000000E+00 -0.00000000000E+00 -0.30332923557E+03  0.30332923557E+03  0.00000000000E+00 0. -1.
          6    2    1    2  501    0  0.17398962807E+03  0.10534220134E+03  0.26136172127E+03  0.37331927116E+03  0.17230194084E+03 0.  0.
         24    2    3    3    0    0  0.22326046522E+02  0.39189294102E+02  0.53331517989E+02  0.10746836449E+03  0.81675855853E+02 0.  0.
         -6    2    1    2    0  502 -0.17398962807E+03 -0.10534220134E+03 -0.17565947751E+03  0.31904144374E+03  0.17193551328E+03 0.  0.
        -24    2    5    5    0    0 -0.20093517186E+03 -0.87125195746E+02 -0.15399643809E+03  0.27968030935E+03  0.80872921744E+02 0.  0.
          5    1    3    3  501    0  0.15166358154E+03  0.66152907239E+02  0.20803020328E+03  0.26585090667E+03  0.47000000000E+01 0. -1.
        -13    1    4    4    0    0 -0.44500200877E+01 -0.18858598190E+02  0.36562716756E+02  0.41379725242E+02  0.00000000000E+00 0.  1.
         14    1    4    4    0    0  0.26776066610E+02  0.58047892293E+02  0.16768801233E+02  0.66088639247E+02  0.00000000000E+00 0. -1.
         -5    1    5    5    0  502  0.26945543793E+02 -0.18217005595E+02 -0.21663039414E+02  0.39361134382E+02  0.47000000000E+01 0.  1.
         11    1    6    6    0    0 -0.10078126473E+03 -0.72911226123E+02 -0.48469900486E+02  0.13349996805E+03  0.00000000000E+00 0. -1.
        -12    1    6    6    0    0 -0.10015390713E+03 -0.14213969624E+02 -0.10552653761E+03  0.14618034131E+03  0.00000000000E+00 0.  1.
</event>
<event>
12    1  0.1046899E+000  0.1964341E+03  0.7818608E-02  0.1154200E+00
         21   -1    0    0  501  502  0.00000000000E+00  0.00000000000E+00  0.24332889141E+03  0.24332889141E+03  0.00000000000E+00 0.  1.
         21   -1    0    0  502  503 -0.00000000000E+00 -0.00000000000E+00 -0.15392187073E+03  0.15392187073E+03  0.00000000000E+00 0.  1.
         -6    2    1    2    0  503 -0.77211770454E+02 -0.24713736560E+02  0.34038489194E+02  0.19936139647E+03  0.17892434542E+03 0.  0.
        -24    2    3    3    0    0 -0.71593090666E+02 -0.84227113388E+02  0.42644010326E+02  0.13878453143E+03  0.72269338504E+02 0.  0.
          6    2    1    2  501    0  0.77211770454E+02  0.24713736560E+02  0.55368531485E+02  0.19788936566E+03  0.17181996535E+03 0.  0.
         24    2    5    5    0    0 -0.11812677073E+02 -0.17161777778E+02  0.80251750219E+01  0.88608103045E+02  0.85749207198E+02 0.  0.
          5    1    5    5  501    0  0.89024447526E+02  0.41875514338E+02  0.47343356464E+02  0.10928126262E+03  0.47000000000E+01 0. -1.
        -11    1    6    6    0    0 -0.79389628930E+01  0.33914136176E+02 -0.63534174024E+01  0.35405672951E+02  0.00000000000E+00 0.  1.
         12    1    6    6    0    0 -0.38737141796E+01 -0.51075913955E+02  0.14378592424E+02  0.53202430095E+02  0.00000000000E+00 0. -1.
         -5    1    3    3    0  503 -0.56186797882E+01  0.59513376828E+02 -0.86055211316E+01  0.60576865039E+02  0.47000000000E+01 0.  1.
         11    1    4    4    0    0 -0.83590478073E+01 -0.65218683300E+02  0.25866322996E+02  0.70657037844E+02  0.00000000000E+00 0. -1.
        -12    1    4    4    0    0 -0.63234042858E+02 -0.19008430088E+02  0.16777687330E+02  0.68127493589E+02  0.00000000000E+00 0.  1.
</event>
<event>
12    1  0.1046899E+000  0.2633713E+03  0.7818608E-02  0.1105165E+00
         21   -1    0    0  503  502  0.00000000000E+00  0.00000000000E+00  0.67724093093E+03  0.67724093093E+03  0.00000000000E+00 0.  1.
         21   -1    0    0  501  503 -0.00000000000E+00 -0.00000000000E+00 -0.11354228131E+03  0.11354228131E+03  0.00000000000E+00 0. -1.
          6    2    1    2  501    0  0.19680451703E+03 -0.37358634141E+02  0.15775986624E+03  0.30700587438E+03  0.17098756107E+03 0.  0.
         24    2    3    3    0    0  0.51054325189E+02  0.30856588791E+02  0.75975487249E+02  0.12643120919E+03  0.81571458260E+02 0.  0.
         -6    2    1    2    0  502 -0.19680451703E+03  0.37358634141E+02  0.40593878337E+03  0.48377733786E+03  0.17066496802E+03 0.  0.
        -24    2    5    5    0    0 -0.12915592980E+03 -0.17196766520E+02  0.15418939400E+03  0.21740829284E+03  0.80715634122E+02 0.  0.
          5    1    3    3  501    0  0.14575019184E+03 -0.68215222932E+02  0.81784378991E+02  0.18057466519E+03  0.47000000000E+01 0. -1.
        -11    1    4    4    0    0 -0.11272573905E+02 -0.15704362080E+02  0.31099445015E+02  0.36617938104E+02  0.00000000000E+00 0.  1.
         12    1    4    4    0    0  0.62326899094E+02  0.46560950872E+02  0.44876042234E+02  0.89813271087E+02  0.00000000000E+00 0. -1.
         -5    1    5    5    0  502 -0.67648587231E+02  0.54555400661E+02  0.25174938937E+03  0.26636904502E+03  0.47000000000E+01 0.  1.
         11    1    6    6    0    0 -0.60673118171E+02  0.23810546357E+02  0.35060290874E+02  0.74009414148E+02  0.00000000000E+00 0. -1.
        -12    1    6    6    0    0 -0.68482811629E+02 -0.41007312877E+02  0.11912910313E+03  0.14339887869E+03  0.00000000000E+00 0.  1.
</event>
<event>
12    1  0.1046899E+000  0.3500900E+03  0.7818608E-02  0.1062650E+00
         21   -1    0    0  503  502  0.00000000000E+00  0.00000000000E+00  0.16973326653E+04  0.16973326653E+04  0.00000000000E+00 0. -1.
         21   -1    0    0  501  503 -0.00000000000E+00 -0.00000000000E+00 -0.82234967326E+02  0.82234967326E+02  0.00000000000E+00 0.  1.
          6    2    1    2  501    0  0.81085468151E+02 -0.29430668467E+03  0.11211495243E+04  0.11745378835E+04  0.17138175566E+03 0.  0.
         24    2    3    3    0    0  0.52426106090E+01 -0.23338340541E+03  0.88318104450E+03  0.91740975907E+03  0.84478457601E+02 0.  0.
         -6    2    1    2    0  502 -0.81085468151E+02  0.29430668467E+03  0.49394817366E+03  0.60502974911E+03  0.16995564496E+03 0.  0.
        -24    2    5    5    0    0 -0.33217503639E+02  0.25009837682E+03  0.29621421640E+03  0.39678344214E+03  0.77727970031E+02 0.  0.
          5    1    3    3  501    0  0.75842857542E+02 -0.60923279255E+02  0.23796847981E+03  0.25712812444E+03  0.47000000000E+01 0. -1.
        -11    1    4    4    0    0 -0.28943078683E+02 -0.64690099034E+02  0.35111026960E+03  0.35819119494E+03  0.00000000000E+00 0.  1.
         12    1    4    4    0    0  0.34185689292E+02 -0.16869330638E+03  0.53207077490E+03  0.55921856413E+03  0.00000000000E+00 0. -1.
         -5    1    5    5    0  502 -0.47867964511E+02  0.44208307846E+02  0.19773395727E+03  0.20824630697E+03  0.47000000000E+01 0.  1.
         13    1    6    6    0    0 -0.74361902008E+01  0.12580770292E+03  0.20437256432E+03  0.24010626831E+03  0.00000000000E+00 0. -1.
        -14    1    6    6    0    0 -0.25781313439E+02  0.12429067390E+03  0.91841652082E+02  0.15667717383E+03  0.00000000000E+00 0.  1.
</event>
<event>
12    1  0.1046899E+000  0.1735770E+03  0.7818608E-02  0.1174190E+00
         21   -1    0    0  503  502  0.00000000000E+00  0.00000000000E+00  0.23510326354E+03  0.23510326354E+03  0.00000000000E+00 0. -1.
         21   -1    0    0  501  503 -0.00000000000E+00 -0.00000000000E+00 -0.14268846689E+03  0.14268846689E+03  0.00000000000E+00 0. -1.
          6    2    1    2  501    0  0.25906395854E+02 -0.10585037261E+02 -0.14229035033E+02  0.17407162658E+03  0.17121705926E+03 0.  0.
         24    2    3    3    0    0 -0.44167114414E+02  0.22342823245E+02 -0.23394462936E+02  0.95965058945E+02  0.78816596578E+02 0.  0.
         -6    2    1    2    0  502 -0.25906395854E+02  0.10585037261E+02  0.10664383168E+03  0.20372010385E+03  0.17130612808E+03 0.  0.
        -24    2    5    5    0    0 -0.74891896182E+02 -0.95791046252E+01  0.41173350704E+02  0.11937174441E+03  0.82787759946E+02 0.  0.
          5    1    3    3  501    0  0.70073510268E+02 -0.32927860506E+02  0.91654279029E+01  0.78106567633E+02  0.47000000000E+01 0. -1.
        -11    1    4    4    0    0 -0.39177657039E+02 -0.15293471509E+02 -0.36616155344E+02  0.55763087379E+02  0.00000000000E+00 0.  1.
         12    1    4    4    0    0 -0.49894573756E+01  0.37636294754E+02  0.13221692408E+02  0.40201971567E+02  0.00000000000E+00 0. -1.
         -5    1    5    5    0  502  0.48985500328E+02  0.20164141886E+02  0.65470480975E+02  0.84348359436E+02  0.47000000000E+01 0.  1.
         13    1    6    6    0    0 -0.23779258469E+02 -0.39709568596E+02  0.38117871524E+02  0.59960612913E+02  0.00000000000E+00 0. -1.
        -14    1    6    6    0    0 -0.51112637712E+02  0.30130463971E+02  0.30554791795E+01  0.59411131499E+02  0.00000000000E+00 0.  1.
</event>
<event>
12    1  0.1046899E+000  0.2494588E+03  0.7818608E-02  0.1114166E+00
         21   -1    0    0  503  502  0.00000000000E+00  0.00000000000E+00  0.56001218802E+03  0.56001218802E+03  0.00000000000E+00 0. -1.
         21   -1    0    0  501  503 -0.00000000000E+00 -0.00000000000E+00 -0.10968459154E+03  0.10968459154E+03  0.00000000000E+00 0. -1.
          6    2    1    2  501    0  0.12481267077E+03  0.12955374961E+03  0.22915521941E+03  0.33873559338E+03  0.17282161559E+03 0.  0.
         24    2    3    3    0    0  0.15259147281E+03  0.11937587711E+03  0.16136078305E+03  0.26461794006E+03  0.80315591804E+02 0.  0.
         -6    2    1    2    0  502 -0.12481267077E+03 -0.12955374961E+03  0.22117237707E+03  0.33096118617E+03  0.16809434717E+03 0.  0.
        -24    2    5    5    0    0 -0.14273113482E+03 -0.13590926610E+03  0.22661361520E+03  0.31063482358E+03  0.79352111292E+02 0.  0.
          5    1    3    3  501    0 -0.27778802041E+02  0.10177872503E+02  0.67794436364E+02  0.74117653318E+02  0.47000000000E+01 0. -1.
        -13    1    4    4    0    0  0.13287108793E+03  0.13051755668E+03  0.15070606253E+03  0.23958688589E+03  0.00000000000E+00 0.  1.
         14    1    4    4    0    0  0.19720384884E+02 -0.11141679568E+02  0.10654720518E+02  0.25031054171E+02  0.00000000000E+00 0. -1.
         -5    1    5    5    0  502  0.17918464050E+02  0.63555164880E+01 -0.54412381327E+01  0.20326362590E+02  0.47000000000E+01 0.  1.
         11    1    6    6    0    0 -0.22302820257E+02 -0.16198032917E+02  0.85546725735E+02  0.89877885744E+02  0.00000000000E+00 0. -1.
        -12    1    6    6    0    0 -0.12042831457E+03 -0.11971123318E+03  0.14106688947E+03  0.22075693784E+03  0.00000000000E+00 0.  1.
</event>
<event>
12    1  0.1046899E+000  0.1963424E+03  0.7818608E-02  0.1153120E+00
         21   -1    0    0  501  502  0.00000000000E+00  0.00000000000E+00  0.41721081028E+03  0.41721081028E+03  0.00000000000E+00 0.  1.
         21   -1    0    0  502  503 -0.00000000000E+00 -0.00000000000E+00 -0.16050057052E+03  0.16050057052E+03  0.00000000000E+00 0.  1.
         -6    2    1    2    0  503 -0.68390269562E+02  0.63238278872E+02  0.31750478265E+03  0.37330904526E+03  0.17284110443E+03 0.  0.
        -24    2    3    3    0    0 -0.66967395090E+02 -0.42142426902E+01  0.27479024061E+03  0.29331848745E+03  0.77612285738E+02 0.  0.
          6    2    1    2  501    0  0.68390269562E+02 -0.63238278872E+02 -0.60794542899E+02  0.20440233554E+03  0.17148769473E+03 0.  0.
         24    2    5    5    0    0  0.85640240309E+00 -0.75911209419E+01  0.23507907227E+02  0.82802900937E+02  0.79027464588E+02 0.  0.
          5    1    5    5  501    0  0.67533867159E+02 -0.55647157930E+02 -0.84302450126E+02  0.12159943461E+03  0.47000000000E+01 0. -1.
        -13    1    6    6    0    0  0.10821784519E+02  0.34374142140E+02  0.13817036930E+02  0.38595377671E+02  0.00000000000E+00 0.  1.
         14    1    6    6    0    0 -0.99653821155E+01 -0.41965263082E+02  0.96908702961E+01  0.44207523266E+02  0.00000000000E+00 0. -1.
         -5    1    3    3    0  503 -0.14228744718E+01  0.67452521562E+02  0.42714542038E+02  0.79990557808E+02  0.47000000000E+01 0.  1.
         13    1    4    4    0    0 -0.49542658695E+02  0.20258933740E+02  0.80186315447E+02  0.96409255841E+02  0.00000000000E+00 0. -1.
        -14    1    4    4    0    0 -0.17424736395E+02 -0.24473176431E+02  0.19460392517E+03  0.19690923161E+03  0.00000000000E+00 0.  1.
</event>
<event>
12    1  0.1046899E+000  0.2387921E+03  0.7818608E-02  0.1120640E+00
         21   -1    0    0  503  502  0.00000000000E+00  0.00000000000E+00  0.17227124946E+03  0.17227124946E+03  0.00000000000E+00 0. -1.
         21   -1    0    0  501  503 -0.00000000000E+00 -0.00000000000E+00 -0.45455112907E+03  0.45455112907E+03  0.00000000000E+00 0. -1.
          6    2    1    2  501    0 -0.16229351506E+03 -0.33772972273E+02  0.22425139409E+02  0.23984278080E+03  0.17187749690E+03 0.  0.
         24    2    3    3    0    0 -0.58692901786E+02 -0.17091139732E+01  0.69658201459E+02  0.12146106672E+03  0.80328997926E+02 0.  0.
         -6    2    1    2    0  502  0.16229351506E+03  0.33772972273E+02 -0.30470501902E+03  0.38697959773E+03  0.17154667516E+03 0.  0.
        -24    2    5    5    0    0  0.39426274816E+02 -0.66073291734E+01 -0.57324909266E+02  0.10779160341E+03  0.82065806515E+02 0.  0.
          5    1    3    3  501    0 -0.10360061327E+03 -0.32063858300E+02 -0.47233062050E+02  0.11838171408E+03  0.47000000000E+01 0. -1.
        -13    1    4    4    0    0  0.10001212819E+02 -0.95088088286E+01  0.46570889704E+02  0.48572517652E+02  0.00000000000E+00 0.  1.
         14    1    4    4    0    0 -0.68694114606E+02  0.77996948554E+01  0.23087311755E+02  0.72888549069E+02  0.00000000000E+00 0. -1.
         -5    1    5    5    0  502  0.12286724024E+03  0.40380301446E+02 -0.24738010976E+03  0.27918799432E+03  0.47000000000E+01 0.  1.
         13    1    6    6    0    0  0.19840322227E+02 -0.40025713559E+02 -0.85117083162E+01  0.45476865662E+02  0.00000000000E+00 0. -1.
        -14    1    6    6    0    0  0.19585952590E+02  0.33418384386E+02 -0.48813200949E+02  0.62314737749E+02  0.00000000000E+00 0.  1.
</event>
<event>
12    1  0.1046899E+000  0.2562133E+03  0.7818608E-02  0.1109482E+00
         21   -1    0    0  503  502  0.00000000000E+00  0.00000000000E+00  0.98512542567E+03  0.98512542567E+03  0.00000000000E+00 0.  1.
         21   -1    0    0  501  503 -0.00000000000E+00 -0.00000000000E+00 -0.95112989123E+02  0.95112989123E+02  0.00000000000E+00 0.  1.
          6    2    1    2  501    0 -0.17773199900E+03 -0.60538325193E+02  0.74074592621E+03  0.78371564787E+03  0.17393141534E+03 0.  0.
         24    2    3    3    0    0 -0.88916214142E+02 -0.32112882324E+02  0.20704249441E+03  0.24190600182E+03  0.81942595012E+02 0.  0.
         -6    2    1    2    0  502  0.17773199900E+03  0.60538325193E+02  0.14926651034E+03  0.29652276692E+03  0.17433217691E+03 0.  0.
        -24    2    5    5    0    0  0.17608621493E+03  0.93169559193E+02  0.15067519079E+03  0.26348369281E+03  0.83867284486E+02 0.  0.
          5    1    3    3  501    0 -0.88815784857E+02 -0.28425442870E+02  0.53370343180E+03  0.54180964606E+03  0.47000000000E+01 0. -1.
        -13    1    4    4    0    0 -0.10241690352E+03 -0.38441413197E+02  0.17222809932E+03  0.20403304284E+03  0.00000000000E+00 0.  1.
         14    1    4    4    0    0  0.13500689375E+02  0.63285308733E+01  0.34814395090E+02  0.37872958983E+02  0.00000000000E+00 0. -1.
         -5    1    5    5    0  502  0.16457840736E+01 -0.32631233999E+02 -0.14086804552E+01  0.33039074112E+02  0.47000000000E+01 0.  1.
         13    1    6    6    0    0  0.18315074651E+03  0.78802556088E+02  0.13320192084E+03  0.23978488382E+03  0.00000000000E+00 0. -1.
        -14    1    6    6    0    0 -0.70645315803E+01  0.14367003105E+02  0.17473269950E+02  0.23698808987E+02  0.00000000000E+00 0.  1.
</event>
<event>
12    1  0.1046899E+000  0.1787549E+03  0.7818608E-02  0.1169326E+00
         21   -1    0    0  503  502  0.00000000000E+00  0.00000000000E+00  0.41412571655E+03  0.41412571655E+03  0.00000000000E+00 0.  1.
         21   -1    0    0  501  503 -0.00000000000E+00 -0.00000000000E+00 -0.76634692168E+02  0.76634692168E+02  0.00000000000E+00 0.  1.
          6    2    1    2  501    0  0.37315066845E+02  0.26624156145E+02  0.17260407781E+03  0.24757116046E+03  0.17145860115E+03 0.  0.
         24    2    3    3    0    0 -0.91593066772E+01  0.74399856980E+02  0.12224331594E+03  0.16390108623E+03  0.79378247391E+02 0.  0.
         -6    2    1    2    0  502 -0.37315066845E+02 -0.26624156145E+02  0.16488694656E+03  0.24318924825E+03  0.17277744475E+03 0.  0.
        -24    2    5    5    0    0  0.80296493327E+01  0.32253580337E+02  0.13440448448E+03  0.16272806735E+03  0.85504910625E+02 0.  0.
          5    1    3    3  501    0  0.46474373522E+02 -0.47775700836E+02  0.50360761873E+02  0.83670074226E+02  0.47000000000E+01 0. -1.
        -13    1    4    4    0    0  0.29195738199E+01  0.33835906780E+02 -0.60427747796E+00  0.33967008260E+02  0.00000000000E+00 0.  1.
         14    1    4    4    0    0 -0.12078880497E+02  0.40563950201E+02  0.12284759342E+03  0.12993407797E+03  0.00000000000E+00 0. -1.
         -5    1    5    5    0  502 -0.45344716178E+02 -0.58877736481E+02  0.30482462083E+02  0.80461180908E+02  0.47000000000E+01 0.  1.
         13    1    6    6    0    0 -0.19076324984E+01 -0.21534394537E+02  0.89156751017E+02  0.91740369858E+02  0.00000000000E+00 0. -1.
        -14    1    6    6    0    0  0.99372818311E+01  0.53787974873E+02  0.45247733464E+02  0.70987697489E+02  0.00000000000E+00 0.  1.
</event>
<event>
12    1  0.1046899E+000  0.3359392E+03  0.7818608E-02  0.1068766E+00
         21   -1    0    0  501  502  0.00000000000E+00  0.00000000000E+00  0.33608194129E+03  0.33608194129E+03  0.00000000000E+00 0.  1.
         21   -1    0    0  502  503 -0.00000000000E+00 -0.00000000000E+00 -0.33793546889E+03  0.33793546889E+03  0.00000000000E+00 0.  1.
         -6    2    1    2    0  503 -0.18896822430E+03 -0.21905278503E+03  0.36787647262E+02  0.33794741277E+03  0.17076888000E+03 0.  0.
        -24    2    3    3    0    0 -0.18394581788E+03 -0.14323983678E+03 -0.13525332490E+02  0.24669877650E+03  0.79521298726E+02 0.  0.
          6    2    1    2  501    0  0.18896822430E+03  0.21905278503E+03 -0.38641174864E+02  0.33606999741E+03  0.16660369244E+03 0.  0.
         24    2    5    5    0    0  0.19212442583E+03  0.13445948536E+03 -0.40786123589E+02  0.25126033544E+03  0.80480432924E+02 0.  0.
          5    1    5    5  501    0 -0.31562015311E+01  0.84593299674E+02  0.21449487258E+01  0.84809661966E+02  0.47000000000E+01 0. -1.
        -13    1    6    6    0    0  0.53341292017E+02  0.37593581089E+02 -0.49322913291E+02  0.81800492350E+02  0.00000000000E+00 0.  1.
         14    1    6    6    0    0  0.13878313382E+03  0.96865904270E+02  0.85367897022E+01  0.16945984309E+03  0.00000000000E+00 0. -1.
         -5    1    3    3    0  503 -0.50224064232E+01 -0.75812948248E+02  0.50312979752E+02  0.91248636263E+02  0.47000000000E+01 0.  1.
         13    1    4    4    0    0 -0.55474869673E+02 -0.26652658134E+02 -0.36723165795E+02  0.71668795559E+02  0.00000000000E+00 0. -1.
        -14    1    4    4    0    0 -0.12847094821E+03 -0.11658717865E+03  0.23197833305E+02  0.17502998094E+03  0.00000000000E+00 0.  1.
</event>
<event>
12    1  0.1046899E+000  0.2000943E+03  0.7818608E-02  0.1149732E+00
         21   -1    0    0  503  502  0.00000000000E+00  0.00000000000E+00  0.10016989991E+03  0.10016989991E+03  0.00000000000E+00 0.  1.
         21   -1    0    0  501  503 -0.00000000000E+00 -0.00000000000E+00 -0.39928080684E+03  0.39928080684E+03  0.00000000000E+00 0.  1.
          6    2    1    2  501    0  0.72131513712E+02  0.74045712056E+02 -0.14296969291E+03  0.24564408679E+03  0.17092384719E+03 0.  0.
         24    2    3    3    0    0  0.81169174760E+02 -0.38140955107E+01 -0.11560906981E+03  0.16249047804E+03  0.80216682654E+02 0.  0.
         -6    2    1    2    0  502 -0.72131513712E+02 -0.74045712056E+02 -0.15614121402E+03  0.25380661996E+03  0.17132425070E+03 0.  0.
        -24    2    5    5    0    0 -0.10637149743E+03 -0.73503888292E+02 -0.15790155661E+03  0.21919652224E+03  0.79978101530E+02 0.  0.
          5    1    3    3  501    0 -0.90376610479E+01  0.77859807567E+02 -0.27360623102E+02  0.83153608750E+02  0.47000000000E+01 0. -1.
        -13    1    4    4    0    0  0.12017614134E+02 -0.53926734625E+01 -0.86413705791E+02  0.87411855746E+02  0.00000000000E+00 0.  1.
         14    1    4    4    0    0  0.69151560627E+02  0.15785779518E+01 -0.29195364017E+02  0.75078622294E+02  0.00000000000E+00 0. -1.
         -5    1    5    5    0  502  0.34239983720E+02 -0.54182376440E+00  0.17603425874E+01  0.34610097719E+02  0.47000000000E+01 0.  1.
         13    1    6    6    0    0 -0.36353161296E+01 -0.34943063368E+02 -0.13060412144E+02  0.37480762616E+02  0.00000000000E+00 0. -1.
        -14    1    6    6    0    0 -0.10273618130E+03 -0.38560824924E+02 -0.14484114446E+03  0.18171575963E+03  0.00000000000E+00 0.  1.
</event>
<event>
12    1  0.1046899E+000  0.2238786E+03  0.7818608E-02  0.1131317E+00
         21   -1    0    0  503  502  0.00000000000E+00  0.00000000000E+00  0.62270537724E+03  0.62270537724E+03  0.00000000000E+00 0.  1.
         21   -1    0    0  501  503 -0.00000000000E+00 -0.00000000000E+00 -0.82396996810E+02  0.82396996810E+02  0.00000000000E+00 0.  1.
          6    2    1    2  501    0  0.84665770146E+02 -0.11636311708E+03  0.20803101600E+03  0.30444058800E+03  0.16940631733E+03 0.  0.
         24    2    3    3    0    0  0.10795603739E+03 -0.13281600176E+03  0.19908168718E+03  0.27418642384E+03  0.79057450727E+02 0.  0.
         -6    2    1    2    0  502 -0.84665770146E+02  0.11636311708E+03  0.33227736443E+03  0.40066178605E+03  0.17150204734E+03 0.  0.
        -24    2    5    5    0    0 -0.13904472723E+01  0.11058021946E+03  0.17362123127E+03  0.22132389298E+03  0.81302001051E+02 0.  0.
          5    1    3    3  501    0 -0.23290267243E+02  0.16452884681E+02  0.89493288234E+01  0.30254164159E+02  0.47000000000E+01 0. -1.
        -11    1    4    4    0    0  0.11049143232E+02 -0.41985073487E+02  0.12537423715E+02  0.45188681716E+02  0.00000000000E+00 0.  1.
         12    1    4    4    0    0  0.96906894157E+02 -0.90830928274E+02  0.18654426346E+03  0.22899774212E+03  0.00000000000E+00 0. -1.
         -5    1    5    5    0  502 -0.83275322874E+02  0.57828976198E+01  0.15865613316E+03  0.17933789308E+03  0.47000000000E+01 0.  1.
         13    1    6    6    0    0  0.18687989579E+02  0.79582134828E+02  0.16386591283E+03  0.18312453284E+03  0.00000000000E+00 0. -1.
        -14    1    6    6    0    0 -0.20078436851E+02  0.30998084631E+02  0.97553184371E+01  0.38199360139E+02  0.00000000000E+00 0.  1.
</event>
<event>
12    1  0.1046899E+000  0.4571628E+03  0.7818608E-02  0.1025807E+00
         21   -1    0    0  503  502  0.00000000000E+00  0.00000000000E+00  0.34769551703E+03  0.34769551703E+03  0.00000000000E+00 0.  1.
         21   -1    0    0  501  503 -0.00000000000E+00 -0.00000000000E+00 -0.60014198092E+03  0.60014198092E+03  0.00000000000E+00 0. -1.
          6    2    1    2  501    0 -0.27951834302E+03 -0.31850433325E+03 -0.15714634475E+03  0.48084715608E+03  0.16414475155E+03 0.  0.
         24    2    3    3    0    0 -0.20220913627E+03 -0.28296518996E+03 -0.16943574498E+03  0.39474916823E+03  0.78489493708E+02 0.  0.
         -6    2    1    2    0  502  0.27951834302E+03  0.31850433325E+03 -0.95300119136E+02  0.46699034187E+03  0.17152945025E+03 0.  0.
        -24    2    5    5    0    0  0.83893077137E+02  0.85767467020E+02  0.12325528044E+02  0.14443637199E+03  0.79472260067E+02 0.  0.
          5    1    3    3  501    0 -0.77309206746E+02 -0.35539143286E+02  0.12289400228E+02  0.86097987846E+02  0.47000000000E+01 0. -1.
        -11    1    4    4    0    0 -0.13043211827E+03 -0.22619965863E+03 -0.98916997938E+02  0.27921926065E+03  0.00000000000E+00 0.  1.
         12    1    4    4    0    0 -0.71777018008E+02 -0.56765531337E+02 -0.70518747039E+02  0.11552990758E+03  0.00000000000E+00 0. -1.
         -5    1    5    5    0  502  0.19562526588E+03  0.23273686623E+03 -0.10762564718E+03  0.32255396988E+03  0.47000000000E+01 0.  1.
         11    1    6    6    0    0  0.30853321730E+02  0.85237441592E+02  0.11602010133E+02  0.91389034080E+02  0.00000000000E+00 0. -1.
        -12    1    6    6    0    0  0.53039755408E+02  0.53002542746E+00  0.72351791132E+00  0.53047337905E+02  0.00000000000E+00 0.  1.
</event>
<event>
12    1  0.1046899E+000  0.2253537E+03  0.7818608E-02  0.1130240E+00
         21   -1    0    0  501  502  0.00000000000E+00  0.00000000000E+00  0.31679073870E+03  0.31679073870E+03  0.00000000000E+00 0.  1.
         21   -1    0    0  502  503 -0.00000000000E+00 -0.00000000000E+00 -0.16518949587E+03  0.16518949587E+03  0.00000000000E+00 0.  1.
         -6    2    1    2    0  503 -0.12854166322E+03  0.67252402083E+02  0.30113948230E+02  0.22735687200E+03  0.17244840562E+03 0.  0.
        -24    2    3    3    0    0 -0.14522196577E+02  0.33553742061E+01  0.48798579893E+02  0.95241489076E+02  0.80420688336E+02 0.  0.
          6    2    1    2  501    0  0.12854166322E+03 -0.67252402083E+02  0.12148729459E+03  0.25462336257E+03  0.17037619918E+03 0.  0.
         24    2    5    5    0    0  0.72291806200E+02 -0.80146820275E+02  0.14025085869E+03  0.19375897419E+03  0.78883576687E+02 0.  0.
          5    1    5    5  501    0  0.56249857022E+02  0.12894418192E+02 -0.18763564096E+02  0.60864388382E+02  0.47000000000E+01 0. -1.
        -13    1    6    6    0    0  0.40039266778E+02 -0.42551451914E+01  0.86261764226E+02  0.95196329300E+02  0.00000000000E+00 0.  1.
         14    1    6    6    0    0  0.32252539422E+02 -0.75891675084E+02  0.53989094465E+02  0.98562644888E+02  0.00000000000E+00 0. -1.
         -5    1    3    3    0  503 -0.11401946665E+03  0.63897027877E+02 -0.18684631663E+02  0.13211538293E+03  0.47000000000E+01 0.  1.
         13    1    4    4    0    0 -0.71113442272E+01 -0.18604386647E+02  0.64329572135E+02  0.67342321539E+02  0.00000000000E+00 0. -1.
        -14    1    4    4    0    0 -0.74108523493E+01  0.21959760853E+02 -0.15530992241E+02  0.27899167537E+02  0.00000000000E+00 0.  1.
</event>
<event>
12    1  0.1046899E+000  0.1735743E+03  0.7818608E-02  0.1174299E+00
         21   -1    0    0  501  502  0.00000000000E+00  0.00000000000E+00  0.30282505610E+03  0.30282505610E+03  0.00000000000E+00 0. -1.
         21   -1    0    0  502  503 -0.00000000000E+00 -0.00000000000E+00 -0.10257348628E+03  0.10257348628E+03  0.00000000000E+00 0. -1.
         -6    2    1    2    0  503  0.99762320671E+01 -0.21843180444E+02  0.13674094025E+03  0.22056985619E+03  0.17139523617E+03 0.  0.
        -24    2    3    3    0    0  0.21285980316E+01  0.33980062448E+02  0.13907138518E+03  0.16395412710E+03  0.79880723854E+02 0.  0.
          6    2    1    2  501    0 -0.99762320671E+01  0.21843180444E+02  0.63510629569E+02  0.18482868619E+03  0.17190518734E+03 0.  0.
         24    2    5    5    0    0 -0.15331699435E+01 -0.16325460764E+02 -0.27595309590E+02  0.85578937480E+02  0.79330839840E+02 0.  0.
          5    1    5    5  501    0 -0.84430621236E+01  0.38168641208E+02  0.91105939159E+02  0.99249748713E+02  0.47000000000E+01 0. -1.
        -11    1    6    6    0    0  0.78901103224E+01  0.14066703263E+02  0.21620055814E+02  0.26973186593E+02  0.00000000000E+00 0.  1.
         12    1    6    6    0    0 -0.94232802659E+01 -0.30392164027E+02 -0.49215365404E+02  0.58605750887E+02  0.00000000000E+00 0. -1.
         -5    1    3    3    0  503  0.78476340356E+01 -0.55823242892E+02 -0.23304449298E+01  0.56615729091E+02  0.47000000000E+01 0.  1.
         13    1    4    4    0    0  0.39882609057E+02  0.78284828040E+01  0.58950323207E+02  0.71603409517E+02  0.00000000000E+00 0. -1.
        -14    1    4    4    0    0 -0.37754011025E+02  0.26151579644E+02  0.80121061974E+02  0.92350717583E+02  0.00000000000E+00 0.  1.
</event>
<event>
12    1  0.1046899E+000  0.1798121E+03  0.7818608E-02  0.1168556E+00
         21   -1    0    0  501  502  0.00000000000E+00  0.00000000000E+00  0.95839413288E+02  0.95839413288E+02  0.00000000000E+00 0.  1.
         21   -1    0    0  502  503 -0.00000000000E+00 -0.00000000000E+00 -0.57305368827E+03  0.57305368827E+03  0.00000000000E+00 0.  1.
         -6    2    1    2    0  503 -0.40423321966E+02  0.21481950541E+02 -0.45416680783E+03  0.48760995348E+03  0.17146561825E+03 0.  0.
        -24    2    3    3    0    0  0.20096637053E+02 -0.37978545448E+02 -0.21001474553E+03  0.22909392777E+03  0.80818250832E+02 0.  0.
          6    2    1    2  501    0  0.40423321966E+02 -0.21481950541E+02 -0.23047467158E+02  0.18128314808E+03  0.17388753514E+03 0.  0.
         24    2    5    5    0    0  0.16667621564E+02  0.18853087219E+01  0.53583372863E+02  0.97588836750E+02  0.79818789851E+02 0.  0.
          5    1    5    5  501    0  0.23755700402E+02 -0.23367259263E+02 -0.76630840020E+02  0.83694311332E+02  0.47000000000E+01 0. -1.
        -13    1    6    6    0    0 -0.31854326921E+02  0.71088995095E+01  0.24105110062E+02  0.40574510803E+02  0.00000000000E+00 0.  1.
         14    1    6    6    0    0  0.48521948485E+02 -0.52235907876E+01  0.29478262801E+02  0.57014325947E+02  0.00000000000E+00 0. -1.
         -5    1    3    3    0  503 -0.60519959019E+02  0.59460495989E+02 -0.24415206230E+03  0.25851602571E+03  0.47000000000E+01 0.  1.
         11    1    4    4    0    0  0.20182690051E+02 -0.31722471650E+02 -0.27770840428E+02  0.46742654646E+02  0.00000000000E+00 0. -1.
        -12    1    4    4    0    0 -0.86052997720E-01 -0.62560737978E+01 -0.18224390510E+03  0.18235127313E+03  0.00000000000E+00 0.  1.
</event>
<event>
12    1  0.1046899E+000  0.2074355E+03  0.7818608E-02  0.1143618E+00
         21   -1    0    0  501  502  0.00000000000E+00  0.00000000000E+00  0.18350942326E+03  0.18350942326E+03  0.00000000000E+00 0.  1.
         21   -1    0    0  502  503 -0.00000000000E+00 -0.00000000000E+00 -0.25161320872E+03  0.25161320872E+03  0.00000000000E+00 0.  1.
         -6    2    1    2    0  503 -0.27620044051E+02  0.11264081233E+03 -0.90870378131E+02  0.22646610132E+03  0.17198444694E+03 0.  0.
        -24    2    3    3    0    0 -0.52616362666E+02  0.11544976085E+03 -0.20072242164E+02  0.15118547836E+03  0.79730954235E+02 0.  0.
          6    2    1    2  501    0  0.27620044051E+02 -0.11264081233E+03  0.22766592670E+02  0.20865653065E+03  0.17195467602E+03 0.  0.
         24    2    5    5    0    0 -0.92491424813E+01 -0.10433490996E+02 -0.27828180354E+02  0.88708231339E+02  0.83068275018E+02 0.  0.
          5    1    5    5  501    0  0.36869186532E+02 -0.10220732134E+03  0.50594773024E+02  0.11994829931E+03  0.47000000000E+01 0. -1.
        -11    1    6    6    0    0 -0.37322333638E+02 -0.41822351026E+01 -0.42254442432E+02  0.56532164153E+02  0.00000000000E+00 0.  1.
         12    1    6    6    0    0  0.28073191157E+02 -0.62512558931E+01  0.14426262078E+02  0.32176067185E+02  0.00000000000E+00 0. -1.
         -5    1    3    3    0  503  0.24996318615E+02 -0.28089485119E+01 -0.70798135967E+02  0.75280622954E+02  0.47000000000E+01 0.  1.
         11    1    4    4    0    0 -0.46510328699E+02  0.11061814329E+03 -0.42611317502E+02  0.12733934459E+03  0.00000000000E+00 0. -1.
        -12    1    4    4    0    0 -0.61060339672E+01  0.48316175553E+01  0.22539075338E+02  0.23846133777E+02  0.00000000000E+00 0.  1.
</event>
<event>
12    1  0.1046899E+000  0.2327429E+03  0.7818608E-02  0.1124756E+00
         21   -1    0    0  501  502  0.00000000000E+00  0.00000000000E+00  0.34540070410E+03  0.34540070410E+03  0.00000000000E+00 0. -1.
         21   -1    0    0  502  503 -0.00000000000E+00 -0.00000000000E+00 -0.21543176490E+03  0.21543176490E+03  0.00000000000E+00 0. -1.
         -6    2    1    2    0  503  0.32450751019E+02 -0.15315527075E+03 -0.81404223842E+02  0.24656825584E+03  0.17221982734E+03 0.  0.
        -24    2    3    3    0    0  0.84139650875E+02 -0.13441124942E+03 -0.61866985881E+02  0.18802874465E+03  0.79883790917E+02 0.  0.
          6    2    1    2  501    0 -0.32450751019E+02  0.15315527075E+03  0.21137316304E+03  0.31426421315E+03  0.17197032713E+03 0.  0.
         24    2    5    5    0    0 -0.27145989799E+02  0.16095798291E+03  0.10997587608E+03  0.21232049038E+03  0.79629895721E+02 0.  0.
          5    1    5    5  501    0 -0.53047612200E+01 -0.78027121567E+01  0.10139728696E+03  0.10194372277E+03  0.47000000000E+01 0. -1.
        -13    1    6    6    0    0 -0.19923440871E+02  0.15069772393E+03  0.12202251666E+03  0.19492624776E+03  0.00000000000E+00 0.  1.
         14    1    6    6    0    0 -0.72225489287E+01  0.10260258983E+02 -0.12046640576E+02  0.17394242628E+02  0.00000000000E+00 0. -1.
         -5    1    3    3    0  503 -0.51688899855E+02 -0.18744021331E+02 -0.19537237960E+02  0.58539511196E+02  0.47000000000E+01 0.  1.
         13    1    4    4    0    0 -0.78950511697E+01  0.55906951091E+01 -0.81619705804E+00  0.97084438718E+01  0.00000000000E+00 0. -1.
        -14    1    4    4    0    0  0.92034702044E+02 -0.14000194453E+03 -0.61050788823E+02  0.17832030078E+03  0.00000000000E+00 0.  1.
</event>
<event>
12    1  0.1046899E+000  0.2289424E+03  0.7818608E-02  0.1127617E+00
         21   -1    0    0  501  502  0.00000000000E+00  0.00000000000E+00  0.24320382136E+03  0.24320382136E+03  0.00000000000E+00 0.  1.
         21   -1    0    0  502  503 -0.00000000000E+00 -0.00000000000E+00 -0.25214876861E+03  0.25214876861E+03  0.00000000000E+00 0.  1.
         -6    2    1    2    0  503 -0.76411325199E+02  0.12972966317E+03  0.91477359494E+02  0.24654154129E+03  0.17247071681E+03 0.  0.
        -24    2    3    3    0    0 -0.10004239754E+03  0.67604874601E+02  0.28497578524E+02  0.15485479336E+03  0.92676829201E+02 0.  0.
          6    2    1    2  501    0  0.76411325199E+02 -0.12972966317E+03 -0.10042230674E+03  0.24881104867E+03  0.17074490365E+03 0.  0.
         24    2    5    5    0    0  0.98011792368E+02 -0.13981771097E+03 -0.11531018483E+03  0.22031389435E+03  0.78015829013E+02 0.  0.
          5    1    5    5  501    0 -0.21600467169E+02  0.10088047794E+02  0.14887878082E+02  0.28497154314E+02  0.47000000000E+01 0. -1.
        -13    1    6    6    0    0  0.55886657911E+02 -0.26065857022E+02 -0.63176866868E+02  0.88283995957E+02  0.00000000000E+00 0.  1.
         14    1    6    6    0    0  0.42125134457E+02 -0.11375185395E+03 -0.52133317958E+02  0.13202989840E+03  0.00000000000E+00 0. -1.
         -5    1    3    3    0  503  0.23631072341E+02  0.62124788573E+02  0.62979780969E+02  0.91686747931E+02  0.47000000000E+01 0.  1.
         13    1    4    4    0    0 -0.16764819196E+02 -0.49334332636E+01 -0.26292864494E+02  0.31570756243E+02  0.00000000000E+00 0. -1.
        -14    1    4    4    0    0 -0.83277578344E+02  0.72538307864E+02  0.54790443018E+02  0.12328403712E+03  0.00000000000E+00 0.  1.
</event>
<event>
12    1  0.1046899E+000  0.5265686E+03  0.7818608E-02  0.1007080E+00
         21   -1    0    0  503  502  0.00000000000E+00  0.00000000000E+00  0.33210451866E+03  0.33210451866E+03  0.00000000000E+00 0. -1.
         21   -1    0    0  501  503 -0.00000000000E+00 -0.00000000000E+00 -0.97505006473E+03  0.97505006473E+03  0.00000000000E+00 0.  1.
          6    2    1    2  501    0 -0.10954123623E+03  0.48555769192E+03 -0.56948329046E+03  0.77548622761E+03  0.17117860991E+03 0.  0.
         24    2    3    3    0    0 -0.10208230000E+03  0.19901814965E+03 -0.29214064156E+03  0.37661083365E+03  0.80377519915E+02 0.  0.
         -6    2    1    2    0  502  0.10954123623E+03 -0.48555769192E+03 -0.73462255607E+02  0.53166835578E+03  0.17178178869E+03 0.  0.
        -24    2    5    5    0    0  0.14204706854E+03 -0.36813891116E+03 -0.40326145511E+02  0.40532006334E+03  0.83393813606E+02 0.  0.
          5    1    3    3  501    0 -0.74589362276E+01  0.28653954226E+03 -0.27734264890E+03  0.39887539396E+03  0.47000000000E+01 0. -1.
        -11    1    4    4    0    0 -0.10525832332E+03  0.19707829001E+03 -0.25397389253E+03  0.33826307086E+03  0.00000000000E+00 0.  1.
         12    1    4    4    0    0  0.31760233239E+01  0.19398596455E+01 -0.38166749025E+02  0.38347762787E+02  0.00000000000E+00 0. -1.
         -5    1    5    5    0  502 -0.32505832312E+02 -0.11741878076E+03 -0.33136110095E+02  0.12634829243E+03  0.47000000000E+01 0.  1.
         11    1    6    6    0    0  0.16650080269E+02 -0.30167680048E+01  0.15916352963E+01  0.16995863176E+02  0.00000000000E+00 0. -1.
        -12    1    6    6    0    0  0.12539698827E+03 -0.36512214316E+03 -0.41917780808E+02  0.38832420017E+03  0.00000000000E+00 0.  1.
</event>
<event>
12    1  0.1046899E+000  0.3177677E+03  0.7818608E-02  0.1076711E+00
         21   -1    0    0  503  502  0.00000000000E+00  0.00000000000E+00  0.37173685999E+03  0.37173685999E+03  0.00000000000E+00 0.  1.
         21   -1    0    0  501  503 -0.00000000000E+00 -0.00000000000E+00 -0.34530653088E+03  0.34530653088E+03  0.00000000000E+00 0.  1.
          6    2    1    2  501    0  0.10948291427E+03  0.24459511430E+03 -0.15263014423E+03  0.35252269838E+03  0.17077181701E+03 0.  0.
         24    2    3    3    0    0  0.91824842153E+02  0.14435313452E+03 -0.39134022063E+02  0.19999820274E+03  0.95907144335E+02 0.  0.
         -6    2    1    2    0  502 -0.10948291427E+03 -0.24459511430E+03  0.17906047334E+03  0.36452069249E+03  0.17029211281E+03 0.  0.
        -24    2    5    5    0    0 -0.62146559142E+02 -0.24131444710E+03  0.11478190085E+03  0.28448746080E+03  0.75255387828E+02 0.  0.
          5    1    3    3  501    0  0.17658072115E+02  0.10024197978E+03 -0.11349612217E+03  0.15252449563E+03  0.47000000000E+01 0. -1.
        -13    1    4    4    0    0  0.76921371680E+01 -0.13435534648E+02  0.41271860773E+01  0.16022366567E+02  0.00000000000E+00 0.  1.
         14    1    4    4    0    0  0.84132704985E+02  0.15778866917E+03 -0.43261208140E+02  0.18397583618E+03  0.00000000000E+00 0. -1.
         -5    1    5    5    0  502 -0.47336355126E+02 -0.32806672059E+01  0.64278572493E+02  0.80033231695E+02  0.47000000000E+01 0.  1.
         11    1    6    6    0    0 -0.74879326950E+02 -0.15854701440E+03  0.90383749820E+02  0.19726452192E+03  0.00000000000E+00 0. -1.
        -12    1    6    6    0    0  0.12732767808E+02 -0.82767432702E+02  0.24398151030E+02  0.87222938874E+02  0.00000000000E+00 0.  1.
</event>
<event>
12    1  0.1046899E+000  0.2643277E+03  0.7818608E-02  0.1104806E+00
         21   -1    0    0  503  502  0.00000000000E+00  0.00000000000E+00  0.19801285538E+04  0.19801285538E+04  0.00000000000E+00 0.  1.
         21   -1    0    0  501  503 -0.00000000000E+00 -0.00000000000E+00 -0.67317864426E+02  0.67317864426E+02  0.00000000000E+00 0. -1.
          6    2    1    2  501    0  0.11151523657E+03 -0.16562955334E+03  0.24638581306E+03  0.36018798452E+03  0.17076480430E+03 0.  0.
         24    2    3    3    0    0  0.94542581488E+01 -0.12642695499E+03  0.17282353564E+03  0.22832902315E+03  0.78695682191E+02 0.  0.
         -6    2    1    2    0  502 -0.11151523657E+03  0.16562955334E+03  0.16664248764E+04  0.16872584338E+04  0.17320611072E+03 0.  0.
        -24    2    5    5    0    0 -0.14434973706E+03  0.15578752306E+03  0.13515042800E+04  0.13704429639E+04  0.80271410073E+02 0.  0.
          5    1    3    3  501    0  0.10206097842E+03 -0.39202598345E+02  0.73562277415E+02  0.13185896137E+03  0.47000000000E+01 0. -1.
        -11    1    4    4    0    0 -0.30515461182E+02 -0.24816028923E+02  0.55883602149E+02  0.68337439606E+02  0.00000000000E+00 0.  1.
         12    1    4    4    0    0  0.39969719331E+02 -0.10161092607E+03  0.11693993349E+03  0.15999158354E+03  0.00000000000E+00 0. -1.
         -5    1    5    5    0  502  0.32834500482E+02  0.98420302785E+01  0.31492059631E+03  0.31681546989E+03  0.47000000000E+01 0.  1.
         11    1    6    6    0    0 -0.26615625579E+02  0.85918086141E+02  0.56389019916E+03  0.57101879633E+03  0.00000000000E+00 0. -1.
        -12    1    6    6    0    0 -0.11773411148E+03  0.69869436917E+02  0.78761408089E+03  0.79942416753E+03  0.00000000000E+00 0.  1.
</event>
<event>
12    1  0.1046899E+000  0.1842785E+03  0.7818608E-02  0.1165645E+00
         21   -1    0    0  503  502  0.00000000000E+00  0.00000000000E+00  0.59538720187E+03  0.59538720187E+03  0.00000000000E+00 0.  1.
         21   -1    0    0  501  503 -0.00000000000E+00 -0.00000000000E+00 -0.79930406051E+02  0.79930406051E+02  0.00000000000E+00 0.  1.
          6    2    1    2  501    0  0.13893716449E+02  0.46250879027E+02  0.44391474793E+03  0.47763898297E+03  0.16954797390E+03 0.  0.
         24    2    3    3    0    0 -0.22450097980E+02  0.80808724980E+02  0.21975024622E+03  0.24788491578E+03  0.78247708108E+02 0.  0.
         -6    2    1    2    0  502 -0.13893716449E+02 -0.46250879027E+02  0.71542047894E+02  0.19767862496E+03  0.17783811453E+03 0.  0.
        -24    2    5    5    0    0  0.70031347126E+00 -0.80355209615E+02  0.99884862337E+02  0.15075852047E+03  0.79332815532E+02 0.  0.
          5    1    3    3  501    0  0.36343814428E+02 -0.34557845954E+02  0.22416450171E+03  0.22975406719E+03  0.47000000000E+01 0. -1.
        -13    1    4    4    0    0  0.14844608661E+02  0.10230098195E+02  0.48968157156E+01  0.18681437834E+02  0.00000000000E+00 0.  1.
         14    1    4    4    0    0 -0.37294706640E+02  0.70578626785E+02  0.21485343050E+03  0.22920347794E+03  0.00000000000E+00 0. -1.
         -5    1    5    5    0  502 -0.14594029920E+02  0.34104330588E+02 -0.28342814443E+02  0.46920104483E+02  0.47000000000E+01 0.  1.
         11    1    6    6    0    0  0.34644802865E+01 -0.79449320483E+02  0.36834658436E+02  0.87641252906E+02  0.00000000000E+00 0. -1.
        -12    1    6    6    0    0 -0.27641668152E+01 -0.90588913200E+00  0.63050203901E+02  0.63117267568E+02  0.00000000000E+00 0.  1.
</event>
<event>
12    1  0.1046899E+000  0.3036311E+03  0.7818608E-02  0.1083450E+00
         21   -1    0    0  503  502  0.00000000000E+00  0.00000000000E+00  0.12219242940E+04  0.12219242940E+04  0.00000000000E+00 0. -1.
         21   -1    0    0  501  503 -0.00000000000E+00 -0.00000000000E+00 -0.75754986670E+02  0.75754986670E+02  0.00000000000E+00 0.  1.
          6    2    1    2  501    0 -0.24781125357E+03  0.10896659343E+02  0.53031390451E+03  0.61104273188E+03  0.17496064782E+03 0.  0.
         24    2    3    3    0    0 -0.19928271970E+03  0.36580372791E+02  0.27337146281E+03  0.34825730595E+03  0.74158400881E+02 0.  0.
         -6    2    1    2    0  502  0.24781125357E+03 -0.10896659343E+02  0.61585540281E+03  0.68663654878E+03  0.17510773362E+03 0.  0.
        -24    2    5    5    0    0  0.16123957857E+03  0.40924787457E+02  0.50021848718E+03  0.53309794283E+03  0.79384140805E+02 0.  0.
          5    1    3    3  501    0 -0.48528533863E+02 -0.25683713448E+02  0.25694244170E+03  0.26278542593E+03  0.47000000000E+01 0. -1.
        -13    1    4    4    0    0 -0.18631841863E+03  0.10952692510E+02  0.22935247594E+03  0.29569760367E+03  0.00000000000E+00 0.  1.
         14    1    4    4    0    0 -0.12964301074E+02  0.25627680281E+02  0.44018986873E+02  0.52559702284E+02  0.00000000000E+00 0. -1.
         -5    1    5    5    0  502  0.86571674997E+02 -0.51821446800E+02  0.11563691563E+03  0.15353860595E+03  0.47000000000E+01 0.  1.
         13    1    6    6    0    0  0.12526987341E+03 -0.18594604325E+01  0.38806873125E+03  0.40779080292E+03  0.00000000000E+00 0. -1.
        -14    1    6    6    0    0  0.35969705160E+02  0.42784247889E+02  0.11214975593E+03  0.12530713991E+03  0.00000000000E+00 0.  1.
</event>
<event>
12    1  0.1046899E+000  0.6286771E+03  0.7818608E-02  0.9847652E-01
         21   -1    0    0  503  502  0.00000000000E+00  0.00000000000E+00  0.20689393250E+03  0.20689393250E+03  0.00000000000E+00 0. -1.
         21   -1    0    0  501  503 -0.00000000000E+00 -0.00000000000E+00 -0.29516255477E+04  0.29516255477E+04  0.00000000000E+00 0. -1.
          6    2    1    2  501    0 -0.12367029244E+03  0.59172060919E+03 -0.43432382791E+03  0.76411526080E+03  0.17264797631E+03 0.  0.
         24    2    3    3    0    0 -0.10952617583E+03  0.31284249546E+03 -0.30823169122E+03  0.45769336979E+03  0.67897239441E+02 0.  0.
         -6    2    1    2    0  502  0.12367029244E+03 -0.59172060919E+03 -0.23104077873E+04  0.23944042194E+04  0.17251029463E+03 0.  0.
        -24    2    5    5    0    0  0.14104956187E+03 -0.50608541739E+03 -0.21062744568E+04  0.21723052962E+04  0.80627438510E+02 0.  0.
          5    1    3    3  501    0 -0.14144116604E+02  0.27887811373E+03 -0.12609213669E+03  0.30642189101E+03  0.47000000000E+01 0. -1.
        -11    1    4    4    0    0 -0.27874122672E+02  0.55194352135E+02 -0.26477223135E+02  0.67263857808E+02  0.00000000000E+00 0.  1.
         12    1    4    4    0    0 -0.81652053163E+02  0.25764814332E+03 -0.28175446808E+03  0.39042951198E+03  0.00000000000E+00 0. -1.
         -5    1    5    5    0  502 -0.17379269433E+02 -0.85635191802E+02 -0.20413333051E+03  0.22209892325E+03  0.47000000000E+01 0.  1.
         11    1    6    6    0    0  0.10326232072E+02 -0.17838200915E+03 -0.71889608360E+03  0.74076875695E+03  0.00000000000E+00 0. -1.
        -12    1    6    6    0    0  0.13072332980E+03 -0.32770340823E+03 -0.13873783732E+04  0.14315365392E+04  0.00000000000E+00 0.  1.
</event>
<event>
12    1  0.1046899E+000  0.2052014E+03  0.7818608E-02  0.1145507E+00
         21   -1    0    0  503  502  0.00000000000E+00  0.00000000000E+00  0.15411713724E+03  0.15411713724E+03  0.00000000000E+00 0.  1.
         21   -1    0    0  501  503 -0.00000000000E+00 -0.00000000000E+00 -0.31060504816E+03  0.31060504816E+03  0.00000000000E+00 0. -1.
          6    2    1    2  501    0 -0.10163105146E+03  0.43199904868E+02  0.28887470178E+01  0.20522171136E+03  0.17295231583E+03 0.  0.
         24    2    3    3    0    0 -0.12986627678E+03  0.31642350455E+02 -0.31166698397E+02  0.15925793893E+03  0.80778956643E+02 0.  0.
         -6    2    1    2    0  502  0.10163105146E+03 -0.43199904868E+02 -0.15937665793E+03  0.25950047404E+03  0.17246586484E+03 0.  0.
        -24    2    5    5    0    0 -0.97381659739E+00 -0.64071053121E+02 -0.66905289899E+02  0.11972777398E+03  0.75844405714E+02 0.  0.
          5    1    3    3  501    0  0.28235225322E+02  0.11557554413E+02  0.34055445415E+02  0.45963772424E+02  0.47000000000E+01 0. -1.
        -11    1    4    4    0    0 -0.76843059322E+02  0.20714334696E+02  0.22829524485E+02  0.82795692014E+02  0.00000000000E+00 0.  1.
         12    1    4    4    0    0 -0.53023217462E+02  0.10928015759E+02 -0.53996222882E+02  0.76462246919E+02  0.00000000000E+00 0. -1.
         -5    1    5    5    0  502  0.10260486806E+03  0.20871148252E+02 -0.92471368031E+02  0.13977270007E+03  0.47000000000E+01 0.  1.
         13    1    6    6    0    0 -0.11393097335E+02  0.15140633229E+02 -0.17491637677E+02  0.25787571233E+02  0.00000000000E+00 0. -1.
        -14    1    6    6    0    0  0.10419280738E+02 -0.79211686350E+02 -0.49413652222E+02  0.93940202743E+02  0.00000000000E+00 0.  1.
</event>
<event>
12    1  0.1046899E+000  0.2152061E+03  0.7818608E-02  0.1137765E+00
         21   -1    0    0  503  502  0.00000000000E+00  0.00000000000E+00  0.76397499676E+03  0.76397499676E+03  0.00000000000E+00 0.  1.
         21   -1    0    0  501  503 -0.00000000000E+00 -0.00000000000E+00 -0.62005024951E+02  0.62005024951E+02  0.00000000000E+00 0.  1.
          6    2    1    2  501    0 -0.92703080654E+02  0.89875309654E+02  0.42158398388E+03  0.47333571846E+03  0.17216914491E+03 0.  0.
         24    2    3    3    0    0 -0.21882342164E+02  0.12013651926E+02  0.94319776781E+02  0.12953059053E+03  0.85198526159E+02 0.  0.
         -6    2    1    2    0  502  0.92703080654E+02 -0.89875309654E+02  0.28038598792E+03  0.35264430324E+03  0.17050005847E+03 0.  0.
        -24    2    5    5    0    0  0.92097227675E+02 -0.15500580864E+02  0.10057316595E+03  0.15799922037E+03  0.78272757563E+02 0.  0.
          5    1    3    3  501    0 -0.70820738489E+02  0.77861657728E+02  0.32726420710E+03  0.34380512793E+03  0.47000000000E+01 0. -1.
        -11    1    4    4    0    0  0.19119625788E+02  0.18661697783E+02  0.81942755195E+02  0.86188364547E+02  0.00000000000E+00 0.  1.
         12    1    4    4    0    0 -0.41001967953E+02 -0.66480458569E+01  0.12377021586E+02  0.43342225982E+02  0.00000000000E+00 0. -1.
         -5    1    5    5    0  502  0.60585297852E+00 -0.74374728791E+02  0.17981282197E+03  0.19464508287E+03  0.47000000000E+01 0.  1.
         11    1    6    6    0    0  0.58140662651E+02 -0.33211418380E+02  0.99192424658E+02  0.11967653101E+03  0.00000000000E+00 0. -1.
        -12    1    6    6    0    0  0.33956565024E+02  0.17710837516E+02  0.13807412941E+01  0.38322689367E+02  0.00000000000E+00 0.  1.
</event>
<event>
12    1  0.1046899E+000  0.3251033E+03  0.7818608E-02  0.1073550E+00
         21   -1    0    0  503  502  0.00000000000E+00  0.00000000000E+00  0.33863568741E+03  0.33863568741E+03  0.00000000000E+00 0. -1.
         21   -1    0    0  501  503 -0.00000000000E+00 -0.00000000000E+00 -0.36702699790E+03  0.36702699790E+03  0.00000000000E+00 0. -1.
          6    2    1    2  501    0  0.83404139559E+02 -0.26172719549E+03  0.12467246502E+03  0.34632901801E+03  0.17012698149E+03 0.  0.
         24    2    3    3    0    0  0.28279116107E+02 -0.21042428355E+03  0.39722384535E+02  0.23270963957E+03  0.86589958996E+02 0.  0.
         -6    2    1    2    0  502 -0.83404139559E+02  0.26172719549E+03 -0.15306377551E+03  0.35933366729E+03  0.17388153934E+03 0.  0.
        -24    2    5    5    0    0 -0.10184822768E+03  0.11237456898E+03 -0.10676258201E+03  0.20181451940E+03  0.79559701420E+02 0.  0.
          5    1    3    3  501    0  0.55125023451E+02 -0.51302911937E+02  0.84950080483E+02  0.11361937844E+03  0.47000000000E+01 0. -1.
        -13    1    4    4    0    0  0.52590071343E+02 -0.13788755412E+03  0.49338852636E+02  0.15560531985E+03  0.00000000000E+00 0.  1.
         14    1    4    4    0    0 -0.24310955235E+02 -0.72536729431E+02 -0.96164681016E+01  0.77104319722E+02  0.00000000000E+00 0. -1.
         -5    1    5    5    0  502  0.18444088122E+02  0.14935262651E+03 -0.46301193495E+02  0.15751914789E+03  0.47000000000E+01 0.  1.
         11    1    6    6    0    0  0.94952989936E+01  0.15910976874E+02  0.20864141002E+01  0.18645991845E+02  0.00000000000E+00 0. -1.
        -12    1    6    6    0    0 -0.11134352667E+03  0.96463592103E+02 -0.10884899611E+03  0.18316852756E+03  0.00000000000E+00 0.  1.
</event>
<event>
12    1  0.1046899E+000  0.1859072E+03  0.7818608E-02  0.1162317E+00
         21   -1    0    0  503  502  0.00000000000E+00  0.00000000000E+00  0.72118590347E+03  0.72118590347E+03  0.00000000000E+00 0. -1.
         21   -1    0    0  501  503 -0.00000000000E+00 -0.00000000000E+00 -0.65370725795E+02  0.65370725795E+02  0.00000000000E+00 0. -1.
          6    2    1    2  501    0 -0.41662584284E+02 -0.55323612008E+02  0.12370113314E+03  0.22290174477E+03  0.17200797803E+03 0.  0.
         24    2    3    3    0    0 -0.46474138513E+02 -0.98140042085E+02  0.12685067888E+03  0.17944593530E+03  0.65714804661E+02 0.  0.
         -6    2    1    2    0  502  0.41662584284E+02  0.55323612008E+02  0.53211404454E+03  0.56365488449E+03  0.17252535885E+03 0.  0.
        -24    2    5    5    0    0 -0.14108669712E+02 -0.42182576313E+01  0.12001042943E+03  0.14352734838E+03  0.77335297918E+02 0.  0.
          5    1    3    3  501    0  0.48115542293E+01  0.42816430078E+02 -0.31495457392E+01  0.43455809474E+02  0.47000000000E+01 0. -1.
        -11    1    4    4    0    0  0.12841274829E+02 -0.11186391827E+01  0.93139407593E+01  0.15902804323E+02  0.00000000000E+00 0.  1.
         12    1    4    4    0    0 -0.59315413342E+02 -0.97021402903E+02  0.11753673812E+03  0.16354313097E+03  0.00000000000E+00 0. -1.
         -5    1    5    5    0  502  0.55771253996E+02  0.59541869639E+02  0.41210361511E+03  0.42012753611E+03  0.47000000000E+01 0.  1.
         13    1    6    6    0    0  0.16752946131E+02 -0.10441683992E+02  0.10806693497E+03  0.10985514281E+03  0.00000000000E+00 0. -1.
        -14    1    6    6    0    0 -0.30861615843E+02  0.62234263606E+01  0.11943494456E+02  0.33672205570E+02  0.00000000000E+00 0.  1.
</event>
<event>
12    1  0.1046899E+000  0.1978371E+03  0.7818608E-02  0.1154579E+00
         21   -1    0    0  503  502  0.00000000000E+00  0.00000000000E+00  0.18248003847E+03  0.18248003847E+03  0.00000000000E+00 0. -1.
         21   -1    0    0  501  503 -0.00000000000E+00 -0.00000000000E+00 -0.23007762329E+03  0.23007762329E+03  0.00000000000E+00 0. -1.
          6    2    1    2  501    0 -0.55325227419E+02  0.40792782758E+02  0.49904367104E+02  0.20403422130E+03  0.18551168613E+03 0.  0.
         24    2    3    3    0    0 -0.10456766217E+03 -0.22878129846E+01  0.37312226595E+02  0.13724045578E+03  0.80641864992E+02 0.  0.
         -6    2    1    2    0  502  0.55325227419E+02 -0.40792782758E+02 -0.97501951923E+02  0.20852344047E+03  0.17102766642E+03 0.  0.
        -24    2    5    5    0    0 -0.18769573483E+02 -0.60760936438E+02 -0.84646388292E+02  0.13057395556E+03  0.76422238471E+02 0.  0.
          5    1    3    3  501    0  0.49242434749E+02  0.43080595742E+02  0.12592140509E+02  0.66793765518E+02  0.47000000000E+01 0. -1.
        -13    1    4    4    0    0 -0.43794160097E+02  0.25457724295E+02  0.47760370287E+02  0.69620953418E+02  0.00000000000E+00 0.  1.
         14    1    4    4    0    0 -0.60773502071E+02 -0.27745537279E+02 -0.10448143692E+02  0.67619502361E+02  0.00000000000E+00 0. -1.
         -5    1    5    5    0  502  0.74094800903E+02  0.19968153681E+02 -0.12855563630E+02  0.77949484915E+02  0.47000000000E+01 0.  1.
         13    1    6    6    0    0 -0.69056099967E+00  0.51505579774E+00  0.13466436681E+02  0.13493964349E+02  0.00000000000E+00 0. -1.
        -14    1    6    6    0    0 -0.18079012483E+02 -0.61275992236E+02 -0.98112824973E+02  0.11707999121E+03  0.00000000000E+00 0.  1.
</event>
<event>
12    1  0.1046899E+000  0.2657661E+03  0.7818608E-02  0.1103791E+00
         21   -1    0    0  503  502  0.00000000000E+00  0.00000000000E+00  0.33781939748E+03  0.33781939748E+03  0.00000000000E+00 0.  1.
         21   -1    0    0  501  503 -0.00000000000E+00 -0.00000000000E+00 -0.26859208370E+03  0.26859208370E+03  0.00000000000E+00 0.  1.
          6    2    1    2  501    0  0.19355672986E+03 -0.56789027733E+02  0.17776903598E+03  0.31973961852E+03  0.17303870131E+03 0.  0.
         24    2    3    3    0    0  0.16145625327E+03 -0.62034913551E+02  0.65276002185E+02  0.20254434315E+03  0.82745406300E+02 0.  0.
         -6    2    1    2    0  502 -0.19355672986E+03  0.56789027733E+02 -0.10854172220E+03  0.28667186265E+03  0.17236661519E+03 0.  0.
        -24    2    5    5    0    0 -0.20425954955E+03  0.81745223353E+02 -0.78059284092E+02  0.24557890605E+03  0.76233208895E+02 0.  0.
          5    1    3    3  501    0  0.32100476594E+02  0.52458858180E+01  0.11249303380E+03  0.11719527537E+03  0.47000000000E+01 0. -1.
        -13    1    4    4    0    0  0.83315643113E+02  0.11692422273E+02  0.24403957063E+02  0.87600012822E+02  0.00000000000E+00 0.  1.
         14    1    4    4    0    0  0.78140610153E+02 -0.73727335824E+02  0.40872045123E+02  0.11494433033E+03  0.00000000000E+00 0. -1.
         -5    1    5    5    0  502  0.10702819695E+02 -0.24956195619E+02 -0.30482438111E+02  0.41092956603E+02  0.47000000000E+01 0.  1.
         13    1    6    6    0    0 -0.87834448626E+02 -0.27355735761E+01 -0.41365389925E+02  0.97126048061E+02  0.00000000000E+00 0. -1.
        -14    1    6    6    0    0 -0.11642510093E+03  0.84480796929E+02 -0.36693894167E+02  0.14845285799E+03  0.00000000000E+00 0.  1.
</event>
<event>
12    1  0.1046899E+000  0.2122180E+03  0.7818608E-02  0.1139895E+00
         21   -1    0    0  501  502  0.00000000000E+00  0.00000000000E+00  0.15157042085E+03  0.15157042085E+03  0.00000000000E+00 0.  1.
         21   -1    0    0  502  503 -0.00000000000E+00 -0.00000000000E+00 -0.32355635668E+03  0.32355635668E+03  0.00000000000E+00 0.  1.
         -6    2    1    2    0  503 -0.75604897514E+02  0.97962319933E+02 -0.17357316025E+02  0.21255013070E+03  0.17194058562E+03 0.  0.
        -24    2    3    3    0    0 -0.11392740730E+03  0.10198359716E+03 -0.20425319550E+02  0.17361058688E+03  0.79645049896E+02 0.  0.
          6    2    1    2  501    0  0.75604897514E+02 -0.97962319933E+02 -0.15462861980E+03  0.26257664683E+03  0.17240582573E+03 0.  0.
         24    2    5    5    0    0  0.45608452718E+02  0.15990648523E+02 -0.53777133341E+02  0.10740519959E+03  0.79423327985E+02 0.  0.
          5    1    5    5  501    0  0.29996444796E+02 -0.11395296846E+03 -0.10085148646E+03  0.15517144725E+03  0.47000000000E+01 0. -1.
        -13    1    6    6    0    0  0.57361662871E+02  0.16052150701E+02 -0.67042995697E+02  0.89681632353E+02  0.00000000000E+00 0.  1.
         14    1    6    6    0    0 -0.11753210154E+02 -0.61502178250E-01  0.13265862355E+02  0.17723567233E+02  0.00000000000E+00 0. -1.
         -5    1    3    3    0  503  0.38322509789E+02 -0.40212772291E+01  0.30680035250E+01  0.38939543817E+02  0.47000000000E+01 0.  1.
         11    1    4    4    0    0 -0.28795510095E+02  0.24625198455E+01 -0.30798801857E+02  0.42235193873E+02  0.00000000000E+00 0. -1.
        -12    1    4    4    0    0 -0.85131897208E+02  0.99521077316E+02  0.10373482307E+02  0.13137539301E+03  0.00000000000E+00 0.  1.
</event>
<event>
12    1  0.1046899E+000  0.1855013E+03  0.7818608E-02  0.1162769E+00
         21   -1    0    0  503  502  0.00000000000E+00  0.00000000000E+00  0.45777735209E+03  0.45777735209E+03  0.00000000000E+00 0.  1.
         21   -1    0    0  501  503 -0.00000000000E+00 -0.00000000000E+00 -0.75134153429E+02  0.75134153429E+02  0.00000000000E+00 0.  1.
          6    2    1    2  501    0 -0.66552433512E+02  0.22659204260E+02  0.20824646958E+03  0.27888584248E+03  0.17166261998E+03 0.  0.
         24    2    3    3    0    0 -0.62487848734E+02  0.56975760742E+02  0.72283924817E+02  0.13852184967E+03  0.82537073474E+02 0.  0.
         -6    2    1    2    0  502  0.66552433512E+02 -0.22659204260E+02  0.17439672908E+03  0.25402566304E+03  0.17079857267E+03 0.  0.
        -24    2    5    5    0    0 -0.28024262009E+02  0.11729038292E+02  0.64466632502E+02  0.10491490322E+03  0.76995198620E+02 0.  0.
          5    1    3    3  501    0 -0.40645847781E+01 -0.34316556483E+02  0.13596254477E+03  0.14036399281E+03  0.47000000000E+01 0. -1.
        -13    1    4    4    0    0 -0.38339116736E+02  0.50528683932E+02  0.88386238159E+02  0.10878953474E+03  0.00000000000E+00 0.  1.
         14    1    4    4    0    0 -0.24148731998E+02  0.64470768102E+01 -0.16102313341E+02  0.29732314936E+02  0.00000000000E+00 0. -1.
         -5    1    5    5    0  502  0.94576695521E+02 -0.34388242551E+02  0.10993009658E+03  0.14911075982E+03  0.47000000000E+01 0.  1.
         13    1    6    6    0    0 -0.36476622939E+02 -0.21899068532E+02  0.53896560789E+02  0.68665511638E+02  0.00000000000E+00 0. -1.
        -14    1    6    6    0    0  0.84523609302E+01  0.33628106824E+02  0.10570071713E+02  0.36249391579E+02  0.00000000000E+00 0.  1.
</event>
<event>
12    1  0.1046899E+000  0.2281739E+03  0.7818608E-02  0.1128196E+00
         21   -1    0    0  501  502  0.00000000000E+00  0.00000000000E+00  0.71273225688E+03  0.71273225688E+03  0.00000000000E+00 0.  1.
         21   -1    0    0  502  503 -0.00000000000E+00 -0.00000000000E+00 -0.80954155651E+02  0.80954155651E+02  0.00000000000E+00 0.  1.
         -6    2    1    2    0  503  0.42817490103E+02  0.14317211512E+03  0.18728591521E+03  0.29404991825E+03  0.17046333441E+03 0.  0.
        -24    2    3    3    0    0 -0.35657786915E+02  0.11718175586E+03  0.11385694153E+03  0.18338026543E+03  0.75245444666E+02 0.  0.
          6    2    1    2  501    0 -0.42817490103E+02 -0.14317211512E+03  0.44449218602E+03  0.49963649429E+03  0.17242891574E+03 0.  0.
         24    2    5    5    0    0 -0.65458772759E+02 -0.16439695604E+03  0.34980064753E+03  0.39987829155E+03  0.78936334790E+02 0.  0.
          5    1    5    5  501    0  0.22641282656E+02  0.21224840925E+02  0.94691538486E+02  0.99758202738E+02  0.47000000000E+01 0. -1.
        -11    1    6    6    0    0 -0.43435785936E+01 -0.66819814091E+01 -0.30887061539E+01  0.85472601607E+01  0.00000000000E+00 0.  1.
         12    1    6    6    0    0 -0.61115194166E+02 -0.15771497463E+03  0.35288935368E+03  0.39133103139E+03  0.00000000000E+00 0. -1.
         -5    1    3    3    0  503  0.78475277018E+02  0.25990359263E+02  0.73428973687E+02  0.11066965282E+03  0.47000000000E+01 0.  1.
         11    1    4    4    0    0 -0.25235663202E+02  0.41964207212E+02  0.30657944229E+01  0.49063555514E+02  0.00000000000E+00 0. -1.
        -12    1    4    4    0    0 -0.10422123712E+02  0.75217548644E+02  0.11079114710E+03  0.13431670992E+03  0.00000000000E+00 0.  1.
</event>
<event>
12    1  0.1046899E+000  0.2435837E+03  0.7818608E-02  0.1117504E+00
         21   -1    0    0  503  502  0.00000000000E+00  0.00000000000E+00  0.46301832500E+03  0.46301832500E+03  0.00000000000E+00 0.  1.
         21   -1    0    0  501  503 -0.00000000000E+00 -0.00000000000E+00 -0.12950686974E+03  0.12950686974E+03  0.00000000000E+00 0.  1.
          6    2    1    2  501    0 -0.91312319398E+02 -0.14608626238E+03  0.19990744616E+03  0.31511265660E+03  0.17220297207E+03 0.  0.
         24    2    3    3    0    0  0.45335533447E+01 -0.34484772346E+02  0.11817995858E+03  0.14675946796E+03  0.79762686732E+02 0.  0.
         -6    2    1    2    0  502  0.91312319398E+02  0.14608626238E+03  0.13360400910E+03  0.27741253814E+03  0.17154751336E+03 0.  0.
        -24    2    5    5    0    0  0.12575245590E+03  0.86815453365E+02  0.11149915184E+03  0.20523313305E+03  0.79611399521E+02 0.  0.
          5    1    3    3  501    0 -0.95845872743E+02 -0.11160149004E+03  0.81727487573E+02  0.16835318864E+03  0.47000000000E+01 0. -1.
        -11    1    4    4    0    0 -0.21888424769E+02 -0.32703772463E+01  0.45775102560E+00  0.22136125276E+02  0.00000000000E+00 0.  1.
         12    1    4    4    0    0  0.26421978114E+02 -0.31214395099E+02  0.11772220756E+03  0.12462334268E+03  0.00000000000E+00 0. -1.
         -5    1    5    5    0  502 -0.34440136505E+02  0.59270809017E+02  0.22104857264E+02  0.72179405087E+02  0.47000000000E+01 0.  1.
         11    1    6    6    0    0  0.12440037804E+03  0.89198067868E+02  0.78330953929E+02  0.17195199246E+03  0.00000000000E+00 0. -1.
        -12    1    6    6    0    0  0.13520778605E+01 -0.23826145033E+01  0.33168197911E+02  0.33281140591E+02  0.00000000000E+00 0.  1.
</event>
<event>
12    1  0.1046899E+000  0.2851420E+03  0.7818608E-02  0.1093076E+00
         21   -1    0    0  503  502  0.00000000000E+00  0.00000000000E+00  0.10159507434E+03  0.10159507434E+03  0.00000000000E+00 0.  1.
         21   -1    0    0  501  503 -0.00000000000E+00 -0.00000000000E+00 -0.85621516867E+03  0.85621516867E+03  0.00000000000E+00 0.  1.
          6    2    1    2  501    0 -0.17170166522E+03 -0.14661065532E+03 -0.50262592707E+03  0.57727504898E+03  0.17215549228E+03 0.  0.
         24    2    3    3    0    0 -0.61686743011E+02 -0.12387877994E+03 -0.37079219005E+03  0.40400576295E+03  0.81133235550E+02 0.  0.
         -6    2    1    2    0  502  0.17170166522E+03  0.14661065532E+03 -0.25199416726E+03  0.38053519403E+03  0.17415460796E+03 0.  0.
        -24    2    5    5    0    0  0.28324860460E+02  0.34829841187E+02 -0.39091362632E+02  0.10053242124E+03  0.81013687310E+02 0.  0.
          5    1    3    3  501    0 -0.11001492220E+03 -0.22731875387E+02 -0.13183373702E+03  0.17326928603E+03  0.47000000000E+01 0. -1.
        -13    1    4    4    0    0 -0.13527995794E+02 -0.49367423742E+02 -0.24365225912E+03  0.24897102757E+03  0.00000000000E+00 0.  1.
         14    1    4    4    0    0 -0.48158747217E+02 -0.74511356195E+02 -0.12713993093E+03  0.15503473538E+03  0.00000000000E+00 0. -1.
         -5    1    5    5    0  502  0.14337680476E+03  0.11178081414E+03 -0.21290280462E+03  0.28000277279E+03  0.47000000000E+01 0.  1.
         13    1    6    6    0    0  0.53198002385E+02  0.37257823738E+02 -0.38567458671E+02  0.75535566165E+02  0.00000000000E+00 0. -1.
        -14    1    6    6    0    0 -0.24873141925E+02 -0.24279825515E+01 -0.52390396177E+00  0.24996855080E+02  0.00000000000E+00 0.  1.
</event>
<event>
12    1  0.1046899E+000  0.1839725E+03  0.7818608E-02  0.1164041E+00
         21   -1    0    0  503  502  0.00000000000E+00  0.00000000000E+00  0.15801074427E+03  0.15801074427E+03  0.00000000000E+00 0.  1.
         21   -1    0    0  501  503 -0.00000000000E+00 -0.00000000000E+00 -0.22432260507E+03  0.22432260507E+03  0.00000000000E+00 0.  1.
          6    2    1    2  501    0  0.63548163333E+02  0.18153500800E+00  0.77259313159E+01  0.18413469611E+03  0.17264847025E+03 0.  0.
         24    2    3    3    0    0  0.56208066574E+02  0.59762292600E+02 -0.24143317937E+02  0.11600626780E+03  0.78381605008E+02 0.  0.
         -6    2    1    2    0  502 -0.63548163333E+02 -0.18153500800E+00 -0.74037792119E+02  0.19819865323E+03  0.17251872206E+03 0.  0.
        -24    2    5    5    0    0 -0.29566858929E+02 -0.64896777074E+02 -0.32626423375E+02  0.11405720645E+03  0.82817703543E+02 0.  0.
          5    1    3    3  501    0  0.73400967596E+01 -0.59580757592E+02  0.31869249253E+02  0.68128428307E+02  0.47000000000E+01 0. -1.
        -11    1    4    4    0    0  0.46114860871E+02  0.59799255082E+01  0.14848564595E+02  0.48814134969E+02  0.00000000000E+00 0.  1.
         12    1    4    4    0    0  0.10093205703E+02  0.53782367092E+02 -0.38991882532E+02  0.67192132834E+02  0.00000000000E+00 0. -1.
         -5    1    5    5    0  502 -0.33981304405E+02  0.64715242066E+02 -0.41411368744E+02  0.84141446778E+02  0.47000000000E+01 0.  1.
         13    1    6    6    0    0  0.26239957747E+02 -0.39535294666E+02 -0.86341809672E+01  0.48229907608E+02  0.00000000000E+00 0. -1.
        -14    1    6    6    0    0 -0.55806816676E+02 -0.25361482408E+02 -0.23992242408E+02  0.65827298845E+02  0.00000000000E+00 0.  1.
</event>
<event>
12    1  0.1046899E+000  0.2167417E+03  0.7818608E-02  0.1136707E+00
         21   -1    0    0  501  502  0.00000000000E+00  0.00000000000E+00  0.54127495034E+03  0.54127495034E+03  0.00000000000E+00 0.  1.
         21   -1    0    0  502  503 -0.00000000000E+00 -0.00000000000E+00 -0.10366141359E+03  0.10366141359E+03  0.00000000000E+00 0.  1.
         -6    2    1    2    0  503 -0.16057779640E+02  0.13128972062E+03  0.35104592603E+03  0.41154629105E+03  0.16924025665E+03 0.  0.
        -24    2    3    3    0    0  0.36529920351E+01  0.72043404323E+02  0.82879504573E+02  0.13616662566E+03  0.80428485055E+02 0.  0.
          6    2    1    2  501    0  0.16057779640E+02 -0.13128972062E+03  0.86567610732E+02  0.23339007288E+03  0.17170361634E+03 0.  0.
         24    2    5    5    0    0 -0.56038484881E+02 -0.94674706930E+02  0.60332991909E+02  0.14824974278E+03  0.78957611421E+02 0.  0.
          5    1    5    5  501    0  0.72096264521E+02 -0.36615013689E+02  0.26234618822E+02  0.85140330103E+02  0.47000000000E+01 0. -1.
        -11    1    6    6    0    0 -0.48595281664E+02 -0.45295538857E+02 -0.43022556157E+01  0.66570989505E+02  0.00000000000E+00 0.  1.
         12    1    6    6    0    0 -0.74432032166E+01 -0.49379168073E+02  0.64635247525E+02  0.81678753274E+02  0.00000000000E+00 0. -1.
         -5    1    3    3    0  503 -0.19710771675E+02  0.59246316295E+02  0.26816642145E+03  0.27537966539E+03  0.47000000000E+01 0.  1.
         11    1    4    4    0    0 -0.79053972660E+01  0.55457919801E+02  0.96646952590E+02  0.11170814482E+03  0.00000000000E+00 0. -1.
        -12    1    4    4    0    0  0.11558389301E+02  0.16585484523E+02 -0.13767448016E+02  0.24458480840E+02  0.00000000000E+00 0.  1.
</event>
<event>
12    1  0.1046899E+000  0.3208128E+03  0.7818608E-02  0.1075316E+00
         21   -1    0    0  503  502  0.00000000000E+00  0.00000000000E+00  0.33548674212E+03  0.33548674212E+03  0.00000000000E+00 0. -1.
         21   -1    0    0  501  503 -0.00000000000E+00 -0.00000000000E+00 -0.45963580091E+03  0.45963580091E+03  0.00000000000E+00 0.  1.
          6    2    1    2  501    0 -0.25641474292E+03 -0.84525926328E+02  0.16746233319E+03  0.36158124773E+03  0.17263896740E+03 0.  0.
         24    2    3    3    0    0 -0.21615939531E+03 -0.43120449787E+01  0.12544743710E+03  0.26237388276E+03  0.79746579643E+02 0.  0.
         -6    2    1    2    0  502  0.25641474292E+03  0.84525926328E+02 -0.29161139198E+03  0.43354129529E+03  0.17328502006E+03 0.  0.
        -24    2    5    5    0    0  0.15465887442E+03 -0.11382721620E+02 -0.20396394464E+03  0.26844468554E+03  0.80076992276E+02 0.  0.
          5    1    3    3  501    0 -0.40255347610E+02 -0.80213881349E+02  0.42014896090E+02  0.99207364977E+02  0.47000000000E+01 0. -1.
        -13    1    4    4    0    0 -0.10994348068E+03 -0.35174629529E+02  0.38507343555E+02  0.12168664271E+03  0.00000000000E+00 0.  1.
         14    1    4    4    0    0 -0.10621591463E+03  0.30862584550E+02  0.86940093544E+02  0.14068724004E+03  0.00000000000E+00 0. -1.
         -5    1    5    5    0  502  0.10175586850E+03  0.95908647947E+02 -0.87647447335E+02  0.16509660975E+03  0.47000000000E+01 0.  1.
         13    1    6    6    0    0  0.73219849917E+02 -0.30163577175E+02 -0.51160273174E+02  0.94278106478E+02  0.00000000000E+00 0. -1.
        -14    1    6    6    0    0  0.81439024500E+02  0.18780855556E+02 -0.15280367147E+03  0.17416657906E+03  0.00000000000E+00 0.  1.
</event>
<event>
12    1  0.1046899E+000  0.2692205E+03  0.7818608E-02  0.1101889E+00
         21   -1    0    0  503  502  0.00000000000E+00  0.00000000000E+00  0.26877218952E+03  0.26877218952E+03  0.00000000000E+00 0.  1.
         21   -1    0    0  501  503 -0.00000000000E+00 -0.00000000000E+00 -0.29747123292E+03  0.29747123292E+03  0.00000000000E+00 0.  1.
          6    2    1    2  501    0 -0.24315922266E+02  0.20615679605E+03  0.73967300692E+02  0.27811140781E+03  0.16965525323E+03 0.  0.
         24    2    3    3    0    0 -0.76855464605E+02  0.98181498329E+02  0.25027481202E+02  0.14835677645E+03  0.76400191422E+02 0.  0.
         -6    2    1    2    0  502  0.24315922266E+02 -0.20615679605E+03 -0.10266634409E+03  0.28813201464E+03  0.17142867618E+03 0.  0.
        -24    2    5    5    0    0 -0.38161611879E+02 -0.78628174889E+02 -0.84599921632E+02  0.14489976580E+03  0.78740693928E+02 0.  0.
          5    1    3    3  501    0  0.52539542339E+02  0.10797529772E+03  0.48939819490E+02  0.12975463136E+03  0.47000000000E+01 0. -1.
        -11    1    4    4    0    0 -0.68644647539E+02  0.47381855825E+02  0.43010944935E+02  0.93845987029E+02  0.00000000000E+00 0.  1.
         12    1    4    4    0    0 -0.82108170655E+01  0.50799642504E+02 -0.17983463733E+02  0.54510789421E+02  0.00000000000E+00 0. -1.
         -5    1    5    5    0  502  0.62477534144E+02 -0.12752862116E+03 -0.18066422459E+02  0.14323224884E+03  0.47000000000E+01 0.  1.
         11    1    6    6    0    0 -0.32852981390E+02 -0.84801050568E+02 -0.39635819603E+02  0.99204509773E+02  0.00000000000E+00 0. -1.
        -12    1    6    6    0    0 -0.53086304882E+01  0.61728756794E+01 -0.44964102028E+02  0.45695256023E+02  0.00000000000E+00 0.  1.
</event>
<event>
12    1  0.1046899E+000  0.2829683E+03  0.7818608E-02  0.1094104E+00
         21   -1    0    0  503  502  0.00000000000E+00  0.00000000000E+00  0.31885081807E+03  0.31885081807E+03  0.00000000000E+00 0. -1.
         21   -1    0    0  501  503 -0.00000000000E+00 -0.00000000000E+00 -0.27038413920E+03  0.27038413920E+03  0.00000000000E+00 0. -1.
          6    2    1    2  501    0  0.10663565510E+03  0.19798784256E+03  0.10320055075E+03  0.30102174889E+03  0.17144500837E+03 0.  0.
         24    2    3    3    0    0  0.23603395300E+02  0.16026009106E+03  0.10665177646E+03  0.20963389215E+03  0.79569782346E+02 0.  0.
         -6    2    1    2    0  502 -0.10663565510E+03 -0.19798784256E+03 -0.54733871879E+02  0.28821320837E+03  0.17175770146E+03 0.  0.
        -24    2    5    5    0    0 -0.84506566872E+02 -0.59486549438E+02 -0.67738145841E+02  0.14727525791E+03  0.80134485588E+02 0.  0.
          5    1    3    3  501    0  0.83032259801E+02  0.37727751499E+02 -0.34512257065E+01  0.91387856741E+02  0.47000000000E+01 0. -1.
        -11    1    4    4    0    0  0.25011786276E+02  0.10065879298E+03  0.21888471214E+02  0.10600418496E+03  0.00000000000E+00 0.  1.
         12    1    4    4    0    0 -0.14083909764E+01  0.59601298082E+02  0.84763305243E+02  0.10362970720E+03  0.00000000000E+00 0. -1.
         -5    1    5    5    0  502 -0.22129088228E+02 -0.13850129312E+03  0.13004273962E+02  0.14093795047E+03  0.47000000000E+01 0.  1.
         13    1    6    6    0    0 -0.49420309810E+02 -0.76928908485E+02 -0.50670184005E+02  0.10453655595E+03  0.00000000000E+00 0. -1.
        -14    1    6    6    0    0 -0.35086257062E+02  0.17442359047E+02 -0.17067961836E+02  0.42738701957E+02  0.00000000000E+00 0.  1.
</event>
<event>
12    1  0.1046899E+000  0.2248780E+03  0.7818608E-02  0.1130462E+00
         21   -1    0    0  501  502  0.00000000000E+00  0.00000000000E+00  0.97486969902E+02  0.97486969902E+02  0.00000000000E+00 0.  1.
         21   -1    0    0  502  503 -0.00000000000E+00 -0.00000000000E+00 -0.55513733809E+03  0.55513733809E+03  0.00000000000E+00 0.  1.
         -6    2    1    2    0  503 -0.20976650743E+02 -0.14385440321E+03 -0.14247658843E+03  0.26544913052E+03  0.17038061346E+03 0.  0.
        -24    2    3    3    0    0 -0.46524935551E+02 -0.18136727587E+02 -0.54893593393E+02  0.11004475529E+03  0.81259036760E+02 0.  0.
          6    2    1    2  501    0  0.20976650743E+02  0.14385440321E+03 -0.31517377975E+03  0.38717517746E+03  0.17156922044E+03 0.  0.
         24    2    5    5    0    0 -0.51718420497E+01  0.34188517261E+02 -0.57708581655E+02  0.10606884803E+03  0.82004374659E+02 0.  0.
          5    1    5    5  501    0  0.26148492793E+02  0.10966588595E+03 -0.25746519810E+03  0.28110632943E+03  0.47000000000E+01 0. -1.
        -13    1    6    6    0    0 -0.16091427394E+02 -0.94877450300E+01 -0.58118082226E+02  0.61046398935E+02  0.00000000000E+00 0.  1.
         14    1    6    6    0    0  0.10919585344E+02  0.43676262291E+02  0.40950057146E+00  0.45022449095E+02  0.00000000000E+00 0. -1.
         -5    1    3    3    0  503  0.25548284808E+02 -0.12571767563E+03 -0.87582995042E+02  0.15540437524E+03  0.47000000000E+01 0.  1.
         13    1    4    4    0    0  0.76530648601E+01 -0.37009235512E+02 -0.18231549445E+02  0.41960008462E+02  0.00000000000E+00 0. -1.
        -14    1    4    4    0    0 -0.54178000411E+02  0.18872507925E+02 -0.36662043948E+02  0.68084746826E+02  0.00000000000E+00 0.  1.
</event>
<event>
12    1  0.1046899E+000  0.4015623E+03  0.7818608E-02  0.1043700E+00
         21   -1    0    0  501  502  0.00000000000E+00  0.00000000000E+00  0.46490633787E+03  0.46490633787E+03  0.00000000000E+00 0. -1.
         21   -1    0    0  502  503 -0.00000000000E+00 -0.00000000000E+00 -0.51120153741E+03  0.51120153741E+03  0.00000000000E+00 0. -1.
         -6    2    1    2    0  503 -0.30602965144E+03 -0.18296474980E+03 -0.30358600587E+03  0.49918981389E+03  0.17290390425E+03 0.  0.
        -24    2    3    3    0    0 -0.80833257105E+02 -0.22082656434E+02 -0.54031826321E+02  0.12650248849E+03  0.77857447739E+02 0.  0.
          6    2    1    2  501    0  0.30602965144E+03  0.18296474980E+03  0.25729080633E+03  0.47691806139E+03  0.18472149585E+03 0.  0.
         24    2    5    5    0    0  0.14117483354E+03  0.10622575295E+03  0.48210165122E+02  0.19978489999E+03  0.79846991343E+02 0.  0.
          5    1    5    5  501    0  0.16485481790E+03  0.76738996853E+02  0.20908064121E+03  0.27713316141E+03  0.47000000000E+01 0. -1.
        -13    1    6    6    0    0  0.58607047782E+02  0.97940365829E+01 -0.97750236157E+01  0.60218438115E+02  0.00000000000E+00 0.  1.
         14    1    6    6    0    0  0.82567785761E+02  0.96431716365E+02  0.57985188738E+02  0.13956646187E+03  0.00000000000E+00 0. -1.
         -5    1    3    3    0  503 -0.22519639434E+03 -0.16088209337E+03 -0.24955417955E+03  0.37268732541E+03  0.47000000000E+01 0.  1.
         11    1    4    4    0    0 -0.44180452977E+02  0.86376107606E+01 -0.63412634801E+02  0.77766850247E+02  0.00000000000E+00 0. -1.
        -12    1    4    4    0    0 -0.36652804127E+02 -0.30720267194E+02  0.93808084798E+01  0.48735638240E+02  0.00000000000E+00 0.  1.
</event>
<event>
12    1  0.1046899E+000  0.2170737E+03  0.7818608E-02  0.1136125E+00
         21   -1    0    0  501  502  0.00000000000E+00  0.00000000000E+00  0.80889905245E+02  0.80889905245E+02  0.00000000000E+00 0.  1.
         21   -1    0    0  502  503 -0.00000000000E+00 -0.00000000000E+00 -0.93040483459E+03  0.93040483459E+03  0.00000000000E+00 0.  1.
         -6    2    1    2    0  503 -0.18294225771E+02  0.13152465796E+03 -0.73433818170E+03  0.76575031244E+03  0.17171942682E+03 0.  0.
        -24    2    3    3    0    0  0.17430495660E+02  0.15131963792E+03 -0.64037314671E+03  0.66318513924E+03  0.80841244912E+02 0.  0.
          6    2    1    2  501    0  0.18294225771E+02 -0.13152465796E+03 -0.11517674764E+03  0.24554442739E+03  0.17144377585E+03 0.  0.
         24    2    5    5    0    0 -0.51885973153E+02 -0.10067714805E+03 -0.42950583549E+02  0.14011417572E+03  0.70421497147E+02 0.  0.
          5    1    5    5  501    0  0.70180198924E+02 -0.30847509909E+02 -0.72226164092E+02  0.10543025167E+03  0.47000000000E+01 0. -1.
        -11    1    6    6    0    0 -0.45218923626E-01 -0.22569776510E+02  0.17507530951E+02  0.28564147046E+02  0.00000000000E+00 0.  1.
         12    1    6    6    0    0 -0.51840754230E+02 -0.78107371541E+02 -0.60458114499E+02  0.11155002867E+03  0.00000000000E+00 0. -1.
         -5    1    3    3    0  503 -0.35724721431E+02 -0.19794979961E+02 -0.93965034995E+02  0.10256517320E+03  0.47000000000E+01 0.  1.
         11    1    4    4    0    0  0.47939103861E+02  0.65765698355E+02 -0.31972753366E+03  0.32992268873E+03  0.00000000000E+00 0. -1.
        -12    1    4    4    0    0 -0.30508608200E+02  0.85553939567E+02 -0.32064561305E+03  0.33326245051E+03  0.00000000000E+00 0.  1.
</event>
<event>
12    1  0.1046899E+000  0.1774060E+03  0.7818608E-02  0.1171109E+00
         21   -1    0    0  501  502  0.00000000000E+00  0.00000000000E+00  0.16700475502E+03  0.16700475502E+03  0.00000000000E+00 0. -1.
         21   -1    0    0  502  503 -0.00000000000E+00 -0.00000000000E+00 -0.25273907207E+03  0.25273907207E+03  0.00000000000E+00 0. -1.
         -6    2    1    2    0  503  0.24001050008E+02 -0.13396643522E+02 -0.15165068444E+03  0.23338983137E+03  0.17526369514E+03 0.  0.
        -24    2    3    3    0    0 -0.98308268446E+01  0.43728368181E+02 -0.38520652298E+02  0.10213299526E+03  0.83297615370E+02 0.  0.
          6    2    1    2  501    0 -0.24001050008E+02  0.13396643522E+02  0.65916367389E+02  0.18635399572E+03  0.17212589512E+03 0.  0.
         24    2    5    5    0    0 -0.11704260005E+01 -0.92471552520E+01 -0.14435727266E+02  0.99679154326E+02  0.98186882057E+02 0.  0.
          5    1    5    5  501    0 -0.22830624007E+02  0.22643798774E+02  0.80352094656E+02  0.86674841396E+02  0.47000000000E+01 0. -1.
        -11    1    6    6    0    0  0.12146966267E+02 -0.45927826676E+02  0.16065453919E+02  0.50149903911E+02  0.00000000000E+00 0.  1.
         12    1    6    6    0    0 -0.13317392268E+02  0.36680671424E+02 -0.30501181186E+02  0.49529250415E+02  0.00000000000E+00 0. -1.
         -5    1    3    3    0  503  0.33831876852E+02 -0.57125011704E+02 -0.11313003214E+03  0.13125683611E+03  0.47000000000E+01 0.  1.
         13    1    4    4    0    0 -0.22917944610E+02 -0.17154791585E+02  0.52243958546E+00  0.28632010104E+02  0.00000000000E+00 0. -1.
        -14    1    4    4    0    0  0.13087117765E+02  0.60883159767E+02 -0.39043091883E+02  0.73500985152E+02  0.00000000000E+00 0.  1.
</event>
<event>
12    1  0.1046899E+000  0.2134489E+03  0.7818608E-02  0.1139824E+00
         21   -1    0    0  503  502  0.00000000000E+00  0.00000000000E+00  0.87457521226E+02  0.87457521226E+02  0.00000000000E+00 0. -1.
         21   -1    0    0  501  503 -0.00000000000E+00 -0.00000000000E+00 -0.54829526849E+03  0.54829526849E+03  0.00000000000E+00 0. -1.
          6    2    1    2  501    0  0.91264354570E+02 -0.84008164315E+02 -0.31295372979E+03  0.37607965896E+03  0.16765833949E+03 0.  0.
         24    2    3    3    0    0  0.10929569149E+03 -0.14658396885E+02 -0.21770325242E+03  0.25679318532E+03  0.79922569607E+02 0.  0.
         -6    2    1    2    0  502 -0.91264354570E+02  0.84008164315E+02 -0.14788401747E+03  0.25967313076E+03  0.17370635604E+03 0.  0.
        -24    2    5    5    0    0 -0.11157987502E+03  0.29545211090E+02 -0.14397732962E+03  0.20122412859E+03  0.80241451091E+02 0.  0.
          5    1    3    3  501    0 -0.18031336918E+02 -0.69349767430E+02 -0.95250477370E+02  0.11928647364E+03  0.47000000000E+01 0. -1.
        -11    1    4    4    0    0  0.11501390729E+03 -0.26581419715E+02 -0.21144264948E+03  0.24216268244E+03  0.00000000000E+00 0.  1.
         12    1    4    4    0    0 -0.57182158034E+01  0.11923022830E+02 -0.62606029411E+01  0.14630502881E+02  0.00000000000E+00 0. -1.
         -5    1    5    5    0  502  0.20315520454E+02  0.54462953225E+02 -0.39066878554E+01  0.58449002176E+02  0.47000000000E+01 0.  1.
         11    1    6    6    0    0  0.43067285732E+01 -0.15238411964E+02 -0.22083197060E+02  0.27173971049E+02  0.00000000000E+00 0. -1.
        -12    1    6    6    0    0 -0.11588660360E+03  0.44783623054E+02 -0.12189413256E+03  0.17405015754E+03  0.00000000000E+00 0.  1.
</event>
<event>
12    1  0.1046899E+000  0.2852824E+03  0.7818608E-02  0.1093869E+00
         21   -1    0    0  501  502  0.00000000000E+00  0.00000000000E+00  0.12068097003E+03  0.12068097003E+03  0.00000000000E+00 0.  1.
         21   -1    0    0  502  503 -0.00000000000E+00 -0.00000000000E+00 -0.70698389549E+03  0.70698389549E+03  0.00000000000E+00 0.  1.
         -6    2    1    2    0  503  0.20854610949E+03  0.32736354234E+02 -0.40742735254E+03  0.49737622796E+03  0.19189298025E+03 0.  0.
        -24    2    3    3    0    0  0.20768625569E+03  0.80758167548E+02 -0.35454180945E+03  0.42578150350E+03  0.77035911428E+02 0.  0.
          6    2    1    2  501    0 -0.20854610949E+03 -0.32736354234E+02 -0.17887557292E+03  0.33028863756E+03  0.18036342434E+03 0.  0.
         24    2    5    5    0    0 -0.58438944881E+02 -0.71622270573E+02 -0.62438299339E+02  0.13631955746E+03  0.78355731122E+02 0.  0.
          5    1    5    5  501    0 -0.15010716461E+03  0.38885916338E+02 -0.11643727358E+03  0.19396908010E+03  0.47000000000E+01 0. -1.
        -13    1    6    6    0    0  0.16616465813E+02 -0.17300916315E+02  0.10376368157E+01  0.24010525434E+02  0.00000000000E+00 0.  1.
         14    1    6    6    0    0 -0.75055410694E+02 -0.54321354257E+02 -0.63475936155E+02  0.11230903202E+03  0.00000000000E+00 0. -1.
         -5    1    3    3    0  503  0.85985380560E+00 -0.48021813313E+02 -0.52885543088E+02  0.71594724458E+02  0.47000000000E+01 0.  1.
         11    1    4    4    0    0  0.84705689021E+02  0.66374684564E+02 -0.20588823053E+03  0.23231576781E+03  0.00000000000E+00 0. -1.
        -12    1    4    4    0    0  0.12298056667E+03  0.14383482984E+02 -0.14865357892E+03  0.19346573569E+03  0.00000000000E+00 0.  1.
</event>
<event>
12    1  0.1046899E+000  0.1883911E+03  0.7818608E-02  0.1160183E+00
         21   -1    0    0  503  502  0.00000000000E+00  0.00000000000E+00  0.41344419731E+03  0.41344419731E+03  0.00000000000E+00 0. -1.
         21   -1    0    0  501  503 -0.00000000000E+00 -0.00000000000E+00 -0.87100584900E+02  0.87100584900E+02  0.00000000000E+00 0. -1.
          6    2    1    2  501    0  0.16654191723E+02 -0.71222448450E+02  0.19845897727E+03  0.27284828217E+03  0.17236652854E+03 0.  0.
         24    2    3    3    0    0  0.14146456348E+02 -0.17358596463E+02  0.18498234954E+02  0.84923930207E+02  0.79802544615E+02 0.  0.
         -6    2    1    2    0  502 -0.16654191723E+02  0.71222448450E+02  0.12788463515E+03  0.22769650004E+03  0.17361226040E+03 0.  0.
        -24    2    5    5    0    0 -0.54791049060E+02 -0.43813310650E+01  0.77657868789E+02  0.12913094103E+03  0.87308649213E+02 0.  0.
          5    1    3    3  501    0  0.25077353750E+01 -0.53863851987E+02  0.17996074231E+03  0.18792435196E+03  0.47000000000E+01 0. -1.
        -13    1    4    4    0    0 -0.26530957485E+02 -0.17392314774E+02  0.28925849283E+02  0.42931213295E+02  0.00000000000E+00 0.  1.
         14    1    4    4    0    0  0.40677413833E+02  0.33718310759E-01 -0.10427614329E+02  0.41992716912E+02  0.00000000000E+00 0. -1.
         -5    1    5    5    0  502  0.38136857338E+02  0.75603779515E+02  0.50226766356E+02  0.98565559011E+02  0.47000000000E+01 0.  1.
         11    1    6    6    0    0 -0.21994982938E+02 -0.32615523359E+02  0.76288401066E+02  0.85833977979E+02  0.00000000000E+00 0. -1.
        -12    1    6    6    0    0 -0.32796066122E+02  0.28234192294E+02  0.13694677230E+01  0.43296963051E+02  0.00000000000E+00 0.  1.
</event>
<event>
12    1  0.1046899E+000  0.2678215E+03  0.7818608E-02  0.1102590E+00
         21   -1    0    0  503  502  0.00000000000E+00  0.00000000000E+00  0.27011592312E+03  0.27011592312E+03  0.00000000000E+00 0.  1.
         21   -1    0    0  501  503 -0.00000000000E+00 -0.00000000000E+00 -0.27648626072E+03  0.27648626072E+03  0.00000000000E+00 0.  1.
          6    2    1    2  501    0  0.14894369280E+03 -0.13976265292E+03 -0.58507214965E+02  0.27375314480E+03  0.17262638069E+03 0.  0.
         24    2    3    3    0    0  0.91008620351E+02 -0.13899880729E+03 -0.93590008312E+02  0.20585654349E+03  0.77553784156E+02 0.  0.
         -6    2    1    2    0  502 -0.14894369280E+03  0.13976265292E+03  0.52136877362E+02  0.27284903904E+03  0.17323545061E+03 0.  0.
        -24    2    5    5    0    0 -0.13081719725E+02  0.64954054127E+02  0.52346593567E+02  0.11768159348E+03  0.81967255951E+02 0.  0.
          5    1    3    3  501    0  0.57935072446E+02 -0.76384562645E+00  0.35082793347E+02  0.67896601303E+02  0.47000000000E+01 0. -1.
        -13    1    4    4    0    0  0.89162668256E+02 -0.95546203719E+02 -0.96216095234E+02  0.16228553675E+03  0.00000000000E+00 0.  1.
         14    1    4    4    0    0  0.18459520953E+01 -0.43452603572E+02  0.26260869215E+01  0.43571006746E+02  0.00000000000E+00 0. -1.
         -5    1    5    5    0  502 -0.13586197307E+03  0.74808598790E+02 -0.20971620470E+00  0.15516744556E+03  0.47000000000E+01 0.  1.
         13    1    6    6    0    0 -0.47006898637E+02  0.33315205544E+02  0.38407439510E+02  0.69243648443E+02  0.00000000000E+00 0. -1.
        -14    1    6    6    0    0  0.33925178912E+02  0.31638848583E+02  0.13939154057E+02  0.48437945040E+02  0.00000000000E+00 0.  1.
</event>
<event>
12    1  0.1046899E+000  0.3188146E+03  0.7818608E-02  0.1076243E+00
         21   -1    0    0  501  502  0.00000000000E+00  0.00000000000E+00  0.33698195471E+02  0.33698195471E+02  0.00000000000E+00 0.  1.
         21   -1    0    0  502  503 -0.00000000000E+00 -0.00000000000E+00 -0.35058078850E+04  0.35058078850E+04  0.00000000000E+00 0.  1.
         -6    2    1    2    0  503 -0.24444301691E+03 -0.10874304114E+03 -0.24009348663E+04  0.24220096993E+04  0.17339352340E+03 0.  0.
        -24    2    3    3    0    0 -0.17151754326E+03 -0.28289240671E+01 -0.14340269478E+04  0.14465770067E+04  0.82009017767E+02 0.  0.
          6    2    1    2  501    0  0.24444301691E+03  0.10874304114E+03 -0.10711748233E+04  0.11174963812E+04  0.17264189067E+03 0.  0.
         24    2    5    5    0    0  0.21276771261E+03  0.11690332925E+03 -0.70695358370E+03  0.75177911803E+03  0.80324248431E+02 0.  0.
          5    1    5    5  501    0  0.31675304305E+02 -0.81602881049E+01 -0.36422123960E+03  0.36571726317E+03  0.47000000000E+01 0. -1.
        -11    1    6    6    0    0  0.25295379221E+02  0.10803857579E+02 -0.27095632014E+02  0.38610268359E+02  0.00000000000E+00 0.  1.
         12    1    6    6    0    0  0.18747233339E+03  0.10609947167E+03 -0.67985795169E+03  0.71316884968E+03  0.00000000000E+00 0. -1.
         -5    1    3    3    0  503 -0.72925473653E+02 -0.10591411708E+03 -0.96690791850E+03  0.97543269259E+03  0.47000000000E+01 0.  1.
         13    1    4    4    0    0 -0.13652078707E+03  0.18201266220E+02 -0.12740168546E+04  0.12814398766E+04  0.00000000000E+00 0. -1.
        -14    1    4    4    0    0 -0.34996756189E+02 -0.21030190287E+02 -0.16001009313E+03  0.16513713014E+03  0.00000000000E+00 0.  1.
</event>
<event>
12    1  0.1046899E+000  0.2234641E+03  0.7818608E-02  0.1131453E+00
         21   -1    0    0  501  502  0.00000000000E+00  0.00000000000E+00  0.66697974872E+02  0.66697974872E+02  0.00000000000E+00 0. -1.
         21   -1    0    0  502  503 -0.00000000000E+00 -0.00000000000E+00 -0.88934965344E+03  0.88934965344E+03  0.00000000000E+00 0.  1.
         -6    2    1    2    0  503 -0.12101102539E+03  0.70923711307E+02 -0.21912576037E+03  0.31247966609E+03  0.17307108877E+03 0.  0.
        -24    2    3    3    0    0 -0.14610011010E+02  0.78725262781E+02 -0.13700217012E+03  0.17776361603E+03  0.80119842389E+02 0.  0.
          6    2    1    2  501    0  0.12101102539E+03 -0.70923711307E+02 -0.60352591819E+03  0.64356796222E+03  0.17396076275E+03 0.  0.
         24    2    5    5    0    0  0.21638077458E+02 -0.91673847623E+02 -0.39047023386E+03  0.40751634591E+03  0.68776943211E+02 0.  0.
          5    1    5    5  501    0  0.99372947934E+02  0.20750136316E+02 -0.21305568433E+03  0.23605161632E+03  0.47000000000E+01 0. -1.
        -13    1    6    6    0    0  0.99146790094E+01 -0.88732420012E+02 -0.23202591753E+03  0.24861168441E+03  0.00000000000E+00 0.  1.
         14    1    6    6    0    0  0.11723398448E+02 -0.29414276113E+01 -0.15844431633E+03  0.15890466150E+03  0.00000000000E+00 0. -1.
         -5    1    3    3    0  503 -0.10640101438E+03 -0.78015514748E+01 -0.82123590252E+02  0.13471605006E+03  0.47000000000E+01 0.  1.
         11    1    4    4    0    0 -0.17738686286E+02  0.91769994848E+02 -0.93366293056E+02  0.13211229172E+03  0.00000000000E+00 0. -1.
        -12    1    4    4    0    0  0.31286752766E+01 -0.13044732066E+02 -0.43635877063E+02  0.45651324304E+02  0.00000000000E+00 0.  1.
</event>
<event>
12    1  0.1046899E+000  0.1839584E+03  0.7818608E-02  0.1164251E+00
         21   -1    0    0  503  502  0.00000000000E+00  0.00000000000E+00  0.24348999269E+03  0.24348999269E+03  0.00000000000E+00 0. -1.
         21   -1    0    0  501  503 -0.00000000000E+00 -0.00000000000E+00 -0.13832491732E+03  0.13832491732E+03  0.00000000000E+00 0. -1.
          6    2    1    2  501    0  0.32095680077E+01  0.63653193245E+02  0.56824999835E+02  0.19253511937E+03  0.17256494791E+03 0.  0.
         24    2    3    3    0    0 -0.65293444043E+02  0.26357985703E+02  0.28182425565E+02  0.10931203227E+03  0.78720353415E+02 0.  0.
         -6    2    1    2    0  502 -0.32095680077E+01 -0.63653193245E+02  0.48340075542E+02  0.18927979064E+03  0.17154604602E+03 0.  0.
        -24    2    5    5    0    0 -0.81363128816E+01 -0.10857598018E+03  0.48963490269E+02  0.14383962947E+03  0.80233861728E+02 0.  0.
          5    1    3    3  501    0  0.68503012051E+02  0.37295207542E+02  0.28642574270E+02  0.83223087100E+02  0.47000000000E+01 0. -1.
        -13    1    4    4    0    0 -0.22421856103E+02  0.18312416665E+02 -0.26579489350E+02  0.39300807744E+02  0.00000000000E+00 0.  1.
         14    1    4    4    0    0 -0.42871587940E+02  0.80455690382E+01  0.54761914916E+02  0.70011224521E+02  0.00000000000E+00 0. -1.
         -5    1    5    5    0  502  0.49267448738E+01  0.44922786938E+02 -0.62341472684E+00  0.45440161171E+02  0.47000000000E+01 0.  1.
         13    1    6    6    0    0  0.27907252590E+02 -0.90221442107E+01  0.91476133377E+01  0.30722836182E+02  0.00000000000E+00 0. -1.
        -14    1    6    6    0    0 -0.36043565472E+02 -0.99553835973E+02  0.39815876931E+02  0.11311679329E+03  0.00000000000E+00 0.  1.
</event>
<event>
12    1  0.1046899E+000  0.2616995E+03  0.7818608E-02  0.1106187E+00
         21   -1    0    0  503  502  0.00000000000E+00  0.00000000000E+00  0.14215261435E+04  0.14215261435E+04  0.00000000000E+00 0.  1.
         21   -1    0    0  501  503 -0.00000000000E+00 -0.00000000000E+00 -0.51526851800E+02  0.51526851800E+02  0.00000000000E+00 0.  1.
          6    2    1    2  501    0 -0.18869067236E+03 -0.55242480590E+02  0.49564798034E+03  0.56049401245E+03  0.17271570883E+03 0.  0.
         24    2    3    3    0    0 -0.10841827415E+03 -0.75821128892E+02  0.19558180715E+03  0.24915988812E+03  0.79530125115E+02 0.  0.
         -6    2    1    2    0  502  0.18869067236E+03  0.55242480590E+02  0.87435131131E+03  0.91255898281E+03  0.17209816970E+03 0.  0.
        -24    2    5    5    0    0  0.88252263074E+02  0.12613449261E+02  0.23472339905E+03  0.26367450578E+03  0.80508446147E+02 0.  0.
          5    1    3    3  501    0 -0.80272398201E+02  0.20578648302E+02  0.30006617319E+03  0.31133412433E+03  0.47000000000E+01 0. -1.
        -11    1    4    4    0    0 -0.95637730216E+02 -0.75889149020E+02  0.11550269909E+03  0.16806728378E+03  0.00000000000E+00 0.  1.
         12    1    4    4    0    0 -0.12780543939E+02  0.68020127577E-01  0.80079108069E+02  0.81092604343E+02  0.00000000000E+00 0. -1.
         -5    1    5    5    0  502  0.10043840928E+03  0.42629031329E+02  0.63962791227E+03  0.64888447702E+03  0.47000000000E+01 0.  1.
         11    1    6    6    0    0  0.67478265543E+02  0.37773063411E+02  0.20660224939E+03  0.22060056685E+03  0.00000000000E+00 0. -1.
        -12    1    6    6    0    0  0.20773997531E+02 -0.25159614149E+02  0.28121149653E+02  0.43073938935E+02  0.00000000000E+00 0.  1.
</event>
<event>
12    1  0.1046899E+000  0.5369053E+03  0.7818608E-02  0.1004687E+00
         21   -1    0    0  501  502  0.00000000000E+00  0.00000000000E+00  0.23666590989E+03  0.23666590989E+03  0.00000000000E+00 0.  1.
         21   -1    0    0  502  503 -0.00000000000E+00 -0.00000000000E+00 -0.12151040585E+04  0.12151040585E+04  0.00000000000E+00 0.  1.
         -6    2    1    2    0  503 -0.11365186191E+03  0.49471430962E+03 -0.51351356023E+03  0.74154311708E+03  0.16891129058E+03 0.  0.
        -24    2    3    3    0    0 -0.83667441236E+02  0.30769118250E+03 -0.23240942756E+03  0.40254704193E+03  0.79723738240E+02 0.  0.
          6    2    1    2  501    0  0.11365186191E+03 -0.49471430962E+03 -0.46492458835E+03  0.71022685127E+03  0.17495231795E+03 0.  0.
         24    2    5    5    0    0  0.17358802476E+02 -0.11765428186E+03 -0.80134304320E+02  0.16293143697E+03  0.77338789503E+02 0.  0.
          5    1    5    5  501    0  0.96293059433E+02 -0.37706002776E+03 -0.38479028403E+03  0.54729541430E+03  0.47000000000E+01 0. -1.
        -11    1    6    6    0    0  0.14314336393E+02 -0.17273090949E+01  0.87089590692E+01  0.16844280666E+02  0.00000000000E+00 0.  1.
         12    1    6    6    0    0  0.30444660830E+01 -0.11592697276E+03 -0.88843263389E+02  0.14608715631E+03  0.00000000000E+00 0. -1.
         -5    1    3    3    0  503 -0.29984420673E+02  0.18702312712E+03 -0.28110413266E+03  0.33899607514E+03  0.47000000000E+01 0.  1.
         11    1    4    4    0    0 -0.17630581062E+01  0.14644801522E+03 -0.12233808227E+03  0.19083169525E+03  0.00000000000E+00 0. -1.
        -12    1    4    4    0    0 -0.81904383130E+02  0.16124316727E+03 -0.11007134530E+03  0.21171534669E+03  0.00000000000E+00 0.  1.
</event>
<event>
12    1  0.1046899E+000  0.1775155E+03  0.7818608E-02  0.1170298E+00
         21   -1    0    0  501  502  0.00000000000E+00  0.00000000000E+00  0.80807468969E+03  0.80807468969E+03  0.00000000000E+00 0. -1.
         21   -1    0    0  502  503 -0.00000000000E+00 -0.00000000000E+00 -0.61932914406E+02  0.61932914406E+02  0.00000000000E+00 0. -1.
         -6    2    1    2    0  503  0.77432239234E+01  0.41430787644E+02  0.63796547321E+03  0.66212815628E+03  0.17215482176E+03 0.  0.
        -24    2    3    3    0    0  0.44548907430E+02  0.20868153681E+02  0.59381616944E+03  0.60090127267E+03  0.77747099093E+02 0.  0.
          6    2    1    2  501    0 -0.77432239234E+01 -0.41430787644E+02  0.10817630207E+03  0.20787944781E+03  0.17243922062E+03 0.  0.
         24    2    5    5    0    0  0.19832144261E+02 -0.89616490902E+02  0.81152026407E+02  0.14595478064E+03  0.79326648824E+02 0.  0.
          5    1    5    5  501    0 -0.27575368185E+02  0.48185703257E+02  0.27024275666E+02  0.61924667171E+02  0.47000000000E+01 0. -1.
        -13    1    6    6    0    0  0.47452936367E+02 -0.48230998343E+02  0.28224504048E+02  0.73311888529E+02  0.00000000000E+00 0.  1.
         14    1    6    6    0    0 -0.27620792105E+02 -0.41385492559E+02  0.52927522359E+02  0.72642892109E+02  0.00000000000E+00 0. -1.
         -5    1    3    3    0  503 -0.36805683507E+02  0.20562633963E+02  0.44149303773E+02  0.61226883618E+02  0.47000000000E+01 0.  1.
         13    1    4    4    0    0 -0.22589253566E+01 -0.18404102269E+02  0.31138026629E+03  0.31193185788E+03  0.00000000000E+00 0. -1.
        -14    1    4    4    0    0  0.46807832787E+02  0.39272255950E+02  0.28243590314E+03  0.28896941479E+03  0.00000000000E+00 0.  1.
</event>
<event>
12    1  0.1046899E+000  0.2154004E+03  0.7818608E-02  0.1137388E+00
         21   -1    0    0  503  502  0.00000000000E+00  0.00000000000E+00  0.82928336770E+02  0.82928336770E+02  0.00000000000E+00 0.  1.
         21   -1    0    0  501  503 -0.00000000000E+00 -0.00000000000E+00 -0.56179380891E+03  0.56179380891E+03  0.00000000000E+00 0. -1.
          6    2    1    2  501    0 -0.48486821087E+02  0.12019341035E+03 -0.21703771655E+03  0.30567772837E+03  0.17186062815E+03 0.  0.
         24    2    3    3    0    0 -0.85428053264E+02  0.74011895043E+02 -0.91080184303E+02  0.16644850400E+03  0.81448091551E+02 0.  0.
         -6    2    1    2    0  502  0.48486821087E+02 -0.12019341035E+03 -0.26182775558E+03  0.33904441730E+03  0.17204626006E+03 0.  0.
        -24    2    5    5    0    0  0.87644847921E+02 -0.99372222267E+02 -0.13530491443E+03  0.20489154826E+03  0.78209134720E+02 0.  0.
          5    1    3    3  501    0  0.36941232178E+02  0.46181515303E+02 -0.12595753225E+03  0.13922922438E+03  0.47000000000E+01 0. -1.
        -11    1    4    4    0    0  0.31399511917E+01 -0.93623709371E+01 -0.27453284552E+02  0.29175265479E+02  0.00000000000E+00 0.  1.
         12    1    4    4    0    0 -0.88568004456E+02  0.83374265980E+02 -0.63626899751E+02  0.13727323852E+03  0.00000000000E+00 0. -1.
         -5    1    5    5    0  502 -0.39158026834E+02 -0.20821188078E+02 -0.12652284116E+03  0.13415286905E+03  0.47000000000E+01 0.  1.
         13    1    6    6    0    0  0.39088918504E+02 -0.65440371998E+02 -0.12251008670E+03  0.14428827804E+03  0.00000000000E+00 0. -1.
        -14    1    6    6    0    0  0.48555929417E+02 -0.33931850269E+02 -0.12794827727E+02  0.60603270216E+02  0.00000000000E+00 0.  1.
</event>
<event>
12    1  0.1046899E+000  0.2350099E+03  0.7818608E-02  0.1123258E+00
         21   -1    0    0  501  502  0.00000000000E+00  0.00000000000E+00  0.46899258318E+03  0.46899258318E+03  0.00000000000E+00 0. -1.
         21   -1    0    0  502  503 -0.00000000000E+00 -0.00000000000E+00 -0.11760567470E+03  0.11760567470E+03  0.00000000000E+00 0. -1.
         -6    2    1    2    0  503 -0.12448753459E+03  0.98970346228E+02  0.18498376345E+03  0.29864054882E+03  0.17226406752E+03 0.  0.
        -24    2    3    3    0    0 -0.12431139930E+03  0.56985968737E+02  0.71099758162E+02  0.17717295793E+03  0.87374806323E+02 0.  0.
          6    2    1    2  501    0  0.12448753459E+03 -0.98970346228E+02  0.16640314502E+03  0.28795770906E+03  0.17302415968E+03 0.  0.
         24    2    5    5    0    0  0.12915547303E+03 -0.91410286351E+02  0.19154837886E+03  0.26087788375E+03  0.79558231012E+02 0.  0.
          5    1    5    5  501    0 -0.46679384359E+01 -0.75600598774E+01 -0.25145233834E+02  0.27079825316E+02  0.47000000000E+01 0. -1.
        -13    1    6    6    0    0  0.51297316518E+02  0.53444223767E+01  0.42195046159E+02  0.66636322324E+02  0.00000000000E+00 0.  1.
         14    1    6    6    0    0  0.77858156508E+02 -0.96754708728E+02  0.14935333270E+03  0.19424156142E+03  0.00000000000E+00 0. -1.
         -5    1    3    3    0  503 -0.17613528552E+00  0.41984377492E+02  0.11388400529E+03  0.12146759090E+03  0.47000000000E+01 0.  1.
         11    1    4    4    0    0 -0.11042707560E+03  0.17007081199E+02  0.75161214275E+02  0.13465729823E+03  0.00000000000E+00 0. -1.
        -12    1    4    4    0    0 -0.13884323707E+02  0.39978887538E+02 -0.40614561126E+01  0.42515659695E+02  0.00000000000E+00 0.  1.
</event>
<event>
12    1  0.1046899E+000  0.2192612E+03  0.7818608E-02  0.1134499E+00
         21   -1    0    0  501  502  0.00000000000E+00  0.00000000000E+00  0.17767417990E+04  0.17767417990E+04  0.00000000000E+00 0. -1.
         21   -1    0    0  502  503 -0.00000000000E+00 -0.00000000000E+00 -0.28264810985E+02  0.28264810985E+02  0.00000000000E+00 0. -1.
         -6    2    1    2    0  503  0.88208721922E+02 -0.10267993791E+03  0.68520819626E+03  0.71943432311E+03  0.17248630316E+03 0.  0.
        -24    2    3    3    0    0  0.12673245161E+03 -0.79374758861E+02  0.59670005599E+03  0.62002109455E+03  0.77548270353E+02 0.  0.
          6    2    1    2  501    0 -0.88208721922E+02  0.10267993791E+03  0.10632687917E+04  0.10855722868E+04  0.17205440486E+03 0.  0.
         24    2    5    5    0    0 -0.13179943419E+02  0.12732798777E+01  0.60381166055E+03  0.60908978634E+03  0.78908264820E+02 0.  0.
          5    1    5    5  501    0 -0.75028778503E+02  0.10140665803E+03  0.45945713116E+03  0.47648250049E+03  0.47000000000E+01 0. -1.
        -11    1    6    6    0    0  0.28462593870E+02  0.70221955577E+01  0.12306043030E+03  0.12650415008E+03  0.00000000000E+00 0.  1.
         12    1    6    6    0    0 -0.41642537289E+02 -0.57489156800E+01  0.48075123024E+03  0.48258563626E+03  0.00000000000E+00 0. -1.
         -5    1    3    3    0  503 -0.38523729683E+02 -0.23305179049E+02  0.88508140275E+02  0.99413228567E+02  0.47000000000E+01 0.  1.
         11    1    4    4    0    0  0.79552022521E+02 -0.31010404613E+02  0.45617515487E+03  0.46409690950E+03  0.00000000000E+00 0. -1.
        -12    1    4    4    0    0  0.47180429084E+02 -0.48364354248E+02  0.14052490111E+03  0.15592418505E+03  0.00000000000E+00 0.  1.
</event>
<event>
12    1  0.1046899E+000  0.2865190E+03  0.7818608E-02  0.1092188E+00
         21   -1    0    0  503  502  0.00000000000E+00  0.00000000000E+00  0.69810560244E+03  0.69810560244E+03  0.00000000000E+00 0. -1.
         21   -1    0    0  501  503 -0.00000000000E+00 -0.00000000000E+00 -0.16082358410E+03  0.16082358410E+03  0.00000000000E+00 0. -1.
          6    2    1    2  501    0  0.65573848199E+02 -0.21965837919E+03  0.49134204805E+03  0.56875063158E+03  0.17178631966E+03 0.  0.
         24    2    3    3    0    0  0.21981903975E+02 -0.16436054826E+03  0.45097477219E+03  0.48745047988E+03  0.82049565831E+02 0.  0.
         -6    2    1    2    0  502 -0.65573848199E+02  0.21965837919E+03  0.45939970292E+02  0.29017855497E+03  0.17188187740E+03 0.  0.
        -24    2    5    5    0    0 -0.28937774638E+02  0.22369179039E+03  0.10903362618E+02  0.23910875793E+03  0.78604725770E+02 0.  0.
          5    1    3    3  501    0  0.43591944224E+02 -0.55297830922E+02  0.40367275859E+02  0.81300151699E+02  0.47000000000E+01 0. -1.
        -13    1    4    4    0    0 -0.53029882196E+01 -0.52887891173E+02  0.60849927388E+02  0.80795819074E+02  0.00000000000E+00 0.  1.
         14    1    4    4    0    0  0.27284892195E+02 -0.11147265709E+03  0.39012484480E+03  0.40665466080E+03  0.00000000000E+00 0. -1.
         -5    1    5    5    0  502 -0.36636073561E+02 -0.40334112076E+01  0.35036607674E+02  0.51069797036E+02  0.47000000000E+01 0.  1.
         13    1    6    6    0    0 -0.52318107160E+02  0.14137652711E+03 -0.98129147271E+01  0.15106554886E+03  0.00000000000E+00 0. -1.
        -14    1    6    6    0    0  0.23380332522E+02  0.82315263280E+02  0.20716277345E+02  0.88043209078E+02  0.00000000000E+00 0.  1.
</event>
<event>
12    1  0.1046899E+000  0.2217625E+03  0.7818608E-02  0.1132594E+00
         21   -1    0    0  501  502  0.00000000000E+00  0.00000000000E+00  0.31999734622E+02  0.31999734622E+02  0.00000000000E+00 0. -1.
         21   -1    0    0  502  503 -0.00000000000E+00 -0.00000000000E+00 -0.15579405728E+04  0.15579405728E+04  0.00000000000E+00 0. -1.
         -6    2    1    2    0  503 -0.81708525637E+02 -0.11364406959E+03 -0.85714983089E+03  0.88537249450E+03  0.17200977791E+03 0.  0.
        -24    2    3    3    0    0 -0.10412735683E+03 -0.43199839357E+02 -0.66994744783E+03  0.68404734507E+03  0.79890267803E+02 0.  0.
          6    2    1    2  501    0  0.81708525637E+02  0.11364406959E+03 -0.66879100725E+03  0.70456781289E+03  0.17188116205E+03 0.  0.
         24    2    5    5    0    0 -0.12920187632E+02  0.88498825448E+02 -0.30539972962E+03  0.32818743703E+03  0.80243539407E+02 0.  0.
          5    1    5    5  501    0  0.94628713269E+02  0.25145244142E+02 -0.36339127762E+03  0.37638037586E+03  0.47000000000E+01 0. -1.
        -13    1    6    6    0    0  0.19365802735E+02  0.84615057500E+02 -0.23844990952E+03  0.25375795874E+03  0.00000000000E+00 0.  1.
         14    1    6    6    0    0 -0.32285990367E+02  0.38837679479E+01 -0.66949820098E+02  0.74429478291E+02  0.00000000000E+00 0. -1.
         -5    1    3    3    0  503  0.22418831194E+02 -0.70444230233E+02 -0.18720238306E+03  0.20132514942E+03  0.47000000000E+01 0.  1.
         13    1    4    4    0    0 -0.10392241418E+03 -0.21567898186E+02 -0.42141744871E+03  0.43457762078E+03  0.00000000000E+00 0. -1.
        -14    1    4    4    0    0 -0.20494265373E+00 -0.21631941171E+02 -0.24852999912E+03  0.24946972430E+03  0.00000000000E+00 0.  1.
</event>
<event>
12    1  0.1046899E+000  0.2315549E+03  0.7818608E-02  0.1125600E+00
         21   -1    0    0  501  502  0.00000000000E+00  0.00000000000E+00  0.11109596535E+03  0.11109596535E+03  0.00000000000E+00 0.  1.
         21   -1    0    0  502  503 -0.00000000000E+00 -0.00000000000E+00 -0.48809071542E+03  0.48809071542E+03  0.00000000000E+00 0.  1.
         -6    2    1    2    0  503 -0.32852696476E+02  0.15058020419E+03 -0.15498272783E+03  0.27839548638E+03  0.17242593585E+03 0.  0.
        -24    2    3    3    0    0 -0.32952036638E+02  0.33116135621E+02 -0.12744054229E+03  0.15765411296E+03  0.80194839963E+02 0.  0.
          6    2    1    2  501    0  0.32852696476E+02 -0.15058020419E+03 -0.22201202223E+03  0.32079119438E+03  0.17281190590E+03 0.  0.
         24    2    5    5    0    0 -0.64501494092E+01 -0.79836157526E+02 -0.21032720394E+03  0.23888845444E+03  0.80092099926E+02 0.  0.
          5    1    5    5  501    0  0.39302845885E+02 -0.70744046661E+02 -0.11684818293E+02  0.81902739949E+02  0.47000000000E+01 0. -1.
        -13    1    6    6    0    0  0.26735613216E+02 -0.30909771879E+02 -0.34815285441E+02  0.53687159657E+02  0.00000000000E+00 0.  1.
         14    1    6    6    0    0 -0.33185762625E+02 -0.48926385646E+02 -0.17551191850E+03  0.18520129478E+03  0.00000000000E+00 0. -1.
         -5    1    3    3    0  503  0.99340162502E-01  0.11746406857E+03 -0.27542185545E+02  0.12074137343E+03  0.47000000000E+01 0.  1.
         11    1    4    4    0    0  0.32031011029E+01  0.30474985753E+02 -0.64034056117E+01  0.31304763484E+02  0.00000000000E+00 0. -1.
        -12    1    4    4    0    0 -0.36155137741E+02  0.26411498677E+01 -0.12103713668E+03  0.12634934947E+03  0.00000000000E+00 0.  1.
</event>
<event>
12    1  0.1046899E+000  0.2425114E+03  0.7818608E-02  0.1118937E+00
         21   -1    0    0  503  502  0.00000000000E+00  0.00000000000E+00  0.13786289002E+03  0.13786289002E+03  0.00000000000E+00 0. -1.
         21   -1    0    0  501  503 -0.00000000000E+00 -0.00000000000E+00 -0.48999307919E+03  0.48999307919E+03  0.00000000000E+00 0.  1.
          6    2    1    2  501    0  0.16175512224E+03 -0.48473085705E+02 -0.54309264606E+02  0.24378685160E+03  0.16723687746E+03 0.  0.
         24    2    3    3    0    0  0.72231346594E+02 -0.47677351599E+02 -0.89275253644E+02  0.14755873727E+03  0.79454469635E+02 0.  0.
         -6    2    1    2    0  502 -0.16175512224E+03  0.48473085705E+02 -0.29782092456E+03  0.38406911761E+03  0.17406155345E+03 0.  0.
        -24    2    5    5    0    0 -0.76308221614E+02  0.52638977511E+02 -0.26591408295E+03  0.29264338807E+03  0.79599286615E+02 0.  0.
          5    1    3    3  501    0  0.89523775646E+02 -0.79573410596E+00  0.34965989038E+02  0.96228114333E+02  0.47000000000E+01 0. -1.
        -11    1    4    4    0    0  0.73681515385E+02 -0.22820174370E+02 -0.29109918488E+02  0.82444608206E+02  0.00000000000E+00 0.  1.
         12    1    4    4    0    0 -0.14501687912E+01 -0.24857177229E+02 -0.60165335155E+02  0.65114129063E+02  0.00000000000E+00 0. -1.
         -5    1    5    5    0  502 -0.85446900626E+02 -0.41658918068E+01 -0.31906841614E+02  0.91425729546E+02  0.47000000000E+01 0.  1.
         13    1    6    6    0    0 -0.17953858465E+02 -0.12972346905E+02 -0.14849884362E+02  0.26667243644E+02  0.00000000000E+00 0. -1.
        -14    1    6    6    0    0 -0.58354363149E+02  0.65611324416E+02 -0.25106419859E+03  0.26597614442E+03  0.00000000000E+00 0.  1.
</event>
<event>
12    1  0.1046899E+000  0.2069898E+03  0.7818608E-02  0.1145727E+00
         21   -1    0    0  501  502  0.00000000000E+00  0.00000000000E+00  0.34969552288E+03  0.34969552288E+03  0.00000000000E+00 0.  1.
         21   -1    0    0  502  503 -0.00000000000E+00 -0.00000000000E+00 -0.13668227355E+03  0.13668227355E+03  0.00000000000E+00 0.  1.
         -6    2    1    2    0  503 -0.34666857023E+00 -0.99429044475E+02  0.13589335823E+02  0.19895010032E+03  0.17178538153E+03 0.  0.
        -24    2    3    3    0    0  0.44471465495E+02 -0.97441383121E+02  0.45366221451E+02  0.14377332623E+03  0.84499354432E+02 0.  0.
          6    2    1    2  501    0  0.34666857023E+00  0.99429044475E+02  0.19942391350E+03  0.28742769611E+03  0.18154483784E+03 0.  0.
         24    2    5    5    0    0  0.47505628887E+02  0.29522408605E+02  0.37565611657E+02  0.10485961249E+03  0.80349273597E+02 0.  0.
          5    1    5    5  501    0 -0.47158960317E+02  0.69906635870E+02  0.16185830185E+03  0.18256808361E+03  0.47000000000E+01 0. -1.
        -13    1    6    6    0    0  0.30433844233E+02 -0.55024214630E+01  0.54271702911E+02  0.62465296395E+02  0.00000000000E+00 0.  1.
         14    1    6    6    0    0  0.17071784654E+02  0.35024830067E+02 -0.16706091255E+02  0.42394316099E+02  0.00000000000E+00 0. -1.
         -5    1    3    3    0  503 -0.44818134066E+02 -0.19876613536E+01 -0.31776885628E+02  0.55176774090E+02  0.47000000000E+01 0.  1.
         13    1    4    4    0    0  0.63169888485E+02 -0.83125696493E+02  0.15202527295E+02  0.10550560679E+03  0.00000000000E+00 0. -1.
        -14    1    4    4    0    0 -0.18698422990E+02 -0.14315686628E+02  0.30163694156E+02  0.38267719439E+02  0.00000000000E+00 0.  1.
</event>
<event>
12    1  0.1046899E+000  0.4152671E+03  0.7818608E-02  0.1038666E+00
         21   -1    0    0  501  502  0.00000000000E+00  0.00000000000E+00  0.19650517222E+03  0.19650517222E+03  0.00000000000E+00 0. -1.
         21   -1    0    0  502  503 -0.00000000000E+00 -0.00000000000E+00 -0.16884576127E+04  0.16884576127E+04  0.00000000000E+00 0. -1.
         -6    2    1    2    0  503  0.94690594186E+02  0.36487469570E+03 -0.92611191640E+02  0.42546867731E+03  0.17420364625E+03 0.  0.
        -24    2    3    3    0    0  0.20480041925E+02  0.18113866678E+03 -0.10730844376E+03  0.22671195765E+03  0.81563232644E+02 0.  0.
          6    2    1    2  501    0 -0.94690594186E+02 -0.36487469570E+03 -0.13993412489E+04  0.14594941076E+04  0.17282148955E+03 0.  0.
         24    2    5    5    0    0 -0.13304298270E+03 -0.31632581791E+03 -0.11766209909E+04  0.12282922423E+04  0.80637571101E+02 0.  0.
          5    1    5    5  501    0  0.38352388510E+02 -0.48548877786E+02 -0.22272025793E+03  0.23120186532E+03  0.47000000000E+01 0. -1.
        -11    1    6    6    0    0 -0.58822064794E+02 -0.17545344518E+03 -0.49880338792E+03  0.53202327631E+03  0.00000000000E+00 0.  1.
         12    1    6    6    0    0 -0.74220917903E+02 -0.14087237273E+03 -0.67781760302E+03  0.69626896600E+03  0.00000000000E+00 0. -1.
         -5    1    3    3    0  503  0.74210552261E+02  0.18373602892E+03  0.14697252120E+02  0.19875671966E+03  0.47000000000E+01 0.  1.
         13    1    4    4    0    0  0.45334120460E+01  0.17873472900E+02 -0.49432252312E+02  0.52759458175E+02  0.00000000000E+00 0. -1.
        -14    1    4    4    0    0  0.15946629879E+02  0.16326519388E+03 -0.57876191448E+02  0.17395249947E+03  0.00000000000E+00 0.  1.
</event>
<event>
12    1  0.1046899E+000  0.1976640E+03  0.7818608E-02  0.1151772E+00
         21   -1    0    0  503  502  0.00000000000E+00  0.00000000000E+00  0.11100207511E+03  0.11100207511E+03  0.00000000000E+00 0. -1.
         21   -1    0    0  501  503 -0.00000000000E+00 -0.00000000000E+00 -0.12764347988E+04  0.12764347988E+04  0.00000000000E+00 0.  1.
          6    2    1    2  501    0  0.94296699063E+02  0.21641056236E+02  0.78711750433E+01  0.19759944506E+03  0.17211444600E+03 0.  0.
         24    2    3    3    0    0  0.89265385155E+02  0.75410406026E+02  0.11866586793E+02  0.14324403676E+03  0.81993901365E+02 0.  0.
         -6    2    1    2    0  502 -0.94296699063E+02 -0.21641056236E+02 -0.11733038988E+04  0.11898374289E+04  0.17236840066E+03 0.  0.
        -24    2    5    5    0    0 -0.29164053887E+02  0.50630236945E+02 -0.64640412361E+03  0.65401015789E+03  0.80480014081E+02 0.  0.
          5    1    3    3  501    0  0.50313139081E+01 -0.53769349790E+02 -0.39954117494E+01  0.54355408301E+02  0.47000000000E+01 0. -1.
        -11    1    4    4    0    0  0.10509967568E+02  0.22116797528E+02 -0.30522763950E+02  0.39131205837E+02  0.00000000000E+00 0.  1.
         12    1    4    4    0    0  0.78755417587E+02  0.53293608499E+02  0.42389350743E+02  0.10411283092E+03  0.00000000000E+00 0. -1.
         -5    1    5    5    0  502 -0.65132645176E+02 -0.72271293181E+02 -0.52689977515E+03  0.53582727100E+03  0.47000000000E+01 0.  1.
         11    1    6    6    0    0 -0.56632194461E+02  0.42048973318E+02 -0.44296638341E+03  0.44854714182E+03  0.00000000000E+00 0. -1.
        -12    1    6    6    0    0  0.27468140574E+02  0.85812636264E+01 -0.20343774020E+03  0.20546301607E+03  0.00000000000E+00 0.  1.
</event>
<event>
12    1  0.1046899E+000  0.1755373E+03  0.7818608E-02  0.1172250E+00
         21   -1    0    0  503  502  0.00000000000E+00  0.00000000000E+00  0.48883280354E+03  0.48883280354E+03  0.00000000000E+00 0.  1.
         21   -1    0    0  501  503 -0.00000000000E+00 -0.00000000000E+00 -0.11978790112E+03  0.11978790112E+03  0.00000000000E+00 0.  1.
          6    2    1    2  501    0  0.33998344383E+02  0.11918935859E+02  0.39407261029E+03  0.43130814452E+03  0.17156790171E+03 0.  0.
         24    2    3    3    0    0  0.25358895271E+02  0.57114866826E+02  0.13833383837E+03  0.17142024230E+03  0.79645885336E+02 0.  0.
         -6    2    1    2    0  502 -0.33998344383E+02 -0.11918935859E+02 -0.25027707872E+02  0.17731256014E+03  0.17180049292E+03 0.  0.
        -24    2    5    5    0    0 -0.37186942295E+02 -0.70862103452E+02  0.28336127436E+01  0.11186939893E+03  0.78118030396E+02 0.  0.
          5    1    3    3  501    0  0.86394491119E+01 -0.45195930967E+02  0.25573877192E+03  0.25988790222E+03  0.47000000000E+01 0. -1.
        -11    1    4    4    0    0 -0.95129648329E+01 -0.11928006172E+02  0.57707743837E+02  0.59690514572E+02  0.00000000000E+00 0.  1.
         12    1    4    4    0    0  0.34871860104E+02  0.69042872998E+02  0.80626094529E+02  0.11172972773E+03  0.00000000000E+00 0. -1.
         -5    1    5    5    0  502  0.31885979112E+01  0.58943167593E+02 -0.27861320615E+02  0.65443161208E+02  0.47000000000E+01 0.  1.
         11    1    6    6    0    0 -0.42961967765E+01 -0.20339029720E+02 -0.34990880101E+02  0.40700062984E+02  0.00000000000E+00 0. -1.
        -12    1    6    6    0    0 -0.32890745518E+02 -0.50523073732E+02  0.37824492844E+02  0.71169335946E+02  0.00000000000E+00 0.  1.
</event>
<event>
12    1  0.1046899E+000  0.2229267E+03  0.7818608E-02  0.1132822E+00
         21   -1    0    0  503  502  0.00000000000E+00  0.00000000000E+00  0.19870747926E+03  0.19870747926E+03  0.00000000000E+00 0. -1.
         21   -1    0    0  501  503 -0.00000000000E+00 -0.00000000000E+00 -0.35436329559E+03  0.35436329559E+03  0.00000000000E+00 0. -1.
          6    2    1    2  501    0 -0.95106596980E+02 -0.90266652604E+02  0.76123886974E+02  0.23556562144E+03  0.18028583547E+03 0.  0.
         24    2    3    3    0    0 -0.93509353831E+02 -0.13097095272E+03  0.79460797039E+02  0.19442420432E+03  0.74762044172E+02 0.  0.
         -6    2    1    2    0  502  0.95106596980E+02  0.90266652604E+02 -0.23177970331E+03  0.31750515341E+03  0.17289985025E+03 0.  0.
        -24    2    5    5    0    0  0.91301928241E+01  0.14577362871E+02 -0.16655736968E+03  0.18560802132E+03  0.80081959587E+02 0.  0.
          5    1    3    3  501    0 -0.15972431489E+01  0.40704300115E+02 -0.33369100645E+01  0.41141417116E+02  0.47000000000E+01 0. -1.
        -11    1    4    4    0    0 -0.49369349609E+02 -0.12369471845E+02  0.23040935125E+02  0.55867890653E+02  0.00000000000E+00 0.  1.
         12    1    4    4    0    0 -0.44140004222E+02 -0.11860148087E+03  0.56419861914E+02  0.13855631367E+03  0.00000000000E+00 0. -1.
         -5    1    5    5    0  502  0.85976404156E+02  0.75689289732E+02 -0.65222333628E+02  0.13189713210E+03  0.47000000000E+01 0.  1.
         11    1    6    6    0    0 -0.15997719137E+02  0.37070092214E+02 -0.49978999493E+02  0.64249662604E+02  0.00000000000E+00 0. -1.
        -12    1    6    6    0    0  0.25127911961E+02 -0.22492729343E+02 -0.11657837019E+03  0.12135835871E+03  0.00000000000E+00 0.  1.
</event>
<event>
12    1  0.1046899E+000  0.4271045E+03  0.7818608E-02  0.1034791E+00
         21   -1    0    0  503  502  0.00000000000E+00  0.00000000000E+00  0.26770808886E+03  0.26770808886E+03  0.00000000000E+00 0. -1.
         21   -1    0    0  501  503 -0.00000000000E+00 -0.00000000000E+00 -0.68372817743E+03  0.68372817743E+03  0.00000000000E+00 0. -1.
          6    2    1    2  501    0  0.18846687908E+03  0.34249040975E+03 -0.23721027705E+03  0.48855600995E+03  0.17204305868E+03 0.  0.
         24    2    3    3    0    0  0.34240057533E+02  0.18017491750E+03 -0.88174969170E+02  0.21954700545E+03  0.82405582198E+02 0.  0.
         -6    2    1    2    0  502 -0.18846687908E+03 -0.34249040975E+03 -0.17880981152E+03  0.46288025634E+03  0.17165587008E+03 0.  0.
        -24    2    5    5    0    0 -0.17012140029E+02 -0.10133352743E+03 -0.68418604960E+02  0.14702953540E+03  0.79866651894E+02 0.  0.
          5    1    3    3  501    0  0.15422682155E+03  0.16231549225E+03 -0.14903530788E+03  0.26900900450E+03  0.47000000000E+01 0. -1.
        -13    1    4    4    0    0  0.25977393394E+02  0.60124015452E+01 -0.13191176504E+02  0.29748631523E+02  0.00000000000E+00 0.  1.
         14    1    4    4    0    0  0.82626641388E+01  0.17416251596E+03 -0.74983792666E+02  0.18979837393E+03  0.00000000000E+00 0. -1.
         -5    1    5    5    0  502 -0.17145473905E+03 -0.24115688232E+03 -0.11039120656E+03  0.31585072094E+03  0.47000000000E+01 0.  1.
         11    1    6    6    0    0 -0.12242422153E+02 -0.60793774062E+02  0.58428565556E+01  0.62288833972E+02  0.00000000000E+00 0. -1.
        -12    1    6    6    0    0 -0.47697178763E+01 -0.40539753369E+02 -0.74261461515E+02  0.84740701426E+02  0.00000000000E+00 0.  1.
</event>
<event>
12    1  0.1046899E+000  0.1920620E+03  0.7818608E-02  0.1156950E+00
         21   -1    0    0  501  502  0.00000000000E+00  0.00000000000E+00  0.71889767332E+03  0.71889767332E+03  0.00000000000E+00 0. -1.
         21   -1    0    0  502  503 -0.00000000000E+00 -0.00000000000E+00 -0.51665213050E+02  0.51665213050E+02  0.00000000000E+00 0. -1.
         -6    2    1    2    0  503  0.49442974789E+02  0.64914936673E+02  0.38146382975E+03  0.42708600435E+03  0.17386559449E+03 0.  0.
        -24    2    3    3    0    0  0.42604164118E+02  0.10748626177E+03  0.23234655161E+03  0.27178906397E+03  0.80721521176E+02 0.  0.
          6    2    1    2  501    0 -0.49442974789E+02 -0.64914936673E+02  0.28576863053E+03  0.34347688202E+03  0.17220366295E+03 0.  0.
         24    2    5    5    0    0  0.34870218964E+02 -0.49678880704E+02  0.19114933686E+03  0.21574375094E+03  0.79519643669E+02 0.  0.
          5    1    5    5  501    0 -0.84313193753E+02 -0.15236055969E+02  0.94619293670E+02  0.12773313109E+03  0.47000000000E+01 0. -1.
        -13    1    6    6    0    0 -0.87150593354E+01 -0.20033938498E+01  0.11725663199E+03  0.11759712408E+03  0.00000000000E+00 0.  1.
         14    1    6    6    0    0  0.43585278300E+02 -0.47675486855E+02  0.73892704870E+02  0.98146626861E+02  0.00000000000E+00 0. -1.
         -5    1    3    3    0  503  0.68388106712E+01 -0.42571325094E+02  0.14911727814E+03  0.15529694038E+03  0.47000000000E+01 0.  1.
         11    1    4    4    0    0 -0.28517522774E+01 -0.69104867061E+01  0.57344731739E+02  0.57829971259E+02  0.00000000000E+00 0. -1.
        -12    1    4    4    0    0  0.45455916395E+02  0.11439674847E+03  0.17500181987E+03  0.21395909271E+03  0.00000000000E+00 0.  1.
</event>
<event>
12    1  0.1046899E+000  0.4702804E+03  0.7818608E-02  0.1022129E+00
         21   -1    0    0  503  502  0.00000000000E+00  0.00000000000E+00  0.67521543413E+03  0.67521543413E+03  0.00000000000E+00 0. -1.
         21   -1    0    0  501  503 -0.00000000000E+00 -0.00000000000E+00 -0.35842662189E+03  0.35842662189E+03  0.00000000000E+00 0. -1.
          6    2    1    2  501    0  0.30555959649E+02 -0.43597472032E+03  0.31626718747E+03  0.56336134161E+03  0.16230663546E+03 0.  0.
         24    2    3    3    0    0 -0.27639210956E+02 -0.28096264837E+03  0.14753043659E+03  0.32690922927E+03  0.73487949338E+02 0.  0.
         -6    2    1    2    0  502 -0.30555959649E+02  0.43597472032E+03  0.52162476787E+00  0.47028071441E+03  0.17365498789E+03 0.  0.
        -24    2    5    5    0    0 -0.35033930998E+02  0.32732343935E+03 -0.61542456068E+02  0.34498429301E+03  0.82817137460E+02 0.  0.
          5    1    3    3  501    0  0.58195170605E+02 -0.15501207196E+03  0.16873675088E+03  0.23645211234E+03  0.47000000000E+01 0. -1.
        -13    1    4    4    0    0  0.19343231999E+02 -0.17175797025E+03  0.87712452462E+02  0.19382578591E+03  0.00000000000E+00 0.  1.
         14    1    4    4    0    0 -0.46982442955E+02 -0.10920467812E+03  0.59817984132E+02  0.13308344335E+03  0.00000000000E+00 0. -1.
         -5    1    5    5    0  502  0.44779713488E+01  0.10865128097E+03  0.62064080836E+02  0.12529642139E+03  0.47000000000E+01 0.  1.
         13    1    6    6    0    0 -0.58069572585E+02  0.27469782263E+03 -0.62015432999E+02  0.28753588115E+03  0.00000000000E+00 0. -1.
        -14    1    6    6    0    0  0.23035641587E+02  0.52625616722E+02  0.47297693056E+00  0.57448411866E+02  0.00000000000E+00 0.  1.
</event>
<event>
12    1  0.1046899E+000  0.2421140E+03  0.7818608E-02  0.1118438E+00
         21   -1    0    0  501  502  0.00000000000E+00  0.00000000000E+00  0.23630173208E+04  0.23630173208E+04  0.00000000000E+00 0.  1.
         21   -1    0    0  502  503 -0.00000000000E+00 -0.00000000000E+00 -0.28294085143E+02  0.28294085143E+02  0.00000000000E+00 0.  1.
         -6    2    1    2    0  503  0.14664976309E+03 -0.83616402246E+02  0.15894086875E+04  0.16077435013E+04  0.17355498944E+03 0.  0.
        -24    2    3    3    0    0  0.12656090043E+03 -0.94646206834E+02  0.86991683364E+03  0.88787140381E+03  0.81146572692E+02 0.  0.
          6    2    1    2  501    0 -0.14664976309E+03  0.83616402246E+02  0.74531454818E+03  0.78356790466E+03  0.17316763481E+03 0.  0.
         24    2    5    5    0    0 -0.47163356919E+02  0.89038616268E+01  0.15907737576E+03  0.18425528084E+03  0.79628738857E+02 0.  0.
          5    1    5    5  501    0 -0.99486406168E+02  0.74712540619E+02  0.58623717242E+03  0.59931262382E+03  0.47000000000E+01 0. -1.
        -11    1    6    6    0    0 -0.49275164288E+02 -0.73362898518E+01  0.16027075895E+03  0.16783497591E+03  0.00000000000E+00 0.  1.
         12    1    6    6    0    0  0.21118073693E+01  0.16240151479E+02 -0.11933831967E+01  0.16420304926E+02  0.00000000000E+00 0. -1.
         -5    1    3    3    0  503  0.20088862661E+02  0.11029804588E+02  0.71949185386E+03  0.71987209750E+03  0.47000000000E+01 0.  1.
         11    1    4    4    0    0  0.45060670914E+02 -0.86210066180E+01  0.11677522230E+03  0.12546409192E+03  0.00000000000E+00 0. -1.
        -12    1    4    4    0    0  0.81500229513E+02 -0.86025200216E+02  0.75314161134E+03  0.76240731188E+03  0.00000000000E+00 0.  1.
</event>
<event>
12    1  0.1046899E+000  0.2660690E+03  0.7818608E-02  0.1103816E+00
         21   -1    0    0  503  502  0.00000000000E+00  0.00000000000E+00  0.11054106107E+04  0.11054106107E+04  0.00000000000E+00 0.  1.
         21   -1    0    0  501  503 -0.00000000000E+00 -0.00000000000E+00 -0.11776748024E+03  0.11776748024E+03  0.00000000000E+00 0.  1.
          6    2    1    2  501    0  0.19247409793E+03 -0.56166544261E+02  0.90948811750E+03  0.94760822449E+03  0.17490498044E+03 0.  0.
         24    2    3    3    0    0  0.39679930823E+02  0.76885617462E+01  0.21171051980E+03  0.23043377018E+03  0.81515442426E+02 0.  0.
         -6    2    1    2    0  502 -0.19247409793E+03  0.56166544261E+02  0.78155012919E+02  0.27556986640E+03  0.17213246689E+03 0.  0.
        -24    2    5    5    0    0 -0.21781945562E+03  0.49441998298E+02  0.68455234174E+02  0.24721881029E+03  0.80877652243E+02 0.  0.
          5    1    3    3  501    0  0.15279416711E+03 -0.63855106007E+02  0.69777759770E+03  0.71717445431E+03  0.47000000000E+01 0. -1.
        -13    1    4    4    0    0  0.17663618432E+02 -0.30729308984E+02  0.41586922246E+02  0.54642162737E+02  0.00000000000E+00 0.  1.
         14    1    4    4    0    0  0.22016312391E+02  0.38417870730E+02  0.17012359755E+03  0.17579160744E+03  0.00000000000E+00 0. -1.
         -5    1    5    5    0  502  0.25345357694E+02  0.67245459628E+01  0.96997787452E+01  0.28351056113E+02  0.47000000000E+01 0.  1.
         11    1    6    6    0    0 -0.87313653019E+02 -0.69659297834E+01 -0.39277650746E+01  0.87679105378E+02  0.00000000000E+00 0. -1.
        -12    1    6    6    0    0 -0.13050580260E+03  0.56407928081E+02  0.72382999249E+02  0.15953970491E+03  0.00000000000E+00 0.  1.
</event>
<event>
12    1  0.1046899E+000  0.1869891E+03  0.7818608E-02  0.1161834E+00
         21   -1    0    0  503  502  0.00000000000E+00  0.00000000000E+00  0.67802609991E+02  0.67802609991E+02  0.00000000000E+00 0.  1.
         21   -1    0    0  501  503 -0.00000000000E+00 -0.00000000000E+00 -0.57075949695E+03  0.57075949695E+03  0.00000000000E+00 0.  1.
          6    2    1    2  501    0 -0.33003427309E+01 -0.65281888366E+02 -0.35551404230E+03  0.40043543437E+03  0.17229534414E+03 0.  0.
         24    2    3    3    0    0 -0.43694112588E+02 -0.89954576685E+02 -0.19668971601E+03  0.23464142116E+03  0.79804453517E+02 0.  0.
         -6    2    1    2    0  502  0.33003427309E+01  0.65281888366E+02 -0.14744284466E+03  0.23812667257E+03  0.17519218743E+03 0.  0.
        -24    2    5    5    0    0  0.37209647412E+00  0.10873123598E+03 -0.14030001020E+03  0.19374727963E+03  0.77661414923E+02 0.  0.
          5    1    3    3  501    0  0.40393769857E+02  0.24672688319E+02 -0.15882432629E+03  0.16579401320E+03  0.47000000000E+01 0. -1.
        -11    1    4    4    0    0 -0.17742699560E+02  0.12707765134E+02 -0.39126463775E+02  0.44801460355E+02  0.00000000000E+00 0.  1.
         12    1    4    4    0    0 -0.25951413027E+02 -0.10266234182E+03 -0.15756325223E+03  0.18983996081E+03  0.00000000000E+00 0. -1.
         -5    1    5    5    0  502  0.29282462568E+01 -0.43449347612E+02 -0.71428344594E+01  0.44379392945E+02  0.47000000000E+01 0.  1.
         11    1    6    6    0    0 -0.23798701191E+02  0.46431891719E+02 -0.19508090082E+02  0.55703360093E+02  0.00000000000E+00 0. -1.
        -12    1    6    6    0    0  0.24170797665E+02  0.62299344259E+02 -0.12079192012E+03  0.13804391953E+03  0.00000000000E+00 0.  1.
</event>
<event>
12    1  0.1046899E+000  0.1808517E+03  0.7818608E-02  0.1167680E+00
         21   -1    0    0  501  502  0.00000000000E+00  0.00000000000E+00  0.56522742955E+02  0.56522742955E+02  0.00000000000E+00 0. -1.
         21   -1    0    0  502  503 -0.00000000000E+00 -0.00000000000E+00 -0.57176750831E+03  0.57176750831E+03  0.00000000000E+00 0. -1.
         -6    2    1    2    0  503  0.21632497568E+02  0.42904821797E+02 -0.27545898646E+03  0.32794952926E+03  0.17136059008E+03 0.  0.
        -24    2    3    3    0    0  0.77270270922E+02  0.16064176878E+02 -0.17948429519E+03  0.21371637554E+03  0.85037194258E+02 0.  0.
          6    2    1    2  501    0 -0.21632497568E+02 -0.42904821797E+02 -0.23978577889E+03  0.30034072200E+03  0.17435177330E+03 0.  0.
         24    2    5    5    0    0 -0.50071423775E+02 -0.30686689360E+02 -0.56979717107E+02  0.11487320056E+03  0.80624708767E+02 0.  0.
          5    1    5    5  501    0  0.28438926206E+02 -0.12218132437E+02 -0.18280606178E+03  0.18546752144E+03  0.47000000000E+01 0. -1.
        -13    1    6    6    0    0  0.12043042145E+02  0.16444293408E+02 -0.44643793363E+01  0.20865769400E+02  0.00000000000E+00 0.  1.
         14    1    6    6    0    0 -0.62114465919E+02 -0.47130982768E+02 -0.52515337770E+02  0.94007431165E+02  0.00000000000E+00 0. -1.
         -5    1    3    3    0  503 -0.55637773354E+02  0.26840644919E+02 -0.95974691270E+02  0.11423315372E+03  0.47000000000E+01 0.  1.
         13    1    4    4    0    0  0.65426009921E+02  0.10929067044E+02 -0.18724947546E+03  0.19865138646E+03  0.00000000000E+00 0. -1.
        -14    1    4    4    0    0  0.11844261001E+02  0.51351098338E+01  0.77651802661E+01  0.15064989089E+02  0.00000000000E+00 0.  1.
</event>
<event>
12    1  0.1046899E+000  0.2362833E+03  0.7818608E-02  0.1123162E+00
         21   -1    0    0  503  502  0.00000000000E+00  0.00000000000E+00  0.30569338766E+03  0.30569338766E+03  0.00000000000E+00 0. -1.
         21   -1    0    0  501  503 -0.00000000000E+00 -0.00000000000E+00 -0.21876017410E+03  0.21876017410E+03  0.00000000000E+00 0. -1.
          6    2    1    2  501    0  0.15760250600E+03  0.25249311615E+02 -0.69056613712E+02  0.24132347262E+03  0.16730847231E+03 0.  0.
         24    2    3    3    0    0  0.12693855344E+03 -0.29717140693E+02 -0.77188734520E+01  0.15331212536E+03  0.80302689717E+02 0.  0.
         -6    2    1    2    0  502 -0.15760250600E+03 -0.25249311615E+02  0.15598982727E+03  0.28313008914E+03  0.17422325772E+03 0.  0.
        -24    2    5    5    0    0 -0.74211334478E+02  0.51406571155E+02  0.99409799529E+02  0.15642728179E+03  0.80232340886E+02 0.  0.
          5    1    3    3  501    0  0.30663952559E+02  0.54966452308E+02 -0.61337740260E+02  0.88011347258E+02  0.47000000000E+01 0. -1.
        -11    1    4    4    0    0  0.25149032527E+02 -0.20430251279E+02 -0.34824376002E+02  0.47566859980E+02  0.00000000000E+00 0.  1.
         12    1    4    4    0    0  0.10178952091E+03 -0.92868894136E+01  0.27105502550E+02  0.10574526538E+03  0.00000000000E+00 0. -1.
         -5    1    5    5    0  502 -0.83391171522E+02 -0.76655882770E+02  0.56580027739E+02  0.12670280735E+03  0.47000000000E+01 0.  1.
         11    1    6    6    0    0 -0.28150873324E+02 -0.38600419633E+01 -0.57716535537E+01  0.28994543928E+02  0.00000000000E+00 0. -1.
        -12    1    6    6    0    0 -0.46060461153E+02  0.55266613118E+02  0.10518145308E+03  0.12743273786E+03  0.00000000000E+00 0.  1.
</event>
<event>
12    1  0.1046899E+000  0.1973168E+03  0.7818608E-02  0.1152229E+00
         21   -1    0    0  501  502  0.00000000000E+00  0.00000000000E+00  0.25220603249E+04  0.25220603249E+04  0.00000000000E+00 0.  1.
         21   -1    0    0  502  503 -0.00000000000E+00 -0.00000000000E+00 -0.22112365082E+02  0.22112365082E+02  0.00000000000E+00 0.  1.
         -6    2    1    2    0  503  0.63233379930E+02 -0.73320468955E+02  0.19548987817E+04  0.19648315832E+04  0.17192891535E+03 0.  0.
        -24    2    3    3    0    0  0.93196259363E+02 -0.69840879295E+02  0.18550184612E+04  0.18603899721E+04  0.79962902919E+02 0.  0.
          6    2    1    2  501    0 -0.63233379930E+02  0.73320468955E+02  0.54504917804E+03  0.57934110676E+03  0.17083079346E+03 0.  0.
         24    2    5    5    0    0 -0.91230448901E+02  0.99708549690E+02  0.40937330230E+03  0.43823759888E+03  0.78745811026E+02 0.  0.
          5    1    5    5  501    0  0.27997068971E+02 -0.26388080735E+02  0.13567587575E+03  0.14110350788E+03  0.47000000000E+01 0. -1.
        -11    1    6    6    0    0 -0.11547827899E+01  0.15814600186E+02  0.15327457326E+03  0.15409260174E+03  0.00000000000E+00 0.  1.
         12    1    6    6    0    0 -0.90075666111E+02  0.83893949504E+02  0.25609872904E+03  0.28414499714E+03  0.00000000000E+00 0. -1.
         -5    1    3    3    0  503 -0.29962879432E+02 -0.34795896592E+01  0.99880320540E+02  0.10444161105E+03  0.47000000000E+01 0.  1.
         13    1    4    4    0    0  0.59197593826E+01 -0.36317346690E+02  0.91352918219E+03  0.91426996009E+03  0.00000000000E+00 0. -1.
        -14    1    4    4    0    0  0.87276499980E+02 -0.33523532606E+02  0.94148927902E+03  0.94612001205E+03  0.00000000000E+00 0.  1.
</event>
<event>
12    1  0.1046899E+000  0.2332056E+03  0.7818608E-02  0.1125146E+00
         21   -1    0    0  503  502  0.00000000000E+00  0.00000000000E+00  0.34916695804E+03  0.34916695804E+03  0.00000000000E+00 0.  1.
         21   -1    0    0  501  503 -0.00000000000E+00 -0.00000000000E+00 -0.16708651370E+03  0.16708651370E+03  0.00000000000E+00 0.  1.
          6    2    1    2  501    0 -0.52854356235E+02 -0.14877979951E+03  0.16694766480E+03  0.28680369468E+03  0.17162699318E+03 0.  0.
         24    2    3    3    0    0 -0.46645487761E+02 -0.17452356628E+03  0.11502873383E+03  0.22833184703E+03  0.79180465044E+02 0.  0.
         -6    2    1    2    0  502  0.52854356235E+02  0.14877979951E+03  0.15132779541E+02  0.22944977706E+03  0.16579863528E+03 0.  0.
        -24    2    5    5    0    0  0.82615431173E+02  0.52749679853E+02  0.22189554300E+02  0.12855679647E+03  0.80166298442E+02 0.  0.
          5    1    3    3  501    0 -0.62088684735E+01  0.25743766774E+02  0.51918930965E+02  0.58471847653E+02  0.47000000000E+01 0. -1.
        -13    1    4    4    0    0  0.20568547738E+02 -0.64720712138E+02  0.48211845107E+02  0.83283958506E+02  0.00000000000E+00 0.  1.
         14    1    4    4    0    0 -0.67214035500E+02 -0.10980285415E+03  0.66816888725E+02  0.14504788853E+03  0.00000000000E+00 0. -1.
         -5    1    5    5    0  502 -0.29761074938E+02  0.96030119658E+02 -0.70567747592E+01  0.10089298059E+03  0.47000000000E+01 0.  1.
         11    1    6    6    0    0  0.29050011081E+02  0.51301106578E+02  0.40951048408E+02  0.71782275288E+02  0.00000000000E+00 0. -1.
        -12    1    6    6    0    0  0.53565420092E+02  0.14485732752E+01 -0.18761494107E+02  0.56774521181E+02  0.00000000000E+00 0.  1.
</event>
<event>
12    1  0.1046899E+000  0.1878536E+03  0.7818608E-02  0.1160434E+00
         21   -1    0    0  503  502  0.00000000000E+00  0.00000000000E+00  0.16443427404E+03  0.16443427404E+03  0.00000000000E+00 0. -1.
         21   -1    0    0  501  503 -0.00000000000E+00 -0.00000000000E+00 -0.26883964220E+03  0.26883964220E+03  0.00000000000E+00 0. -1.
          6    2    1    2  501    0  0.74331405322E+02  0.15556444309E+02  0.45206335116E+02  0.19312259945E+03  0.17171361306E+03 0.  0.
         24    2    3    3    0    0  0.27563983649E+02  0.14661871423E+02 -0.41384738838E+02  0.94592928394E+02  0.79122574688E+02 0.  0.
         -6    2    1    2    0  502 -0.74331405322E+02 -0.15556444309E+02 -0.14961170328E+03  0.24015131679E+03  0.17181918524E+03 0.  0.
        -24    2    5    5    0    0 -0.45955026382E+02  0.42698387316E+02 -0.14219441782E+03  0.17476056505E+03  0.79918620531E+02 0.  0.
          5    1    3    3  501    0  0.46767421673E+02  0.89457288623E+00  0.86591073955E+02  0.98529671060E+02  0.47000000000E+01 0. -1.
        -11    1    4    4    0    0  0.79033805275E+01 -0.27584888678E+02 -0.38349743414E+02  0.47896683884E+02  0.00000000000E+00 0.  1.
         12    1    4    4    0    0  0.19660603122E+02  0.42246760101E+02 -0.30349954246E+01  0.46696244510E+02  0.00000000000E+00 0. -1.
         -5    1    5    5    0  502 -0.28376378940E+02 -0.58254831625E+02 -0.74172854659E+01  0.65390751739E+02  0.47000000000E+01 0.  1.
         13    1    6    6    0    0 -0.17001760664E+02  0.43104866040E+02 -0.13791363838E+03  0.14548972814E+03  0.00000000000E+00 0. -1.
        -14    1    6    6    0    0 -0.28953265718E+02 -0.40647872408E+00 -0.42807794354E+01  0.29270836907E+02  0.00000000000E+00 0.  1.
</event>
<event>
12    1  0.1046899E+000  0.2089697E+03  0.7818608E-02  0.1142740E+00
         21   -1    0    0  501  502  0.00000000000E+00  0.00000000000E+00  0.18917174046E+04  0.18917174046E+04  0.00000000000E+00 0.  1.
         21   -1    0    0  502  503 -0.00000000000E+00 -0.00000000000E+00 -0.23755545112E+02  0.23755545112E+02  0.00000000000E+00 0.  1.
         -6    2    1    2    0  503  0.25506640119E+02 -0.11230815800E+03  0.11131367276E+04  0.11322556517E+04  0.17223755560E+03 0.  0.
        -24    2    3    3    0    0  0.33771424199E+02 -0.14677305184E+03  0.92850897029E+03  0.94419812244E+03  0.81843440004E+02 0.  0.
          6    2    1    2  501    0 -0.25506640119E+02  0.11230815800E+03  0.75482513190E+03  0.78321729796E+03  0.17436927781E+03 0.  0.
         24    2    5    5    0    0 -0.57410418974E+02  0.83816085571E+01  0.31784074895E+03  0.33288850728E+03  0.80161144037E+02 0.  0.
          5    1    5    5  501    0  0.31903778855E+02  0.10392654945E+03  0.43698438294E+03  0.45032879069E+03  0.47000000000E+01 0. -1.
        -11    1    6    6    0    0 -0.47920837541E+02  0.40630991738E+02  0.24023725960E+03  0.24831678369E+03  0.00000000000E+00 0.  1.
         12    1    6    6    0    0 -0.94895814323E+01 -0.32249383180E+02  0.77603489350E+02  0.84571723588E+02  0.00000000000E+00 0. -1.
         -5    1    3    3    0  503 -0.82647840799E+01  0.34464893838E+02  0.18462775727E+03  0.18805752928E+03  0.47000000000E+01 0.  1.
         11    1    4    4    0    0  0.44942506434E+02 -0.73976780244E+02  0.66432851888E+03  0.66994385877E+03  0.00000000000E+00 0. -1.
        -12    1    4    4    0    0 -0.11171082235E+02 -0.72796271597E+02  0.26418045140E+03  0.27425426367E+03  0.00000000000E+00 0.  1.
</event>
<event>
12    1  0.1046899E+000  0.3331268E+03  0.7818608E-02  0.1069901E+00
         21   -1    0    0  501  502  0.00000000000E+00  0.00000000000E+00  0.30892771635E+03  0.30892771635E+03  0.00000000000E+00 0. -1.
         21   -1    0    0  502  503 -0.00000000000E+00 -0.00000000000E+00 -0.42341862596E+03  0.42341862596E+03  0.00000000000E+00 0. -1.
         -6    2    1    2    0  503 -0.73225632720E+02 -0.27556121983E+03  0.86938371907E+02  0.34305570967E+03  0.16980270982E+03 0.  0.
        -24    2    3    3    0    0 -0.58348300568E+02 -0.59343788950E+02  0.25061808413E+02  0.11761810957E+03  0.79244659070E+02 0.  0.
          6    2    1    2  501    0  0.73225632720E+02  0.27556121983E+03 -0.20142928152E+03  0.38929063264E+03  0.17227147774E+03 0.  0.
         24    2    5    5    0    0  0.44532335132E+02  0.18870570220E+03 -0.20998611089E+03  0.29729880909E+03  0.81850132613E+02 0.  0.
          5    1    5    5  501    0  0.28693297588E+02  0.86855517639E+02  0.85568293670E+01  0.91991823547E+02  0.47000000000E+01 0. -1.
        -13    1    6    6    0    0 -0.11424277501E+02  0.10424043748E+03 -0.76924280655E+02  0.13005355772E+03  0.00000000000E+00 0.  1.
         14    1    6    6    0    0  0.55956612634E+02  0.84465264720E+02 -0.13306183023E+03  0.16724525137E+03  0.00000000000E+00 0. -1.
         -5    1    3    3    0  503 -0.14877332152E+02 -0.21621743088E+03  0.61876563495E+02  0.22543760010E+03  0.47000000000E+01 0.  1.
         13    1    4    4    0    0 -0.34817026181E+02 -0.37335129933E+02 -0.25962235645E+02  0.57272811341E+02  0.00000000000E+00 0. -1.
        -14    1    4    4    0    0 -0.23531274387E+02 -0.22008659017E+02  0.51024044058E+02  0.60345298226E+02  0.00000000000E+00 0.  1.
</event>
<event>
12    1  0.1046899E+000  0.2934819E+03  0.7818608E-02  0.1088759E+00
         21   -1    0    0  503  502  0.00000000000E+00  0.00000000000E+00  0.83692512960E+02  0.83692512960E+02  0.00000000000E+00 0. -1.
         21   -1    0    0  501  503 -0.00000000000E+00 -0.00000000000E+00 -0.10456155549E+04  0.10456155549E+04  0.00000000000E+00 0. -1.
          6    2    1    2  501    0 -0.12551376173E+03  0.20159446680E+03 -0.56469648925E+03  0.63640689407E+03  0.17244586517E+03 0.  0.
         24    2    3    3    0    0 -0.87045949469E+02  0.15003577227E+03 -0.24540273788E+03  0.31066364974E+03  0.78750677653E+02 0.  0.
         -6    2    1    2    0  502  0.12551376173E+03 -0.20159446680E+03 -0.39722655273E+03  0.49290117384E+03  0.16961308778E+03 0.  0.
        -24    2    5    5    0    0  0.50053436992E+01 -0.42739985713E+02 -0.96164511985E+02  0.13176758725E+03  0.79141164013E+02 0.  0.
          5    1    3    3  501    0 -0.38467812259E+02  0.51558694537E+02 -0.31929375137E+03  0.32574324433E+03  0.47000000000E+01 0. -1.
        -13    1    4    4    0    0 -0.41090323079E+02  0.40854137200E+02 -0.14220727746E+03  0.15355906011E+03  0.00000000000E+00 0.  1.
         14    1    4    4    0    0 -0.45955626390E+02  0.10918163507E+03 -0.10319546042E+03  0.15710458963E+03  0.00000000000E+00 0. -1.
         -5    1    5    5    0  502  0.12050841803E+03 -0.15885448109E+03 -0.30106204075E+03  0.36113358658E+03  0.47000000000E+01 0.  1.
         13    1    6    6    0    0  0.46384425295E+01  0.23149913518E+02 -0.32267672710E+02  0.39982950705E+02  0.00000000000E+00 0. -1.
        -14    1    6    6    0    0  0.36690116967E+00 -0.65889899231E+02 -0.63896839275E+02  0.91784636549E+02  0.00000000000E+00 0.  1.
</event>
<event>
12    1  0.1046899E+000  0.1930251E+03  0.7818608E-02  0.1155916E+00
         21   -1    0    0  501  502  0.00000000000E+00  0.00000000000E+00  0.51350792951E+03  0.51350792951E+03  0.00000000000E+00 0.  1.
         21   -1    0    0  502  503 -0.00000000000E+00 -0.00000000000E+00 -0.96277613313E+02  0.96277613313E+02  0.00000000000E+00 0.  1.
         -6    2    1    2    0  503  0.68964008590E+02 -0.49330974971E+02  0.56152331592E+02  0.20035177916E+03  0.17262146882E+03 0.  0.
        -24    2    3    3    0    0  0.45344836567E+02 -0.45978282881E+02  0.10404889382E+03  0.14663700927E+03  0.80660296809E+02 0.  0.
          6    2    1    2  501    0 -0.68964008590E+02  0.49330974971E+02  0.36107798461E+03  0.40943376366E+03  0.17340448750E+03 0.  0.
         24    2    5    5    0    0 -0.30682473946E+02 -0.24054664332E+02  0.27945673679E+03  0.29309354686E+03  0.79295134709E+02 0.  0.
          5    1    5    5  501    0 -0.38281534645E+02  0.73385639303E+02  0.81621247811E+02  0.11634021680E+03  0.47000000000E+01 0. -1.
        -13    1    6    6    0    0 -0.19524853902E+02  0.14932019424E+02  0.21851293111E+03  0.21989107801E+03  0.00000000000E+00 0.  1.
         14    1    6    6    0    0 -0.11157620043E+02 -0.38986683756E+02  0.60943805683E+02  0.73202468855E+02  0.00000000000E+00 0. -1.
         -5    1    3    3    0  503  0.23619172023E+02 -0.33526920903E+01 -0.47896562231E+02  0.53714769895E+02  0.47000000000E+01 0.  1.
         11    1    4    4    0    0  0.56490648683E+02 -0.39275963635E+02  0.36572845771E+02  0.77918981999E+02  0.00000000000E+00 0. -1.
        -12    1    4    4    0    0 -0.11145812115E+02 -0.67023192461E+01  0.67476048052E+02  0.68718027269E+02  0.00000000000E+00 0.  1.
</event>
<event>
12    1  0.1046899E+000  0.2978022E+03  0.7818608E-02  0.1086373E+00
         21   -1    0    0  503  502  0.00000000000E+00  0.00000000000E+00  0.70859525080E+03  0.70859525080E+03  0.00000000000E+00 0. -1.
         21   -1    0    0  501  503 -0.00000000000E+00 -0.00000000000E+00 -0.13236744589E+03  0.13236744589E+03  0.00000000000E+00 0. -1.
          6    2    1    2  501    0 -0.38660631791E+02 -0.24076087441E+03  0.18922022281E+03  0.35263800639E+03  0.17055447146E+03 0.  0.
         24    2    3    3    0    0  0.16646992766E+02 -0.20997449946E+03  0.18146319663E+03  0.28869275112E+03  0.77770174411E+02 0.  0.
         -6    2    1    2    0  502  0.38660631791E+02  0.24076087441E+03  0.38700758210E+03  0.48832469030E+03  0.17095523231E+03 0.  0.
        -24    2    5    5    0    0  0.69631578748E+02  0.78625860564E+02  0.15550977821E+03  0.20396526022E+03  0.79924674211E+02 0.  0.
          5    1    3    3  501    0 -0.55307624556E+02 -0.30786374947E+02  0.77570261855E+01  0.63945255271E+02  0.47000000000E+01 0. -1.
        -13    1    4    4    0    0  0.25011662580E+02 -0.17853139719E+03  0.11265553366E+03  0.21258013151E+03  0.00000000000E+00 0.  1.
         14    1    4    4    0    0 -0.83646698148E+01 -0.31443102269E+02  0.68807662963E+02  0.76112619610E+02  0.00000000000E+00 0. -1.
         -5    1    5    5    0  502 -0.30970946958E+02  0.16213501385E+03  0.23149780389E+03  0.28435943008E+03  0.47000000000E+01 0.  1.
         13    1    6    6    0    0 -0.59007901995E+01 -0.11919834795E+02  0.23164892667E+02  0.26711683564E+02  0.00000000000E+00 0. -1.
        -14    1    6    6    0    0  0.75532368948E+02  0.90545695359E+02  0.13234488554E+03  0.17725357665E+03  0.00000000000E+00 0.  1.
</event>
<event>
12    1  0.1046899E+000  0.1735963E+03  0.7818608E-02  0.1174560E+00
         21   -1    0    0  503  502  0.00000000000E+00  0.00000000000E+00  0.12911667146E+04  0.12911667146E+04  0.00000000000E+00 0. -1.
         21   -1    0    0  501  503 -0.00000000000E+00 -0.00000000000E+00 -0.43635239700E+02  0.43635239700E+02  0.00000000000E+00 0. -1.
          6    2    1    2  501    0  0.17561458050E+02  0.60878510776E+01  0.10828940473E+04  0.10967202048E+04  0.17259844485E+03 0.  0.
         24    2    3    3    0    0  0.42343286326E+02  0.21236371074E+02  0.33135428030E+03  0.34460470298E+03  0.81931708700E+02 0.  0.
         -6    2    1    2    0  502 -0.17561458050E+02 -0.60878510776E+01  0.16463742762E+03  0.23808174954E+03  0.17097359489E+03 0.  0.
        -24    2    5    5    0    0 -0.68515516372E+02  0.14176902198E+02  0.65233974362E+02  0.12445907220E+03  0.79619273438E+02 0.  0.
          5    1    3    3  501    0 -0.24781828275E+02 -0.15148519997E+02  0.75153976697E+03  0.75211550178E+03  0.47000000000E+01 0. -1.
        -13    1    4    4    0    0  0.47278663141E+02  0.39446400002E+02  0.31023070906E+03  0.31628212613E+03  0.00000000000E+00 0.  1.
         14    1    4    4    0    0 -0.49353768154E+01 -0.18210028928E+02  0.21123571236E+02  0.28322576853E+02  0.00000000000E+00 0. -1.
         -5    1    5    5    0  502  0.50954058321E+02 -0.20264753275E+02  0.99403453261E+02  0.11362267734E+03  0.47000000000E+01 0.  1.
         11    1    6    6    0    0 -0.12109730519E+02  0.10412897201E+01 -0.18808477176E+02  0.22393942735E+02  0.00000000000E+00 0. -1.
        -12    1    6    6    0    0 -0.56405785852E+02  0.13135612478E+02  0.84042451538E+02  0.10206512947E+03  0.00000000000E+00 0.  1.
</event>
<event>
12    1  0.1046899E+000  0.1826931E+03  0.7818608E-02  0.1165471E+00
         21   -1    0    0  501  502  0.00000000000E+00  0.00000000000E+00  0.12053736254E+03  0.12053736254E+03  0.00000000000E+00 0. -1.
         21   -1    0    0  502  503 -0.00000000000E+00 -0.00000000000E+00 -0.61961661019E+03  0.61961661019E+03  0.00000000000E+00 0. -1.
         -6    2    1    2    0  503 -0.14537392194E+02  0.57530706728E+02 -0.52508708179E+03  0.55561890937E+03  0.17168229669E+03 0.  0.
        -24    2    3    3    0    0  0.93570376295E+01  0.52202524759E+02 -0.13561702895E+03  0.16535189134E+03  0.78336528416E+02 0.  0.
          6    2    1    2  501    0  0.14537392194E+02 -0.57530706728E+02  0.26007834150E+02  0.18453506336E+03  0.17278791678E+03 0.  0.
         24    2    5    5    0    0  0.38814794039E+02 -0.80357583254E+02  0.62853078556E+02  0.13463395548E+03  0.78815373260E+02 0.  0.
          5    1    5    5  501    0 -0.24277401845E+02  0.22826876527E+02 -0.36845244406E+02  0.49901107880E+02  0.47000000000E+01 0. -1.
        -11    1    6    6    0    0  0.49019599764E+02 -0.13833162949E+02  0.34974218373E+02  0.61785706348E+02  0.00000000000E+00 0.  1.
         12    1    6    6    0    0 -0.10204805724E+02 -0.66524420305E+02  0.27878860183E+02  0.72848249134E+02  0.00000000000E+00 0. -1.
         -5    1    3    3    0  503 -0.23894429823E+02  0.53281819685E+01 -0.38947005285E+03  0.39026701803E+03  0.47000000000E+01 0.  1.
         11    1    4    4    0    0  0.24668801348E+02  0.11852558817E+02 -0.50413823903E+01  0.27828913864E+02  0.00000000000E+00 0. -1.
        -12    1    4    4    0    0 -0.15311763718E+02  0.40349965942E+02 -0.13057564656E+03  0.13752297747E+03  0.00000000000E+00 0.  1.
</event>
<event>
12    1  0.1046899E+000  0.2434607E+03  0.7818608E-02  0.1117632E+00
         21   -1    0    0  501  502  0.00000000000E+00  0.00000000000E+00  0.53573109288E+03  0.53573109288E+03  0.00000000000E+00 0. -1.
         21   -1    0    0  502  503 -0.00000000000E+00 -0.00000000000E+00 -0.12088527097E+03  0.12088527097E+03  0.00000000000E+00 0. -1.
         -6    2    1    2    0  503  0.14532420305E+03 -0.91925310488E+02  0.30429219723E+03  0.38923044360E+03  0.17128108545E+03 0.  0.
        -24    2    3    3    0    0  0.25270879547E+02 -0.80361915916E+02  0.19266372542E+03  0.22482387957E+03  0.79560108420E+02 0.  0.
          6    2    1    2  501    0 -0.14532420305E+03  0.91925310488E+02  0.11055362468E+03  0.26738592025E+03  0.17234772908E+03 0.  0.
         24    2    5    5    0    0 -0.17257630727E+03  0.95634969556E+02  0.10984948450E+03  0.23947490866E+03  0.79703785340E+02 0.  0.
          5    1    5    5  501    0  0.27252104222E+02 -0.37096590676E+01  0.70414017125E+00  0.27911011596E+02  0.47000000000E+01 0. -1.
        -11    1    6    6    0    0 -0.58914674691E+02  0.77253525873E+02  0.42111959647E+02  0.10588891962E+03  0.00000000000E+00 0.  1.
         12    1    6    6    0    0 -0.11366163258E+03  0.18381443683E+02  0.67737524858E+02  0.13358598903E+03  0.00000000000E+00 0. -1.
         -5    1    3    3    0  503  0.12005332350E+03 -0.11563394573E+02  0.11162847181E+03  0.16440656403E+03  0.47000000000E+01 0.  1.
         13    1    4    4    0    0 -0.11344596796E+02  0.87862010347E+01  0.77640336282E+01  0.16314944783E+02  0.00000000000E+00 0. -1.
        -14    1    4    4    0    0  0.36615476343E+02 -0.89148116950E+02  0.18489969179E+03  0.20850893479E+03  0.00000000000E+00 0.  1.
</event>
<event>
12    1  0.1046899E+000  0.2302513E+03  0.7818608E-02  0.1127385E+00
         21   -1    0    0  501  502  0.00000000000E+00  0.00000000000E+00  0.64749442405E+03  0.64749442405E+03  0.00000000000E+00 0. -1.
         21   -1    0    0  502  503 -0.00000000000E+00 -0.00000000000E+00 -0.19746901921E+03  0.19746901921E+03  0.00000000000E+00 0. -1.
         -6    2    1    2    0  503 -0.98385051709E+02 -0.11730327846E+03 -0.10180423924E+03  0.24702397230E+03  0.16497594438E+03 0.  0.
        -24    2    3    3    0    0 -0.27759290468E+02 -0.26183693044E+02 -0.99087866335E+02  0.13161060357E+03  0.77761055351E+02 0.  0.
          6    2    1    2  501    0  0.98385051709E+02  0.11730327846E+03  0.55182964408E+03  0.59793947097E+03  0.17197667668E+03 0.  0.
         24    2    5    5    0    0  0.87285949462E+02  0.90370702237E+02  0.54841542180E+03  0.56823592494E+03  0.79667375558E+02 0.  0.
          5    1    5    5  501    0  0.11099102247E+02  0.26932576228E+02  0.34142222791E+01  0.29703546030E+02  0.47000000000E+01 0. -1.
        -11    1    6    6    0    0  0.10755044041E+02  0.40579890112E+02  0.31184698129E+03  0.31466003590E+03  0.00000000000E+00 0.  1.
         12    1    6    6    0    0  0.76530905420E+02  0.49790812125E+02  0.23656844051E+03  0.25357588904E+03  0.00000000000E+00 0. -1.
         -5    1    3    3    0  503 -0.70625761240E+02 -0.91119585421E+02 -0.27163729049E+01  0.11541336872E+03  0.47000000000E+01 0.  1.
         13    1    4    4    0    0 -0.54817021081E+01 -0.90941604778E+01  0.12582662329E+02  0.16464392005E+02  0.00000000000E+00 0. -1.
        -14    1    4    4    0    0 -0.22277588360E+02 -0.17089532566E+02 -0.11167052866E+03  0.11514621157E+03  0.00000000000E+00 0.  1.
</event>
<event>
12    1  0.1046899E+000  0.2779656E+03  0.7818608E-02  0.1096939E+00
         21   -1    0    0  501  502  0.00000000000E+00  0.00000000000E+00  0.15780519145E+03  0.15780519145E+03  0.00000000000E+00 0. -1.
         21   -1    0    0  502  503 -0.00000000000E+00 -0.00000000000E+00 -0.48961397064E+03  0.48961397064E+03  0.00000000000E+00 0. -1.
         -6    2    1    2    0  503 -0.21508339263E+03  0.31599667956E+02 -0.14659926853E+03  0.31340204105E+03  0.17166854400E+03 0.  0.
        -24    2    3    3    0    0 -0.12440580616E+03  0.82864543708E+02 -0.11797493283E+03  0.20527269827E+03  0.76651540563E+02 0.  0.
          6    2    1    2  501    0  0.21508339263E+03 -0.31599667956E+02 -0.18520951067E+03  0.33401712104E+03  0.17322086913E+03 0.  0.
         24    2    5    5    0    0  0.23034474494E+03 -0.49139258088E+02 -0.18511842474E+03  0.31029699471E+03  0.80882788900E+02 0.  0.
          5    1    5    5  501    0 -0.15261352308E+02  0.17539590132E+02 -0.91085924565E-01  0.23720126326E+02  0.47000000000E+01 0. -1.
        -11    1    6    6    0    0  0.12998417459E+03 -0.49083733848E+02 -0.14875606458E+03  0.20355211942E+03  0.00000000000E+00 0.  1.
         12    1    6    6    0    0  0.10036057035E+03 -0.55524240078E-01 -0.36362360165E+02  0.10674487529E+03  0.00000000000E+00 0. -1.
         -5    1    3    3    0  503 -0.90677586477E+02 -0.51264875752E+02 -0.28624335698E+02  0.10812934278E+03  0.47000000000E+01 0.  1.
         13    1    4    4    0    0 -0.24759973330E+01  0.20481440475E+02 -0.46303533906E+02  0.50691589232E+02  0.00000000000E+00 0. -1.
        -14    1    4    4    0    0 -0.12192980882E+03  0.62383103233E+02 -0.71671398927E+02  0.15458110904E+03  0.00000000000E+00 0.  1.
</event>
<event>
12    1  0.1046899E+000  0.1956376E+03  0.7818608E-02  0.1153674E+00
         21   -1    0    0  503  502  0.00000000000E+00  0.00000000000E+00  0.41719182761E+03  0.41719182761E+03  0.00000000000E+00 0.  1.
         21   -1    0    0  501  503 -0.00000000000E+00 -0.00000000000E+00 -0.92094096281E+02  0.92094096281E+02  0.00000000000E+00 0.  1.
          6    2    1    2  501    0 -0.69607186014E+02  0.62032232434E+02  0.18567515163E+03  0.26905120905E+03  0.17093897435E+03 0.  0.
         24    2    3    3    0    0 -0.47961471048E+02  0.54094947612E+02  0.35084026839E+02  0.11663298726E+03  0.84532826259E+02 0.  0.
         -6    2    1    2    0  502  0.69607186014E+02 -0.62032232434E+02  0.13942257970E+03  0.24023471485E+03  0.17199100059E+03 0.  0.
        -24    2    5    5    0    0  0.80512321943E+02 -0.33808138874E+02  0.17160671958E+02  0.11419668276E+03  0.71562346619E+02 0.  0.
          5    1    3    3  501    0 -0.21645714966E+02  0.79372848216E+01  0.15059112479E+03  0.15241822179E+03  0.47000000000E+01 0. -1.
        -13    1    4    4    0    0  0.82655489290E+01  0.53871924469E+02  0.22801093350E+02  0.59079551480E+02  0.00000000000E+00 0.  1.
         14    1    4    4    0    0 -0.56227019977E+02  0.22302314313E+00  0.12282933490E+02  0.57553435779E+02  0.00000000000E+00 0. -1.
         -5    1    5    5    0  502 -0.10905135928E+02 -0.28224093559E+02  0.12226190774E+03  0.12603803208E+03  0.47000000000E+01 0.  1.
         11    1    6    6    0    0  0.70400965342E+01  0.20386486831E+02  0.21703748386E+01  0.21676769397E+02  0.00000000000E+00 0. -1.
        -12    1    6    6    0    0  0.73472225408E+02 -0.54194625706E+02  0.14990297120E+02  0.92519913368E+02  0.00000000000E+00 0.  1.
</event>
<event>
12    1  0.1046899E+000  0.1740957E+03  0.7818608E-02  0.1173732E+00
         21   -1    0    0  503  502  0.00000000000E+00  0.00000000000E+00  0.19453437144E+04  0.19453437144E+04  0.00000000000E+00 0.  1.
         21   -1    0    0  501  503 -0.00000000000E+00 -0.00000000000E+00 -0.15667446282E+02  0.15667446282E+02  0.00000000000E+00 0.  1.
          6    2    1    2  501    0 -0.14824885012E+02 -0.17631481879E+02  0.88051302012E+03  0.89755918200E+03  0.17256494491E+03 0.  0.
         24    2    3    3    0    0 -0.35378660724E+02  0.49814895144E+02  0.42004512026E+03  0.43170056796E+03  0.78703900211E+02 0.  0.
         -6    2    1    2    0  502  0.14824885012E+02  0.17631481879E+02  0.10491632480E+04  0.10634519787E+04  0.17220901155E+03 0.  0.
        -24    2    5    5    0    0 -0.28264620008E+02 -0.18380051337E+02  0.89783158378E+03  0.90196854746E+03  0.79429168049E+02 0.  0.
          5    1    3    3  501    0  0.20553775713E+02 -0.67446377023E+02  0.46046789986E+03  0.46585861403E+03  0.47000000000E+01 0. -1.
        -11    1    4    4    0    0 -0.41899823714E+02  0.42402919836E+02  0.41718468294E+03  0.42142219035E+03  0.00000000000E+00 0.  1.
         12    1    4    4    0    0  0.65211629895E+01  0.74119753079E+01  0.28604373242E+01  0.10278377615E+02  0.00000000000E+00 0. -1.
         -5    1    5    5    0  502  0.43089505020E+02  0.36011533216E+02  0.15133166422E+03  0.16148343123E+03  0.47000000000E+01 0.  1.
         13    1    6    6    0    0 -0.19851531575E+02  0.15263647500E+02  0.73769193667E+03  0.73811683064E+03  0.00000000000E+00 0. -1.
        -14    1    6    6    0    0 -0.84130884325E+01 -0.33643698837E+02  0.16013964711E+03  0.16385171682E+03  0.00000000000E+00 0.  1.
</event>
<event>
12    1  0.1046899E+000  0.2160414E+03  0.7818608E-02  0.1136889E+00
         21   -1    0    0  503  502  0.00000000000E+00  0.00000000000E+00  0.66354569028E+03  0.66354569028E+03  0.00000000000E+00 0.  1.
         21   -1    0    0  501  503 -0.00000000000E+00 -0.00000000000E+00 -0.81052791538E+02  0.81052791538E+02  0.00000000000E+00 0.  1.
          6    2    1    2  501    0  0.90396679809E+02  0.94433071419E+02  0.42674876759E+03  0.47827135856E+03  0.17187151329E+03 0.  0.
         24    2    3    3    0    0  0.77183436062E+01  0.47757767029E+02  0.96167462957E+02  0.13429406238E+03  0.80289084679E+02 0.  0.
         -6    2    1    2    0  502 -0.90396679809E+02 -0.94433071419E+02  0.15574413116E+03  0.26632712326E+03  0.17200214387E+03 0.  0.
        -24    2    5    5    0    0 -0.28938708754E+02 -0.90966944401E+02  0.16288585894E+03  0.20418059867E+03  0.77752684801E+02 0.  0.
          5    1    3    3  501    0  0.82678336202E+02  0.46675304390E+02  0.33058130463E+03  0.34397729618E+03  0.47000000000E+01 0. -1.
        -13    1    4    4    0    0 -0.60685672099E+01  0.20008020996E+01  0.84971197983E+02  0.85211121361E+02  0.00000000000E+00 0.  1.
         14    1    4    4    0    0  0.13786910816E+02  0.45756964929E+02  0.11196264974E+02  0.49082941016E+02  0.00000000000E+00 0. -1.
         -5    1    5    5    0  502 -0.61457971055E+02 -0.34661270180E+01 -0.71417277826E+01  0.62146524589E+02  0.47000000000E+01 0.  1.
         13    1    6    6    0    0  0.14130479895E+02 -0.68024161076E+02  0.12253060726E+03  0.14085704338E+03  0.00000000000E+00 0. -1.
        -14    1    6    6    0    0 -0.43069188649E+02 -0.22942783325E+02  0.40355251675E+02  0.63323555296E+02  0.00000000000E+00 0.  1.
</event>
<event>
12    1  0.1046899E+000  0.1761413E+03  0.7818608E-02  0.1171625E+00
         21   -1    0    0  503  502  0.00000000000E+00  0.00000000000E+00  0.53593999263E+03  0.53593999263E+03  0.00000000000E+00 0. -1.
         21   -1    0    0  501  503 -0.00000000000E+00 -0.00000000000E+00 -0.58102004259E+02  0.58102004259E+02  0.00000000000E+00 0. -1.
          6    2    1    2  501    0 -0.78037699499E+01  0.30065317484E+02  0.21926871375E+03  0.28125524075E+03  0.17338085096E+03 0.  0.
         24    2    3    3    0    0  0.14352507057E+02 -0.41928526064E+02  0.12767046094E+03  0.16256933578E+03  0.90360647319E+02 0.  0.
         -6    2    1    2    0  502  0.78037699499E+01 -0.30065317484E+02  0.25856927462E+03  0.31278675613E+03  0.17324163154E+03 0.  0.
        -24    2    5    5    0    0  0.19904945682E+01  0.73915741234E+01  0.36828240625E+02  0.87780113888E+02  0.79312241489E+02 0.  0.
          5    1    3    3  501    0 -0.22156277007E+02  0.71993843547E+02  0.91598252812E+02  0.11868590497E+03  0.47000000000E+01 0. -1.
        -13    1    4    4    0    0  0.16577422799E+02 -0.34757563961E+02  0.40497099473E+01  0.38720787050E+02  0.00000000000E+00 0.  1.
         14    1    4    4    0    0 -0.22249157421E+01 -0.71709621032E+01  0.12362075099E+03  0.12384854873E+03  0.00000000000E+00 0. -1.
         -5    1    5    5    0  502  0.58132753817E+01 -0.37456891607E+02  0.22174103399E+03  0.22500664225E+03  0.47000000000E+01 0.  1.
         13    1    6    6    0    0 -0.24698357996E+02  0.24307622445E+02  0.43367592049E+02  0.55512317883E+02  0.00000000000E+00 0. -1.
        -14    1    6    6    0    0  0.26688852564E+02 -0.16916048321E+02 -0.65393514240E+01  0.32267796005E+02  0.00000000000E+00 0.  1.
</event>
<event>
12    1  0.1046899E+000  0.2918874E+03  0.7818608E-02  0.1089784E+00
         21   -1    0    0  503  502  0.00000000000E+00  0.00000000000E+00  0.34444795723E+03  0.34444795723E+03  0.00000000000E+00 0.  1.
         21   -1    0    0  501  503 -0.00000000000E+00 -0.00000000000E+00 -0.26235075521E+03  0.26235075521E+03  0.00000000000E+00 0. -1.
          6    2    1    2  501    0  0.19490678826E+03  0.13067585293E+03  0.11965275472E+03  0.31250522913E+03  0.16816034572E+03 0.  0.
         24    2    3    3    0    0  0.17772979406E+03  0.83056393200E+02  0.14417011739E+03  0.25606186684E+03  0.79349938595E+02 0.  0.
         -6    2    1    2    0  502 -0.19490678826E+03 -0.13067585293E+03 -0.37555552706E+02  0.29429348331E+03  0.17358974661E+03 0.  0.
        -24    2    5    5    0    0 -0.79034849148E+02 -0.13391621021E+03 -0.34998668452E+02  0.17825282730E+03  0.79806672092E+02 0.  0.
          5    1    3    3  501    0  0.17176994204E+02  0.47619459735E+02 -0.24517362661E+02  0.56443362295E+02  0.47000000000E+01 0. -1.
        -13    1    4    4    0    0  0.11734191128E+03  0.92659164849E+02  0.11310244418E+03  0.18747535265E+03  0.00000000000E+00 0.  1.
         14    1    4    4    0    0  0.60387882777E+02 -0.96027716487E+01  0.31067673208E+02  0.68586514186E+02  0.00000000000E+00 0. -1.
         -5    1    5    5    0  502 -0.11587193911E+03  0.32403572790E+01 -0.25568842548E+01  0.11604065600E+03  0.47000000000E+01 0.  1.
         13    1    6    6    0    0 -0.81974951210E+01 -0.40898408204E+02 -0.44444129480E+02  0.60952107142E+02  0.00000000000E+00 0. -1.
        -14    1    6    6    0    0 -0.70837354027E+02 -0.93017802010E+02  0.94454610281E+01  0.11730072016E+03  0.00000000000E+00 0.  1.
</event>
<event>
12    1  0.1046899E+000  0.2049676E+03  0.7818608E-02  0.1145767E+00
         21   -1    0    0  503  502  0.00000000000E+00  0.00000000000E+00  0.57956634487E+03  0.57956634487E+03  0.00000000000E+00 0. -1.
         21   -1    0    0  501  503 -0.00000000000E+00 -0.00000000000E+00 -0.76388824163E+02  0.76388824163E+02  0.00000000000E+00 0. -1.
          6    2    1    2  501    0  0.11066776906E+03 -0.62482555549E+01  0.32773149208E+03  0.38615333776E+03  0.17152280769E+03 0.  0.
         24    2    3    3    0    0  0.11820386438E+03 -0.36510165811E+02  0.32336595528E+03  0.35431430736E+03  0.75285733059E+02 0.  0.
         -6    2    1    2    0  502 -0.11066776906E+03  0.62482555549E+01  0.17544602863E+03  0.26980183128E+03  0.17241033435E+03 0.  0.
        -24    2    5    5    0    0 -0.51479503783E+02  0.60411568102E+02  0.14538686304E+03  0.18399647825E+03  0.80110343853E+02 0.  0.
          5    1    3    3  501    0 -0.75360953239E+01  0.30261910256E+02  0.43655367921E+01  0.31839030396E+02  0.47000000000E+01 0. -1.
        -11    1    4    4    0    0  0.17790623454E+02  0.41540907940E+01  0.64192336716E+01  0.19364124410E+02  0.00000000000E+00 0.  1.
         12    1    4    4    0    0  0.10041324093E+03 -0.40664256605E+02  0.31694672161E+03  0.33495018295E+03  0.00000000000E+00 0. -1.
         -5    1    5    5    0  502 -0.59188265274E+02 -0.54163312547E+02  0.30059165587E+02  0.85805353026E+02  0.47000000000E+01 0.  1.
         13    1    6    6    0    0 -0.22804931937E+02  0.42420285846E+02  0.16767489738E+02  0.50997002697E+02  0.00000000000E+00 0. -1.
        -14    1    6    6    0    0 -0.28674571846E+02  0.17991282256E+02  0.12861937331E+03  0.13299947555E+03  0.00000000000E+00 0.  1.
</event>
<event>
12    1  0.1046899E+000  0.1908196E+03  0.7818608E-02  0.1158263E+00
         21   -1    0    0  501  502  0.00000000000E+00  0.00000000000E+00  0.11531047687E+03  0.11531047687E+03  0.00000000000E+00 0. -1.
         21   -1    0    0  502  503 -0.00000000000E+00 -0.00000000000E+00 -0.31424754544E+03  0.31424754544E+03  0.00000000000E+00 0. -1.
         -6    2    1    2    0  503  0.40387544957E+02 -0.66234943316E+02 -0.81275909066E+02  0.20740753055E+03  0.17433843187E+03 0.  0.
        -24    2    3    3    0    0  0.52037657944E+02 -0.10050649768E+03 -0.95697548583E+02  0.16816038724E+03  0.79438159045E+02 0.  0.
          6    2    1    2  501    0 -0.40387544957E+02  0.66234943316E+02 -0.11766115951E+03  0.22215049176E+03  0.17172207496E+03 0.  0.
         24    2    5    5    0    0 -0.57548355693E+01  0.40938589806E+02  0.77367698662E+01  0.89538046071E+02  0.79045036647E+02 0.  0.
          5    1    5    5  501    0 -0.34632709388E+02  0.25296353510E+02 -0.12539792937E+03  0.13261244569E+03  0.47000000000E+01 0. -1.
        -11    1    6    6    0    0  0.57623447343E+00 -0.23447264963E+02  0.81808733918E+01  0.24840148346E+02  0.00000000000E+00 0.  1.
         12    1    6    6    0    0 -0.63310700427E+01  0.64385854768E+02 -0.44410352564E+00  0.64697897725E+02  0.00000000000E+00 0. -1.
         -5    1    3    3    0  503 -0.11650112988E+02  0.34271554363E+02  0.14421639517E+02  0.39247143303E+02  0.47000000000E+01 0.  1.
         13    1    4    4    0    0  0.11111390797E+02 -0.11883744416E+02 -0.63224976333E+02  0.65284638462E+02  0.00000000000E+00 0. -1.
        -14    1    4    4    0    0  0.40926267147E+02 -0.88622753263E+02 -0.32472572250E+02  0.10287574878E+03  0.00000000000E+00 0.  1.
</event>
<event>
12    1  0.1046899E+000  0.1976854E+03  0.7818608E-02  0.1155454E+00
         21   -1    0    0  501  502  0.00000000000E+00  0.00000000000E+00  0.28103819397E+03  0.28103819397E+03  0.00000000000E+00 0. -1.
         21   -1    0    0  502  503 -0.00000000000E+00 -0.00000000000E+00 -0.12781584828E+03  0.12781584828E+03  0.00000000000E+00 0. -1.
         -6    2    1    2    0  503 -0.15821163373E+02  0.41145380142E+02  0.82410374105E+02  0.19886869748E+03  0.17553927640E+03 0.  0.
        -24    2    3    3    0    0 -0.60029728605E+01 -0.25450656637E+02  0.98357790022E+02  0.12953011475E+03  0.80125053285E+02 0.  0.
          6    2    1    2  501    0  0.15821163373E+02 -0.41145380142E+02  0.70811971591E+02  0.20998534477E+03  0.19270770140E+03 0.  0.
         24    2    5    5    0    0 -0.60797365838E+02 -0.47599626191E+02  0.40755482499E+01  0.10806431401E+03  0.75493322639E+02 0.  0.
          5    1    5    5  501    0  0.76618529211E+02  0.64542460482E+01  0.66736423341E+02  0.10192103076E+03  0.47000000000E+01 0. -1.
        -11    1    6    6    0    0 -0.37142622755E+02 -0.40712909824E+02  0.37414131724E+02  0.66610304789E+02  0.00000000000E+00 0.  1.
         12    1    6    6    0    0 -0.23654743083E+02 -0.68867163665E+01 -0.33338583474E+02  0.41454009223E+02  0.00000000000E+00 0. -1.
         -5    1    3    3    0  503 -0.98181905122E+01  0.66596036780E+02 -0.15947415916E+02  0.69338582724E+02  0.47000000000E+01 0.  1.
         13    1    4    4    0    0  0.35011088986E+02 -0.10090899697E+02  0.25327460902E+02  0.44374349397E+02  0.00000000000E+00 0. -1.
        -14    1    4    4    0    0 -0.41014061846E+02 -0.15359756941E+02  0.73030329120E+02  0.85155765358E+02  0.00000000000E+00 0.  1.
</event>
<event>
12    1  0.1046899E+000  0.1901816E+03  0.7818608E-02  0.1158683E+00
         21   -1    0    0  503  502  0.00000000000E+00  0.00000000000E+00  0.15686094511E+03  0.15686094511E+03  0.00000000000E+00 0. -1.
         21   -1    0    0  501  503 -0.00000000000E+00 -0.00000000000E+00 -0.30259779010E+03  0.30259779010E+03  0.00000000000E+00 0. -1.
          6    2    1    2  501    0  0.13663590857E+02 -0.80070484658E+02 -0.18678035565E+03  0.26656317599E+03  0.17196234852E+03 0.  0.
         24    2    3    3    0    0  0.63862967286E+02 -0.91415869522E+02 -0.11430650968E+03  0.17755057294E+03  0.77607267742E+02 0.  0.
         -6    2    1    2    0  502 -0.13663590857E+02  0.80070484658E+02  0.41043510660E+02  0.19289555921E+03  0.17007689663E+03 0.  0.
        -24    2    5    5    0    0  0.65783006485E+01  0.68033068062E+02  0.89816191248E+02  0.13853106766E+03  0.80325189746E+02 0.  0.
          5    1    3    3  501    0 -0.50199376429E+02  0.11345384864E+02 -0.72473845972E+02  0.89012603049E+02  0.47000000000E+01 0. -1.
        -13    1    4    4    0    0  0.69101609162E+02 -0.60489387671E+02 -0.11372805366E+03  0.14617820836E+03  0.00000000000E+00 0.  1.
         14    1    4    4    0    0 -0.52386418757E+01 -0.30926481851E+02 -0.57845602160E+00  0.31372364587E+02  0.00000000000E+00 0. -1.
         -5    1    5    5    0  502 -0.20241891505E+02  0.12037416596E+02 -0.48772680589E+02  0.54364491553E+02  0.47000000000E+01 0.  1.
         13    1    6    6    0    0  0.43522889866E+02  0.36707473379E+02  0.45568404656E+02  0.72925715951E+02  0.00000000000E+00 0. -1.
        -14    1    6    6    0    0 -0.36944589217E+02  0.31325594683E+02  0.44247786592E+02  0.65605351710E+02  0.00000000000E+00 0.  1.
</event>
<event>
12    1  0.1046899E+000  0.2087052E+03  0.7818608E-02  0.1142600E+00
         21   -1    0    0  501  502  0.00000000000E+00  0.00000000000E+00  0.64135747253E+02  0.64135747253E+02  0.00000000000E+00 0. -1.
         21   -1    0    0  502  503 -0.00000000000E+00 -0.00000000000E+00 -0.95330854283E+03  0.95330854283E+03  0.00000000000E+00 0. -1.
         -6    2    1    2    0  503  0.71142270092E+02 -0.93260264105E+02 -0.71741888153E+03  0.74715319840E+03  0.17259591782E+03 0.  0.
        -24    2    3    3    0    0  0.25700507518E+02 -0.85050532414E+02 -0.24027333039E+03  0.26775532559E+03  0.77894363948E+02 0.  0.
          6    2    1    2  501    0 -0.71142270092E+02  0.93260264105E+02 -0.17175391405E+03  0.27029109168E+03  0.17262435459E+03 0.  0.
         24    2    5    5    0    0 -0.33879242878E+02 -0.32924220134E+02 -0.92031924560E+02  0.11637961431E+03  0.53315402273E+02 0.  0.
          5    1    5    5  501    0 -0.37263027214E+02  0.12618448424E+03 -0.79721989487E+02  0.15391147737E+03  0.47000000000E+01 0. -1.
        -11    1    6    6    0    0 -0.27709536641E+02  0.74283977572E+01 -0.50909450472E+02  0.58436047620E+02  0.00000000000E+00 0.  1.
         12    1    6    6    0    0 -0.61697062364E+01 -0.40352617891E+02 -0.41122474088E+02  0.57943566690E+02  0.00000000000E+00 0. -1.
         -5    1    3    3    0  503  0.45441762574E+02 -0.82097316908E+01 -0.47714555115E+03  0.47939787281E+03  0.47000000000E+01 0.  1.
         11    1    4    4    0    0 -0.27931492395E+02 -0.34543124648E+02 -0.94739160646E+02  0.10463701204E+03  0.00000000000E+00 0. -1.
        -12    1    4    4    0    0  0.53631999913E+02 -0.50507407766E+02 -0.14553416974E+03  0.16311831355E+03  0.00000000000E+00 0.  1.
</event>
<event>
12    1  0.1046899E+000  0.2290665E+03  0.7818608E-02  0.1127670E+00
         21   -1    0    0  501  502  0.00000000000E+00  0.00000000000E+00  0.15371451383E+03  0.15371451383E+03  0.00000000000E+00 0.  1.
         21   -1    0    0  502  503 -0.00000000000E+00 -0.00000000000E+00 -0.48046906293E+03  0.48046906293E+03  0.00000000000E+00 0.  1.
         -6    2    1    2    0  503 -0.14741157721E+03 -0.27271902388E+02 -0.33642063045E+03  0.40700157434E+03  0.17319789598E+03 0.  0.
        -24    2    3    3    0    0 -0.17822946285E+03 -0.20917774925E+02 -0.26673744208E+03  0.33039900420E+03  0.76232173204E+02 0.  0.
          6    2    1    2  501    0  0.14741157721E+03  0.27271902388E+02  0.96660813417E+01  0.22718200242E+03  0.17042388137E+03 0.  0.
         24    2    5    5    0    0  0.86130122376E+02  0.22329855681E+02 -0.65659360307E+02  0.12983801087E+03  0.68042171007E+02 0.  0.
          5    1    5    5  501    0  0.61281454831E+02  0.49420467072E+01  0.75325441649E+02  0.97343991553E+02  0.47000000000E+01 0. -1.
        -11    1    6    6    0    0  0.69331216748E+02  0.43960706195E+02 -0.60475229206E+02  0.10196379089E+03  0.00000000000E+00 0.  1.
         12    1    6    6    0    0  0.16798905629E+02 -0.21630850514E+02 -0.51841311005E+01  0.27874219981E+02  0.00000000000E+00 0. -1.
         -5    1    3    3    0  503  0.30817885646E+02 -0.63541274635E+01 -0.69683188364E+02  0.76602570140E+02  0.47000000000E+01 0.  1.
         13    1    4    4    0    0 -0.13225128945E+03 -0.48489006816E+02 -0.18230156557E+03  0.23038109330E+03  0.00000000000E+00 0. -1.
        -14    1    4    4    0    0 -0.45978173406E+02  0.27571231892E+02 -0.84435876515E+02  0.10001791090E+03  0.00000000000E+00 0.  1.
</event>
<event>
12    1  0.1046899E+000  0.2643961E+03  0.7818608E-02  0.1105220E+00
         21   -1    0    0  501  502  0.00000000000E+00  0.00000000000E+00  0.67689886196E+02  0.67689886196E+02  0.00000000000E+00 0. -1.
         21   -1    0    0  502  503 -0.00000000000E+00 -0.00000000000E+00 -0.16116511966E+04  0.16116511966E+04  0.00000000000E+00 0. -1.
         -6    2    1    2    0  503  0.12476181998E+03 -0.14904600333E+03 -0.26525682829E+03  0.37452166051E+03  0.17923466853E+03 0.  0.
        -24    2    3    3    0    0  0.17673573279E+02 -0.47430951499E+02 -0.18146073796E+03  0.20470591891E+03  0.80090345634E+02 0.  0.
          6    2    1    2  501    0 -0.12476181998E+03  0.14904600333E+03 -0.12787044822E+04  0.13048194223E+04  0.17230307415E+03 0.  0.
         24    2    5    5    0    0 -0.13190878600E+03  0.14056852738E+03 -0.12732655388E+04  0.12916050806E+04  0.99393728615E+02 0.  0.
          5    1    5    5  501    0  0.71469660191E+01  0.84774759512E+01 -0.54389433555E+01  0.13214341702E+02  0.47000000000E+01 0. -1.
        -11    1    6    6    0    0 -0.13989921628E+03  0.12225958309E+03 -0.96688130284E+03  0.98457028706E+03  0.00000000000E+00 0.  1.
         12    1    6    6    0    0  0.79904302793E+01  0.18308944291E+02 -0.30638423596E+03  0.30703479357E+03  0.00000000000E+00 0. -1.
         -5    1    3    3    0  503  0.10708824671E+03 -0.10161505183E+03 -0.83796090338E+02  0.16981574161E+03  0.47000000000E+01 0.  1.
         11    1    4    4    0    0  0.39255206182E+02 -0.87048296959E+01 -0.13336394259E+03  0.13929352625E+03  0.00000000000E+00 0. -1.
        -12    1    4    4    0    0 -0.21581632903E+02 -0.38726121803E+02 -0.48096795370E+02  0.65412392660E+02  0.00000000000E+00 0.  1.
</event>
<event>
12    1  0.1046899E+000  0.2020912E+03  0.7818608E-02  0.1148106E+00
         21   -1    0    0  503  502  0.00000000000E+00  0.00000000000E+00  0.10653413578E+04  0.10653413578E+04  0.00000000000E+00 0.  1.
         21   -1    0    0  501  503 -0.00000000000E+00 -0.00000000000E+00 -0.53813642059E+02  0.53813642059E+02  0.00000000000E+00 0.  1.
          6    2    1    2  501    0 -0.40911096294E+02  0.97761841619E+02  0.80742398905E+03  0.83233068142E+03  0.17207489548E+03 0.  0.
         24    2    3    3    0    0 -0.92063373690E+02  0.87809701785E+02  0.60383734649E+03  0.62212789457E+03  0.78977007276E+02 0.  0.
         -6    2    1    2    0  502  0.40911096294E+02 -0.97761841619E+02  0.20410372672E+03  0.28682431847E+03  0.17140234225E+03 0.  0.
        -24    2    5    5    0    0 -0.36040893127E+02 -0.11595634581E+02  0.16584942860E+02  0.66525411959E+02  0.52126436555E+02 0.  0.
          5    1    3    3  501    0  0.51152277396E+02  0.99521398337E+01  0.20358664256E+03  0.21020278685E+03  0.47000000000E+01 0. -1.
        -11    1    4    4    0    0 -0.11077607583E+02  0.61042820444E+02  0.20087059284E+03  0.21023304779E+03  0.00000000000E+00 0.  1.
         12    1    4    4    0    0 -0.80985766107E+02  0.26766881341E+02  0.40296675366E+03  0.41189484678E+03  0.00000000000E+00 0. -1.
         -5    1    5    5    0  502  0.76951989421E+02 -0.86166207038E+02  0.18751878386E+03  0.22029890651E+03  0.47000000000E+01 0.  1.
         13    1    6    6    0    0 -0.21342810097E+02 -0.30382272960E+02  0.20407101166E+02  0.42368004803E+02  0.00000000000E+00 0. -1.
        -14    1    6    6    0    0 -0.14698083030E+02  0.18786638379E+02 -0.38221583064E+01  0.24157407155E+02  0.00000000000E+00 0.  1.
</event>
<event>
12    1  0.1046899E+000  0.1772504E+03  0.7818608E-02  0.1171589E+00
         21   -1    0    0  503  502  0.00000000000E+00  0.00000000000E+00  0.29725957948E+03  0.29725957948E+03  0.00000000000E+00 0. -1.
         21   -1    0    0  501  503 -0.00000000000E+00 -0.00000000000E+00 -0.12793470234E+03  0.12793470234E+03  0.00000000000E+00 0. -1.
          6    2    1    2  501    0 -0.12095929575E+02  0.20743074668E+02  0.17748893334E+03  0.24775593270E+03  0.17118438618E+03 0.  0.
         24    2    3    3    0    0  0.28655700499E+02  0.59920397372E+02  0.15431943259E+03  0.18648217214E+03  0.80929043367E+02 0.  0.
         -6    2    1    2    0  502  0.12095929575E+02 -0.20743074668E+02 -0.81640561970E+01  0.17743834912E+03  0.17561642652E+03 0.  0.
        -24    2    5    5    0    0 -0.52319877596E+02  0.24739598564E+01  0.28094924721E+02  0.99815990206E+02  0.80189881136E+02 0.  0.
          5    1    3    3  501    0 -0.40751630074E+02 -0.39177322704E+02  0.23169500755E+02  0.61273760561E+02  0.47000000000E+01 0. -1.
        -13    1    4    4    0    0 -0.60306605291E+01  0.65586474033E+02  0.75556533789E+02  0.10023344871E+03  0.00000000000E+00 0.  1.
         14    1    4    4    0    0  0.34686361028E+02 -0.56660766612E+01  0.78762898797E+02  0.86248723429E+02  0.00000000000E+00 0. -1.
         -5    1    5    5    0  502  0.64415807172E+02 -0.23217034524E+02 -0.36258980918E+02  0.77622358911E+02  0.47000000000E+01 0.  1.
         11    1    6    6    0    0 -0.19318006471E+02 -0.33324290769E+01  0.54008541854E+02  0.57456183747E+02  0.00000000000E+00 0. -1.
        -12    1    6    6    0    0 -0.33001871125E+02  0.58063889333E+01 -0.25913617134E+02  0.42359806458E+02  0.00000000000E+00 0.  1.
</event>
<event>
12    1  0.1046899E+000  0.2940919E+03  0.7818608E-02  0.1088320E+00
         21   -1    0    0  503  502  0.00000000000E+00  0.00000000000E+00  0.20471645565E+03  0.20471645565E+03  0.00000000000E+00 0.  1.
         21   -1    0    0  501  503 -0.00000000000E+00 -0.00000000000E+00 -0.42284187713E+03  0.42284187713E+03  0.00000000000E+00 0. -1.
          6    2    1    2  501    0 -0.59563779854E+02  0.22821772448E+03 -0.91505373710E+02  0.30799882522E+03  0.17566692712E+03 0.  0.
         24    2    3    3    0    0  0.20837826760E+02  0.15644481475E+03 -0.91866249252E+02  0.20011931304E+03  0.81848253585E+02 0.  0.
         -6    2    1    2    0  502  0.59563779854E+02 -0.22821772448E+03 -0.12662004777E+03  0.31955950756E+03  0.17451208765E+03 0.  0.
        -24    2    5    5    0    0 -0.15147824498E+02 -0.16473000682E+03 -0.12546123580E+03  0.22139664817E+03  0.76879921943E+02 0.  0.
          5    1    3    3  501    0 -0.80401606614E+02  0.71772909723E+02  0.36087554144E+00  0.10787951218E+03  0.47000000000E+01 0. -1.
        -13    1    4    4    0    0  0.18471264011E+02  0.26606117831E+01  0.37267531456E+01  0.19030374096E+02  0.00000000000E+00 0.  1.
         14    1    4    4    0    0  0.23665627487E+01  0.15378420297E+03 -0.95593002398E+02  0.18108893895E+03  0.00000000000E+00 0. -1.
         -5    1    5    5    0  502  0.74711604352E+02 -0.63487717654E+02 -0.11588119750E+01  0.98162859387E+02  0.47000000000E+01 0.  1.
         11    1    6    6    0    0 -0.26975959422E+01 -0.92874099942E+02 -0.11481006112E+03  0.14769639670E+03  0.00000000000E+00 0. -1.
        -12    1    6    6    0    0 -0.12450228556E+02 -0.71855906879E+02 -0.10651174679E+02  0.73700251468E+02  0.00000000000E+00 0.  1.
</event>
<event>
12    1  0.1046899E+000  0.3092509E+03  0.7818608E-02  0.1081140E+00
         21   -1    0    0  503  502  0.00000000000E+00  0.00000000000E+00  0.56396116493E+03  0.56396116493E+03  0.00000000000E+00 0.  1.
         21   -1    0    0  501  503 -0.00000000000E+00 -0.00000000000E+00 -0.17589457604E+03  0.17589457604E+03  0.00000000000E+00 0.  1.
          6    2    1    2  501    0 -0.63405612606E+02  0.24620592664E+03  0.11485005255E+03  0.32988883472E+03  0.17606384830E+03 0.  0.
         24    2    3    3    0    0 -0.12717536470E+02  0.16042105049E+03  0.31448978365E+01  0.18012749916E+03  0.80866410802E+02 0.  0.
         -6    2    1    2    0  502  0.63405612606E+02 -0.24620592664E+03  0.27321653634E+03  0.40996690625E+03  0.16967014609E+03 0.  0.
        -24    2    5    5    0    0  0.23495964310E+02 -0.21380698257E+03  0.27667939600E+03  0.35823149284E+03  0.74248421923E+02 0.  0.
          5    1    3    3  501    0 -0.50688076137E+02  0.85784876150E+02  0.11170515472E+03  0.14976133556E+03  0.47000000000E+01 0. -1.
        -11    1    4    4    0    0  0.32467165452E+02  0.96058059220E+02 -0.60012267292E+00  0.10139836153E+03  0.00000000000E+00 0.  1.
         12    1    4    4    0    0 -0.45184701922E+02  0.64362991269E+02  0.37450205095E+01  0.78729137627E+02  0.00000000000E+00 0. -1.
         -5    1    5    5    0  502  0.39909648296E+02 -0.32398944071E+02 -0.34628596662E+01  0.51735413414E+02  0.47000000000E+01 0.  1.
         13    1    6    6    0    0  0.31734038065E+02 -0.60036371415E+02  0.50585681762E+02  0.84677779045E+02  0.00000000000E+00 0. -1.
        -14    1    6    6    0    0 -0.82380737542E+01 -0.15377061115E+03  0.22609371424E+03  0.27355371380E+03  0.00000000000E+00 0.  1.
</event>
<event>
12    1  0.1046899E+000  0.2348001E+03  0.7818608E-02  0.1124664E+00
         21   -1    0    0  503  502  0.00000000000E+00  0.00000000000E+00  0.22620540225E+04  0.22620540225E+04  0.00000000000E+00 0.  1.
         21   -1    0    0  501  503 -0.00000000000E+00 -0.00000000000E+00 -0.30520290392E+02  0.30520290392E+02  0.00000000000E+00 0. -1.
          6    2    1    2  501    0  0.15836895148E+03  0.25272781359E+02  0.55432889420E+03  0.59901381462E+03  0.16067852654E+03 0.  0.
         24    2    3    3    0    0  0.49123364693E+02  0.40627620379E+01  0.39411085462E+03  0.40388213253E+03  0.73265273139E+02 0.  0.
         -6    2    1    2    0  502 -0.15836895148E+03 -0.25272781359E+02  0.16772048379E+04  0.16935604983E+04  0.17149826454E+03 0.  0.
        -24    2    5    5    0    0 -0.14493270918E+03 -0.25243988819E+01  0.16352672970E+04  0.16437722582E+04  0.82923105238E+02 0.  0.
          5    1    3    3  501    0  0.10924558678E+03  0.21210019321E+02  0.16021803958E+03  0.19513168210E+03  0.47000000000E+01 0. -1.
        -13    1    4    4    0    0 -0.10318738424E+02  0.10930135701E+02  0.20014675319E+02  0.25030610405E+02  0.00000000000E+00 0.  1.
         14    1    4    4    0    0  0.59442103117E+02 -0.68673736633E+01  0.37409617930E+03  0.37885152212E+03  0.00000000000E+00 0. -1.
         -5    1    5    5    0  502 -0.13436242295E+02 -0.22748382477E+02  0.41937540861E+02  0.49788240035E+02  0.47000000000E+01 0.  1.
         13    1    6    6    0    0 -0.21041924628E+02  0.24750737284E+02  0.17383759677E+03  0.17684702892E+03  0.00000000000E+00 0. -1.
        -14    1    6    6    0    0 -0.12389078455E+03 -0.27275136165E+02  0.14614297003E+04  0.14669252293E+04  0.00000000000E+00 0.  1.
</event>
<event>
12    1  0.1046899E+000  0.2053822E+03  0.7818608E-02  0.1145487E+00
         21   -1    0    0  501  502  0.00000000000E+00  0.00000000000E+00  0.21916327125E+03  0.21916327125E+03  0.00000000000E+00 0. -1.
         21   -1    0    0  502  503 -0.00000000000E+00 -0.00000000000E+00 -0.19326762435E+03  0.19326762435E+03  0.00000000000E+00 0. -1.
         -6    2    1    2    0  503 -0.11168865731E+03 -0.58922310055E+01 -0.68031836321E+01  0.20446197937E+03  0.17102439341E+03 0.  0.
        -24    2    3    3    0    0 -0.14256381412E+03 -0.19005059924E+02  0.13755146890E+02  0.16483930222E+03  0.79354634966E+02 0.  0.
          6    2    1    2  501    0  0.11168865731E+03  0.58922310055E+01  0.32698830529E+02  0.20796891623E+03  0.17225789399E+03 0.  0.
         24    2    5    5    0    0  0.11515885028E+03  0.22455041352E+02  0.76496789601E+02  0.16078078060E+03  0.78948786627E+02 0.  0.
          5    1    5    5  501    0 -0.34701929746E+01 -0.16562810346E+02 -0.43797959071E+02  0.47188135635E+02  0.47000000000E+01 0. -1.
        -11    1    6    6    0    0  0.75905410190E+02  0.27049163112E+02  0.70664860155E+01  0.80890195609E+02  0.00000000000E+00 0.  1.
         12    1    6    6    0    0  0.39253440094E+02 -0.45941217598E+01  0.69430303585E+02  0.79890584989E+02  0.00000000000E+00 0. -1.
         -5    1    3    3    0  503  0.30875156814E+02  0.13112828919E+02 -0.20558330523E+02  0.39622677148E+02  0.47000000000E+01 0.  1.
         13    1    4    4    0    0 -0.82874426643E+02  0.82374199889E+01  0.42155625219E+02  0.93344107565E+02  0.00000000000E+00 0. -1.
        -14    1    4    4    0    0 -0.59689387480E+02 -0.27242479913E+02 -0.28400478328E+02  0.71495194655E+02  0.00000000000E+00 0.  1.
</event>
<event>
12    1  0.1046899E+000  0.1837704E+03  0.7818608E-02  0.1164742E+00
         21   -1    0    0  503  502  0.00000000000E+00  0.00000000000E+00  0.45071214944E+02  0.45071214944E+02  0.00000000000E+00 0. -1.
         21   -1    0    0  501  503 -0.00000000000E+00 -0.00000000000E+00 -0.11319050015E+04  0.11319050015E+04  0.00000000000E+00 0. -1.
          6    2    1    2  501    0 -0.44792519430E+02  0.38526916671E+02 -0.19937809451E+03  0.27115158185E+03  0.17401397260E+03 0.  0.
         24    2    3    3    0    0 -0.77302283143E+02  0.36698556134E+02 -0.20866472516E+03  0.23696738743E+03  0.72733404824E+02 0.  0.
         -6    2    1    2    0  502  0.44792519430E+02 -0.38526916671E+02 -0.88745569201E+03  0.90582463456E+03  0.17160993618E+03 0.  0.
        -24    2    5    5    0    0 -0.16032075722E+02 -0.14665439276E+02 -0.21809155515E+03  0.23326278670E+03  0.79846719864E+02 0.  0.
          5    1    3    3  501    0  0.32509763713E+02  0.18283605364E+01  0.92866306510E+01  0.34184194414E+02  0.47000000000E+01 0. -1.
        -13    1    4    4    0    0 -0.81168524188E+02  0.86794700796E+01 -0.13144203311E+03  0.15472773051E+03  0.00000000000E+00 0.  1.
         14    1    4    4    0    0  0.38662410454E+01  0.28019086054E+02 -0.77222692050E+02  0.82239656922E+02  0.00000000000E+00 0. -1.
         -5    1    5    5    0  502  0.60824595152E+02 -0.23861477394E+02 -0.66936413686E+03  0.67256184786E+03  0.47000000000E+01 0.  1.
         11    1    6    6    0    0  0.13821896694E+02 -0.16244018102E+02 -0.10950570212E+02  0.23975569655E+02  0.00000000000E+00 0. -1.
        -12    1    6    6    0    0 -0.29853972416E+02  0.15785788253E+01 -0.20714098493E+03  0.20928721705E+03  0.00000000000E+00 0.  1.
</event>
<event>
12    1  0.1046899E+000  0.1800154E+03  0.7818608E-02  0.1168123E+00
         21   -1    0    0  501  502  0.00000000000E+00  0.00000000000E+00  0.69892697889E+03  0.69892697889E+03  0.00000000000E+00 0. -1.
         21   -1    0    0  502  503 -0.00000000000E+00 -0.00000000000E+00 -0.46186836177E+02  0.46186836177E+02  0.00000000000E+00 0. -1.
         -6    2    1    2    0  503 -0.31956059162E+02 -0.36021432018E+02  0.30207376194E+03  0.35094068452E+03  0.17202346677E+03 0.  0.
        -24    2    3    3    0    0  0.24166880019E+01 -0.83166706676E+02  0.16165466360E+03  0.19880989918E+03  0.80440066318E+02 0.  0.
          6    2    1    2  501    0  0.31956059162E+02  0.36021432018E+02  0.35066638078E+03  0.39417313055E+03  0.17345550713E+03 0.  0.
         24    2    5    5    0    0  0.15290885104E+02  0.90227116333E+02  0.25610671733E+03  0.28381188649E+03  0.81140572846E+02 0.  0.
          5    1    5    5  501    0  0.16665174058E+02 -0.54205684315E+02  0.94559663446E+02  0.11036124406E+03  0.47000000000E+01 0. -1.
        -11    1    6    6    0    0 -0.29528655896E+02  0.16484724730E+02  0.98255930323E+02  0.10391301897E+03  0.00000000000E+00 0.  1.
         12    1    6    6    0    0  0.44819541000E+02  0.73742391603E+02  0.15785078701E+03  0.17989886752E+03  0.00000000000E+00 0. -1.
         -5    1    3    3    0  503 -0.34372747164E+02  0.47145274658E+02  0.14041909834E+03  0.15213078534E+03  0.47000000000E+01 0.  1.
         11    1    4    4    0    0 -0.96348616786E+01  0.10439601161E+02  0.53085866064E+02  0.54953844340E+02  0.00000000000E+00 0. -1.
        -12    1    4    4    0    0  0.12051549680E+02 -0.93606307837E+02  0.10856879753E+03  0.14385605484E+03  0.00000000000E+00 0.  1.
</event>
<event>
12    1  0.1046899E+000  0.2405862E+03  0.7818608E-02  0.1119440E+00
         21   -1    0    0  503  502  0.00000000000E+00  0.00000000000E+00  0.47970292606E+03  0.47970292606E+03  0.00000000000E+00 0. -1.
         21   -1    0    0  501  503 -0.00000000000E+00 -0.00000000000E+00 -0.12164390845E+03  0.12164390845E+03  0.00000000000E+00 0. -1.
          6    2    1    2  501    0 -0.13161990778E+03 -0.10653720400E+03  0.20745575074E+03  0.31751050688E+03  0.17059032067E+03 0.  0.
         24    2    3    3    0    0 -0.10402444622E+03 -0.12975644720E+03  0.21075534424E+03  0.28099174361E+03  0.82950128708E+02 0.  0.
         -6    2    1    2    0  502  0.13161990778E+03  0.10653720400E+03  0.15060326686E+03  0.28383632762E+03  0.17090272358E+03 0.  0.
        -24    2    5    5    0    0  0.18065624540E+02  0.66816501420E+02  0.11975566324E+03  0.15955449425E+03  0.79532421723E+02 0.  0.
          5    1    3    3  501    0 -0.27595461561E+02  0.23219243201E+02 -0.32995934971E+01  0.36518763271E+02  0.47000000000E+01 0. -1.
        -13    1    4    4    0    0 -0.97860674356E+02 -0.63088830013E+02  0.15502240556E+03  0.19387846266E+03  0.00000000000E+00 0.  1.
         14    1    4    4    0    0 -0.61637718659E+01 -0.66667617185E+02  0.55732938677E+02  0.87113280952E+02  0.00000000000E+00 0. -1.
         -5    1    5    5    0  502  0.11355428324E+03  0.39720702577E+02  0.30847603620E+02  0.12428183337E+03  0.47000000000E+01 0.  1.
         11    1    6    6    0    0  0.22431182778E+02  0.68839907601E+01 -0.22317028095E+01  0.23569636973E+02  0.00000000000E+00 0. -1.
        -12    1    6    6    0    0 -0.43655582382E+01  0.59932510659E+02  0.12198736605E+03  0.13598485728E+03  0.00000000000E+00 0.  1.
</event>
<event>
12    1  0.1046899E+000  0.5379584E+03  0.7818608E-02  0.1004408E+00
         21   -1    0    0  501  502  0.00000000000E+00  0.00000000000E+00  0.38556853426E+03  0.38556853426E+03  0.00000000000E+00 0.  1.
         21   -1    0    0  502  503 -0.00000000000E+00 -0.00000000000E+00 -0.75558903938E+03  0.75558903938E+03  0.00000000000E+00 0.  1.
         -6    2    1    2    0  503 -0.30638574164E+03 -0.40533921330E+03 -0.13005857652E+03  0.55345685421E+03  0.17671206986E+03 0.  0.
        -24    2    3    3    0    0 -0.27287729232E+03 -0.37974551472E+03 -0.16032502488E+03  0.50134158314E+03  0.83490099817E+02 0.  0.
          6    2    1    2  501    0  0.30638574164E+03  0.40533921330E+03 -0.23996192861E+03  0.58770071943E+03  0.17215779946E+03 0.  0.
         24    2    5    5    0    0  0.52955218016E+02  0.12004957561E+03 -0.51148848834E+02  0.16191946482E+03  0.79909652935E+02 0.  0.
          5    1    5    5  501    0  0.25343052363E+03  0.28528963769E+03 -0.18881307978E+03  0.42578125461E+03  0.47000000000E+01 0. -1.
        -13    1    6    6    0    0  0.22163470298E+02 -0.50509019665E+01  0.14130665686E+01  0.22775596226E+02  0.00000000000E+00 0.  1.
         14    1    6    6    0    0  0.30791747717E+02  0.12510047757E+03 -0.52561915403E+02  0.13914386859E+03  0.00000000000E+00 0. -1.
         -5    1    3    3    0  503 -0.33508449325E+02 -0.25593698574E+02  0.30266448363E+02  0.52115271076E+02  0.47000000000E+01 0.  1.
         13    1    4    4    0    0 -0.95130302988E+02 -0.13279028677E+03 -0.14676644345E+02  0.16400743488E+03  0.00000000000E+00 0. -1.
        -14    1    4    4    0    0 -0.17774698933E+03 -0.24695522796E+03 -0.14564838053E+03  0.33733414826E+03  0.00000000000E+00 0.  1.
</event>
<event>
12    1  0.1046899E+000  0.2060611E+03  0.7818608E-02  0.1144855E+00
         21   -1    0    0  503  502  0.00000000000E+00  0.00000000000E+00  0.19480066756E+03  0.19480066756E+03  0.00000000000E+00 0. -1.
         21   -1    0    0  501  503 -0.00000000000E+00 -0.00000000000E+00 -0.21739515153E+03  0.21739515153E+03  0.00000000000E+00 0. -1.
          6    2    1    2  501    0  0.10146416913E+03  0.45467088526E+02 -0.67680594577E+01  0.20552784744E+03  0.17272421860E+03 0.  0.
         24    2    3    3    0    0  0.25120753105E+02  0.33152611815E+02  0.56023002243E+02  0.10580437510E+03  0.79535156396E+02 0.  0.
         -6    2    1    2    0  502 -0.10146416913E+03 -0.45467088526E+02 -0.15826424509E+02  0.20666797165E+03  0.17349046382E+03 0.  0.
        -24    2    5    5    0    0  0.62829607496E+00 -0.43121796135E+02 -0.41105278214E+02  0.10136136078E+03  0.82003643236E+02 0.  0.
          5    1    3    3  501    0  0.76343416027E+02  0.12314476712E+02 -0.62791061701E+02  0.99723472347E+02  0.47000000000E+01 0. -1.
        -11    1    4    4    0    0  0.45504577271E+02  0.23617635452E+01  0.97394951485E+01  0.46595088211E+02  0.00000000000E+00 0.  1.
         12    1    4    4    0    0 -0.20383824166E+02  0.30790848269E+02  0.46283507095E+02  0.59209286888E+02  0.00000000000E+00 0. -1.
         -5    1    5    5    0  502 -0.10209246521E+03 -0.23452923913E+01  0.25278853706E+02  0.10530661087E+03  0.47000000000E+01 0.  1.
         11    1    6    6    0    0  0.44979212604E+01  0.97874046115E+01  0.18599011157E+02  0.21492970961E+02  0.00000000000E+00 0. -1.
        -12    1    6    6    0    0 -0.38696251854E+01 -0.52909200746E+02 -0.59704289372E+02  0.79868389818E+02  0.00000000000E+00 0.  1.
</event>
<event>
12    1  0.1046899E+000  0.4422613E+03  0.7818608E-02  0.1030109E+00
         21   -1    0    0  501  502  0.00000000000E+00  0.00000000000E+00  0.10407870182E+04  0.10407870182E+04  0.00000000000E+00 0. -1.
         21   -1    0    0  502  503 -0.00000000000E+00 -0.00000000000E+00 -0.28785340620E+03  0.28785340620E+03  0.00000000000E+00 0. -1.
         -6    2    1    2    0  503  0.19939280116E+03 -0.35507056163E+03 -0.15329917675E+02  0.44252690755E+03  0.17251801250E+03 0.  0.
        -24    2    3    3    0    0  0.12727443202E+03 -0.17232295634E+03 -0.69691044736E+02  0.23862749965E+03  0.78690911446E+02 0.  0.
          6    2    1    2  501    0 -0.19939280116E+03  0.35507056163E+03  0.76826352967E+03  0.88611351685E+03  0.17069188860E+03 0.  0.
         24    2    5    5    0    0 -0.40041922928E+02  0.17966566039E+03  0.33339934595E+03  0.39084739641E+03  0.87883208223E+02 0.  0.
          5    1    5    5  501    0 -0.15935087823E+03  0.17540490124E+03  0.43486418371E+03  0.49526612044E+03  0.47000000000E+01 0. -1.
        -11    1    6    6    0    0 -0.46995888446E+02  0.16939509661E+03  0.24478130180E+03  0.30136555543E+03  0.00000000000E+00 0.  1.
         12    1    6    6    0    0  0.69539655181E+01  0.10270563772E+02  0.88618044152E+02  0.89481840984E+02  0.00000000000E+00 0. -1.
         -5    1    3    3    0  503  0.72118369143E+02 -0.18274760529E+03  0.54361127060E+02  0.20389940790E+03  0.47000000000E+01 0.  1.
         13    1    4    4    0    0  0.27853405302E+02 -0.16885654441E+02 -0.40252267838E+02  0.51780136914E+02  0.00000000000E+00 0. -1.
        -14    1    4    4    0    0  0.99421026717E+02 -0.15543730190E+03 -0.29438776898E+02  0.18684736273E+03  0.00000000000E+00 0.  1.
</event>
<event>
12    1  0.1046899E+000  0.2084051E+03  0.7818608E-02  0.1142856E+00
         21   -1    0    0  501  502  0.00000000000E+00  0.00000000000E+00  0.49058228578E+03  0.49058228578E+03  0.00000000000E+00 0. -1.
         21   -1    0    0  502  503 -0.00000000000E+00 -0.00000000000E+00 -0.93974831074E+02  0.93974831074E+02  0.00000000000E+00 0. -1.
         -6    2    1    2    0  503 -0.90174753586E+02 -0.76380663105E+02  0.12772759205E+03  0.24443200949E+03  0.17166006412E+03 0.  0.
        -24    2    3    3    0    0 -0.73491415153E+02 -0.46843895079E+02  0.15903620861E+03  0.19803078196E+03  0.79550841272E+02 0.  0.
          6    2    1    2  501    0  0.90174753586E+02  0.76380663105E+02  0.26887986265E+03  0.34012510736E+03  0.17153196855E+03 0.  0.
         24    2    5    5    0    0  0.75323413108E+02  0.99383240550E+02  0.12763809920E+03  0.19617717710E+03  0.81506781207E+02 0.  0.
          5    1    5    5  501    0  0.14851340479E+02 -0.23002577445E+02  0.14124176346E+03  0.14394793026E+03  0.47000000000E+01 0. -1.
        -11    1    6    6    0    0  0.68955487739E+02  0.89278111075E+02  0.60542433742E+02  0.12802666398E+03  0.00000000000E+00 0.  1.
         12    1    6    6    0    0  0.63679253690E+01  0.10105129474E+02  0.67095665455E+02  0.68150513117E+02  0.00000000000E+00 0. -1.
         -5    1    3    3    0  503 -0.16683338433E+02 -0.29536768025E+02 -0.31308616551E+02  0.46401227538E+02  0.47000000000E+01 0.  1.
         13    1    4    4    0    0 -0.83963357540E+01 -0.37876535245E+02  0.18689424828E+02  0.43063034921E+02  0.00000000000E+00 0. -1.
        -14    1    4    4    0    0 -0.65095079399E+02 -0.89673598348E+01  0.14034678378E+03  0.15496774703E+03  0.00000000000E+00 0.  1.
</event>
<event>
12    1  0.1046899E+000  0.1909443E+03  0.7818608E-02  0.1157656E+00
         21   -1    0    0  501  502  0.00000000000E+00  0.00000000000E+00  0.98269307273E+02  0.98269307273E+02  0.00000000000E+00 0.  1.
         21   -1    0    0  502  503 -0.00000000000E+00 -0.00000000000E+00 -0.42509310278E+03  0.42509310278E+03  0.00000000000E+00 0.  1.
         -6    2    1    2    0  503  0.25954282906E+02  0.76036392998E+02 -0.25699689825E+03  0.32005106275E+03  0.17300323466E+03 0.  0.
        -24    2    3    3    0    0 -0.18313703892E+02  0.15235748335E+02 -0.22093382457E+03  0.23651060352E+03  0.80981423551E+02 0.  0.
          6    2    1    2  501    0 -0.25954282906E+02 -0.76036392998E+02 -0.69826897262E+02  0.20331134730E+03  0.17321821642E+03 0.  0.
         24    2    5    5    0    0 -0.59967614282E+01 -0.10134655901E+03 -0.93234049281E+02  0.16320035214E+03  0.87376660629E+02 0.  0.
          5    1    5    5  501    0 -0.19957521478E+02  0.25310166011E+02  0.23407152019E+02  0.40110995159E+02  0.47000000000E+01 0. -1.
        -13    1    6    6    0    0 -0.31856578914E+02 -0.98173439815E+02 -0.55053754013E+02  0.11697769760E+03  0.00000000000E+00 0.  1.
         14    1    6    6    0    0  0.25859817486E+02 -0.31731191940E+01 -0.38180295269E+02  0.46222654539E+02  0.00000000000E+00 0. -1.
         -5    1    3    3    0  503  0.44267986798E+02  0.60800644663E+02 -0.36063073678E+02  0.83540459238E+02  0.47000000000E+01 0.  1.
         13    1    4    4    0    0  0.19497977962E+02  0.18238217957E+02 -0.17460741696E+03  0.17663678494E+03  0.00000000000E+00 0. -1.
        -14    1    4    4    0    0 -0.37811681854E+02 -0.30024696214E+01 -0.46326407612E+02  0.59873818575E+02  0.00000000000E+00 0.  1.
</event>
<event>
12    1  0.1046899E+000  0.1862109E+03  0.7818608E-02  0.1161987E+00
         21   -1    0    0  501  502  0.00000000000E+00  0.00000000000E+00  0.90679965135E+02  0.90679965135E+02  0.00000000000E+00 0.  1.
         21   -1    0    0  502  503 -0.00000000000E+00 -0.00000000000E+00 -0.40094345062E+03  0.40094345062E+03  0.00000000000E+00 0.  1.
         -6    2    1    2    0  503 -0.69053474181E+02  0.15489387487E+02 -0.20891310763E+03  0.27985567012E+03  0.17223880554E+03 0.  0.
        -24    2    3    3    0    0 -0.25138016724E+02  0.72025780954E+02 -0.14745108080E+03  0.18538555880E+03  0.82500613184E+02 0.  0.
          6    2    1    2  501    0  0.69053474181E+02 -0.15489387487E+02 -0.10135037785E+03  0.21176774563E+03  0.17194585072E+03 0.  0.
         24    2    5    5    0    0 -0.15190875861E+01  0.22688680548E+02 -0.53771273384E+01  0.86583856228E+02  0.83371258889E+02 0.  0.
          5    1    5    5  501    0  0.70572561768E+02 -0.38178068034E+02 -0.95973250509E+02  0.12518388941E+03  0.47000000000E+01 0. -1.
        -13    1    6    6    0    0  0.37251343320E+02 -0.38683617890E+01  0.67391872271E+01  0.38053166052E+02  0.00000000000E+00 0.  1.
         14    1    6    6    0    0 -0.38770430906E+02  0.26557042337E+02 -0.12116314565E+02  0.48530690176E+02  0.00000000000E+00 0. -1.
         -5    1    3    3    0  503 -0.43915457458E+02 -0.56536393467E+02 -0.61462026838E+02  0.94470111321E+02  0.47000000000E+01 0.  1.
         11    1    4    4    0    0 -0.54314161546E+02  0.59117678501E+02 -0.11016289221E+03  0.13631137471E+03  0.00000000000E+00 0. -1.
        -12    1    4    4    0    0  0.29176144822E+02  0.12908102453E+02 -0.37288188585E+02  0.49074184084E+02  0.00000000000E+00 0.  1.
</event>
<event>
12    1  0.1046899E+000  0.1767784E+03  0.7818608E-02  0.1171879E+00
         21   -1    0    0  503  502  0.00000000000E+00  0.00000000000E+00  0.14407462480E+04  0.14407462480E+04  0.00000000000E+00 0. -1.
         21   -1    0    0  501  503 -0.00000000000E+00 -0.00000000000E+00 -0.21553870364E+02  0.21553870364E+02  0.00000000000E+00 0. -1.
          6    2    1    2  501    0 -0.81636698847E+01  0.24983207659E+02  0.61430189568E+03  0.63822530539E+03  0.17109621633E+03 0.  0.
         24    2    3    3    0    0  0.32518142391E+02  0.60553246743E+02  0.28365596686E+03  0.30315955398E+03  0.81980987770E+02 0.  0.
         -6    2    1    2    0  502  0.81636698847E+01 -0.24983207659E+02  0.80489048198E+03  0.82407481299E+03  0.17481362433E+03 0.  0.
        -24    2    5    5    0    0  0.53942990566E+02 -0.25179343189E+02  0.28328257059E+03  0.30044069655E+03  0.80447198779E+02 0.  0.
          5    1    3    3  501    0 -0.40681812275E+02 -0.35570039084E+02  0.33064592881E+03  0.33506575141E+03  0.47000000000E+01 0. -1.
        -13    1    4    4    0    0  0.22753774908E+02  0.56616307720E+02  0.28594722398E+03  0.29238494399E+03  0.00000000000E+00 0.  1.
         14    1    4    4    0    0  0.97643674828E+01  0.39369390230E+01 -0.22912571143E+01  0.10774609987E+02  0.00000000000E+00 0. -1.
         -5    1    5    5    0  502 -0.45779320681E+02  0.19613552951E+00  0.52160791139E+03  0.52363411644E+03  0.47000000000E+01 0.  1.
         13    1    6    6    0    0 -0.15309792638E+02  0.12137386453E+02  0.36178905262E+02  0.41117138598E+02  0.00000000000E+00 0. -1.
        -14    1    6    6    0    0  0.69252783203E+02 -0.37316729642E+02  0.24710366533E+03  0.25932355795E+03  0.00000000000E+00 0.  1.
</event>
<event>
12    1  0.1046899E+000  0.3093476E+03  0.7818608E-02  0.1080737E+00
         21   -1    0    0  501  502  0.00000000000E+00  0.00000000000E+00  0.45467919015E+03  0.45467919015E+03  0.00000000000E+00 0.  1.
         21   -1    0    0  502  503 -0.00000000000E+00 -0.00000000000E+00 -0.37801899238E+03  0.37801899238E+03  0.00000000000E+00 0. -1.
         -6    2    1    2    0  503  0.57700414573E+02 -0.25015806316E+03  0.31590273081E+03  0.44214307544E+03  0.17259075704E+03 0.  0.
        -24    2    3    3    0    0  0.38607799194E+02 -0.38069917432E+02  0.99095134212E+02  0.13821292974E+03  0.79643502877E+02 0.  0.
          6    2    1    2  501    0 -0.57700414573E+02  0.25015806316E+03 -0.23924253305E+03  0.39055510709E+03  0.17142901635E+03 0.  0.
         24    2    5    5    0    0 -0.10130649501E+03  0.16484258475E+03 -0.13526659210E+03  0.24908670990E+03  0.79442145189E+02 0.  0.
          5    1    5    5  501    0  0.43606080435E+02  0.85315478414E+02 -0.10397594095E+03  0.14146839720E+03  0.47000000000E+01 0. -1.
        -11    1    6    6    0    0 -0.32074755997E+02  0.53648641234E+02 -0.91835721732E+02  0.11108900245E+03  0.00000000000E+00 0.  1.
         12    1    6    6    0    0 -0.69231739011E+02  0.11119394351E+03 -0.43430870365E+02  0.13799770745E+03  0.00000000000E+00 0. -1.
         -5    1    3    3    0  503  0.19092615379E+02 -0.21208814573E+03  0.21680759660E+03  0.30393014570E+03  0.47000000000E+01 0.  1.
         13    1    4    4    0    0  0.32936051676E+02 -0.53983317608E+02  0.35727979785E+02  0.72632435038E+02  0.00000000000E+00 0. -1.
        -14    1    4    4    0    0  0.56717475178E+01  0.15913400176E+02  0.63367154427E+02  0.65580494701E+02  0.00000000000E+00 0.  1.
</event>
<event>
12    1  0.1046899E+000  0.2883406E+03  0.7818608E-02  0.1091385E+00
         21   -1    0    0  501  502  0.00000000000E+00  0.00000000000E+00  0.33132866695E+03  0.33132866695E+03  0.00000000000E+00 0.  1.
         21   -1    0    0  502  503 -0.00000000000E+00 -0.00000000000E+00 -0.26738776202E+03  0.26738776202E+03  0.00000000000E+00 0.  1.
         -6    2    1    2    0  503  0.19775205875E+02  0.22993071466E+03 -0.44799386235E+02  0.29055292112E+03  0.17074783352E+03 0.  0.
        -24    2    3    3    0    0  0.23083165855E+02  0.14420484423E+03  0.36713199112E+02  0.17212041279E+03  0.83364907867E+02 0.  0.
          6    2    1    2  501    0 -0.19775205875E+02 -0.22993071466E+03  0.10874029117E+03  0.30816350785E+03  0.17286151781E+03 0.  0.
         24    2    5    5    0    0  0.45690729587E+01 -0.50326264871E+02  0.80842276289E+02  0.12472198712E+03  0.80414495408E+02 0.  0.
          5    1    5    5  501    0 -0.24344278834E+02 -0.17960444979E+03  0.27898014876E+02  0.18344152074E+03  0.47000000000E+01 0. -1.
        -13    1    6    6    0    0 -0.21526858319E+02  0.11098326977E+02  0.70451110078E+01  0.25223244833E+02  0.00000000000E+00 0.  1.
         14    1    6    6    0    0  0.26095931278E+02 -0.61424591848E+02  0.73797165281E+02  0.99498742286E+02  0.00000000000E+00 0. -1.
         -5    1    3    3    0  503 -0.33079599799E+01  0.85725870431E+02 -0.81512585347E+02  0.11843250833E+03  0.47000000000E+01 0.  1.
         11    1    4    4    0    0  0.36129683856E+02  0.14024653819E+03  0.13831084406E+02  0.14548451610E+03  0.00000000000E+00 0. -1.
        -12    1    4    4    0    0 -0.13046518001E+02  0.39583060377E+01  0.22882114706E+02  0.26635896682E+02  0.00000000000E+00 0.  1.
</event>
<event>
12    1  0.1046899E+000  0.2627295E+03  0.7818608E-02  0.1105673E+00
         21   -1    0    0  501  502  0.00000000000E+00  0.00000000000E+00  0.28095289621E+03  0.28095289621E+03  0.00000000000E+00 0. -1.
         21   -1    0    0  502  503 -0.00000000000E+00 -0.00000000000E+00 -0.32047579410E+03  0.32047579410E+03  0.00000000000E+00 0. -1.
         -6    2    1    2    0  503  0.18232444744E+03 -0.78786564704E+02  0.12650361147E+03  0.29063681032E+03  0.17034396051E+03 0.  0.
        -24    2    3    3    0    0  0.77084470563E+02 -0.10383362812E+03  0.55659967890E+02  0.16123928347E+03  0.78591580825E+02 0.  0.
          6    2    1    2  501    0 -0.18232444744E+03  0.78786564704E+02 -0.16602650936E+03  0.31079187999E+03  0.17198041733E+03 0.  0.
         24    2    5    5    0    0 -0.51841535921E+02  0.56823751355E+02 -0.23835213096E+02  0.11650186455E+03  0.84190756586E+02 0.  0.
          5    1    5    5  501    0 -0.13048291152E+03  0.21962813349E+02 -0.14219129626E+03  0.19429001544E+03  0.47000000000E+01 0. -1.
        -13    1    6    6    0    0 -0.67619099119E+02  0.32870799125E+02 -0.38300147945E+02  0.84378512273E+02  0.00000000000E+00 0.  1.
         14    1    6    6    0    0  0.15777563198E+02  0.23952952230E+02  0.14464934849E+02  0.32123352272E+02  0.00000000000E+00 0. -1.
         -5    1    3    3    0  503  0.10523997688E+03  0.25047063418E+02  0.70843643578E+02  0.12939752685E+03  0.47000000000E+01 0.  1.
         13    1    4    4    0    0 -0.85111166790E+01 -0.32341983600E+02 -0.57369317375E+01  0.33931628255E+02  0.00000000000E+00 0. -1.
        -14    1    4    4    0    0  0.85595587242E+02 -0.71491644522E+02  0.61396899627E+02  0.12730765521E+03  0.00000000000E+00 0.  1.
</event>
<event>
12    1  0.1046899E+000  0.2062814E+03  0.7818608E-02  0.1144610E+00
         21   -1    0    0  501  502  0.00000000000E+00  0.00000000000E+00  0.67823944643E+03  0.67823944643E+03  0.00000000000E+00 0.  1.
         21   -1    0    0  502  503 -0.00000000000E+00 -0.00000000000E+00 -0.63847153009E+02  0.63847153009E+02  0.00000000000E+00 0.  1.
         -6    2    1    2    0  503 -0.54506653664E+02  0.99668706447E+02  0.35794097711E+03  0.41296765464E+03  0.17180138050E+03 0.  0.
        -24    2    3    3    0    0  0.88837582289E+01  0.82133902343E+02  0.31220549156E+03  0.33272029759E+03  0.80035169725E+02 0.  0.
          6    2    1    2  501    0  0.54506653664E+02 -0.99668706447E+02  0.25645131630E+03  0.32911894480E+03  0.17218355279E+03 0.  0.
         24    2    5    5    0    0  0.17415012384E+02 -0.13282163520E+03  0.19933976281E+03  0.25323267410E+03  0.80284349419E+02 0.  0.
          5    1    5    5  501    0  0.37091641280E+02  0.33152928751E+02  0.57111553491E+02  0.75886270693E+02  0.47000000000E+01 0. -1.
        -13    1    6    6    0    0  0.73077468079E+01 -0.93053118818E+01 -0.60970307985E+01  0.13310363526E+02  0.00000000000E+00 0.  1.
         14    1    6    6    0    0  0.10107265576E+02 -0.12351632332E+03  0.20543679361E+03  0.23992231058E+03  0.00000000000E+00 0. -1.
         -5    1    3    3    0  503 -0.63390411893E+02  0.17534804104E+02  0.45735485556E+02  0.80247357053E+02  0.47000000000E+01 0.  1.
         13    1    4    4    0    0  0.41934217921E+02  0.66122237174E+02  0.21315697974E+03  0.22708264331E+03  0.00000000000E+00 0. -1.
        -14    1    4    4    0    0 -0.33050459692E+02  0.16011665169E+02  0.99048511814E+02  0.10563765427E+03  0.00000000000E+00 0.  1.
</event>
<event>
12    1  0.1046899E+000  0.3012772E+03  0.7818608E-02  0.1084707E+00
         21   -1    0    0  503  502  0.00000000000E+00  0.00000000000E+00  0.26483929488E+03  0.26483929488E+03  0.00000000000E+00 0.  1.
         21   -1    0    0  501  503 -0.00000000000E+00 -0.00000000000E+00 -0.60457434719E+03  0.60457434719E+03  0.00000000000E+00 0.  1.
          6    2    1    2  501    0  0.61394262271E+02 -0.23895333901E+03 -0.45659813070E+03  0.54703729219E+03  0.17291614275E+03 0.  0.
         24    2    3    3    0    0  0.55003710467E+02 -0.15676661388E+03 -0.41597303245E+03  0.45501563416E+03  0.80028021393E+02 0.  0.
         -6    2    1    2    0  502 -0.61394262271E+02  0.23895333901E+03  0.11686307839E+03  0.32237634988E+03  0.17146888408E+03 0.  0.
        -24    2    5    5    0    0  0.32705936429E+02  0.10773389752E+03  0.61000994909E+02  0.15144931401E+03  0.80867189771E+02 0.  0.
          5    1    3    3  501    0  0.63905518043E+01 -0.82186725123E+02 -0.40625098245E+02  0.92021658028E+02  0.47000000000E+01 0. -1.
        -11    1    4    4    0    0  0.17909184890E+02 -0.52850679515E+02 -0.24687474813E+03  0.25310289309E+03  0.00000000000E+00 0.  1.
         12    1    4    4    0    0  0.37094525577E+02 -0.10391593437E+03 -0.16909828432E+03  0.20191274107E+03  0.00000000000E+00 0. -1.
         -5    1    5    5    0  502 -0.94100198701E+02  0.13121944149E+03  0.55862083484E+02  0.17092703587E+03  0.47000000000E+01 0.  1.
         13    1    6    6    0    0  0.26605148345E+02  0.12085283467E+03  0.50910412204E+02  0.13380998333E+03  0.00000000000E+00 0. -1.
        -14    1    6    6    0    0  0.61007880842E+01 -0.13118937160E+02  0.10090582705E+02  0.17639330678E+02  0.00000000000E+00 0.  1.
</event>
<event>
12    1  0.1046899E+000  0.2040986E+03  0.7818608E-02  0.1146621E+00
         21   -1    0    0  501  502  0.00000000000E+00  0.00000000000E+00  0.96670761124E+02  0.96670761124E+02  0.00000000000E+00 0.  1.
         21   -1    0    0  502  503 -0.00000000000E+00 -0.00000000000E+00 -0.42921019512E+03  0.42921019512E+03  0.00000000000E+00 0.  1.
         -6    2    1    2    0  503  0.70763115735E+02  0.85623280183E+02 -0.18137786976E+03  0.27304610585E+03  0.17122347860E+03 0.  0.
        -24    2    3    3    0    0  0.15663566309E+02  0.11362852132E+03 -0.13385299229E+03  0.19493747729E+03  0.83229852455E+02 0.  0.
          6    2    1    2  501    0 -0.70763115735E+02 -0.85623280183E+02 -0.15116156423E+03  0.25283485039E+03  0.16951955171E+03 0.  0.
         24    2    5    5    0    0  0.23733708019E+02 -0.17176142416E+02 -0.58926987991E+02  0.10402635795E+03  0.80565404921E+02 0.  0.
          5    1    5    5  501    0 -0.94496823754E+02 -0.68447137767E+02 -0.92234576239E+02  0.14880849244E+03  0.47000000000E+01 0. -1.
        -11    1    6    6    0    0  0.34524136280E+02 -0.30895451978E+02 -0.41262682746E+01  0.46513127487E+02  0.00000000000E+00 0.  1.
         12    1    6    6    0    0 -0.10790428261E+02  0.13719309562E+02 -0.54800719716E+02  0.57513230463E+02  0.00000000000E+00 0. -1.
         -5    1    3    3    0  503  0.55099549425E+02 -0.28005241132E+02 -0.47524877471E+02  0.78108628565E+02  0.47000000000E+01 0.  1.
         13    1    4    4    0    0 -0.11886120363E+01  0.14281333159E+02  0.11290658965E+02  0.18244129336E+02  0.00000000000E+00 0. -1.
        -14    1    4    4    0    0  0.16852178346E+02  0.99347188156E+02 -0.14514365126E+03  0.17669334795E+03  0.00000000000E+00 0.  1.
</event>
<event>
12    1  0.1046899E+000  0.2748087E+03  0.7818608E-02  0.1098704E+00
         21   -1    0    0  501  502  0.00000000000E+00  0.00000000000E+00  0.42801436125E+03  0.42801436125E+03  0.00000000000E+00 0. -1.
         21   -1    0    0  502  503 -0.00000000000E+00 -0.00000000000E+00 -0.18856019736E+03  0.18856019736E+03  0.00000000000E+00 0. -1.
         -6    2    1    2    0  503  0.60254567026E+02 -0.20511066363E+03  0.19978800231E+03  0.33891789031E+03  0.17102366305E+03 0.  0.
        -24    2    3    3    0    0 -0.34132721616E+02 -0.12719506088E+03  0.10501576033E+03  0.18405127267E+03  0.74181769040E+02 0.  0.
          6    2    1    2  501    0 -0.60254567026E+02  0.20511066363E+03  0.39666161582E+02  0.27765666829E+03  0.17268127834E+03 0.  0.
         24    2    5    5    0    0 -0.15478189051E+01  0.18046454729E+03  0.66774580665E+02  0.20829623497E+03  0.79741007686E+02 0.  0.
          5    1    5    5  501    0 -0.58706748121E+02  0.24646116340E+02 -0.27108419082E+02  0.69360433323E+02  0.47000000000E+01 0. -1.
        -11    1    6    6    0    0  0.24570837155E+02  0.70980151878E+02 -0.42014247955E+01  0.75230046986E+02  0.00000000000E+00 0.  1.
         12    1    6    6    0    0 -0.26118656060E+02  0.10948439541E+03  0.70976005460E+02  0.13306618798E+03  0.00000000000E+00 0. -1.
         -5    1    3    3    0  503  0.94387288642E+02 -0.77915602754E+02  0.94772241981E+02  0.15486661764E+03  0.47000000000E+01 0.  1.
         11    1    4    4    0    0 -0.53438974835E+02 -0.74873176546E+02  0.83631387702E+02  0.12432186295E+03  0.00000000000E+00 0. -1.
        -12    1    4    4    0    0  0.19306253219E+02 -0.52321884333E+02  0.21384372626E+02  0.59729409725E+02  0.00000000000E+00 0.  1.
</event>
<event>
12    1  0.1046899E+000  0.2175927E+03  0.7818608E-02  0.1136064E+00
         21   -1    0    0  501  502  0.00000000000E+00  0.00000000000E+00  0.36120228404E+02  0.36120228404E+02  0.00000000000E+00 0. -1.
         21   -1    0    0  502  503 -0.00000000000E+00 -0.00000000000E+00 -0.19670083685E+04  0.19670083685E+04  0.00000000000E+00 0. -1.
         -6    2    1    2    0  503  0.25182090144E+02  0.13098560152E+03 -0.38467041734E+03  0.44194788169E+03  0.17191635956E+03 0.  0.
        -24    2    3    3    0    0  0.21857647288E+02  0.16096846767E+03 -0.28572822729E+03  0.33840237886E+03  0.80541578244E+02 0.  0.
          6    2    1    2  501    0 -0.25182090144E+02 -0.13098560152E+03 -0.15462177228E+04  0.15611807152E+04  0.16942436046E+03 0.  0.
         24    2    5    5    0    0  0.16880435104E+01 -0.50196954592E-01 -0.52202652936E+03  0.52829360866E+03  0.81114657032E+02 0.  0.
          5    1    5    5  501    0 -0.26870133654E+02 -0.13093540456E+03 -0.10241911934E+04  0.10328871066E+04  0.47000000000E+01 0. -1.
        -13    1    6    6    0    0 -0.11496808424E+01 -0.35005623753E+02 -0.12787128164E+03  0.13258122088E+03  0.00000000000E+00 0.  1.
         14    1    6    6    0    0  0.28377243528E+01  0.34955426798E+02 -0.39415524772E+03  0.39571238778E+03  0.00000000000E+00 0. -1.
         -5    1    3    3    0  503  0.33244428560E+01 -0.29982866148E+02 -0.98942190050E+02  0.10354550282E+03  0.47000000000E+01 0.  1.
         11    1    4    4    0    0 -0.28225659120E+02  0.42577152744E+02 -0.61592688356E+02  0.80019753983E+02  0.00000000000E+00 0. -1.
        -12    1    4    4    0    0  0.50083306408E+02  0.11839131492E+03 -0.22413553893E+03  0.25838262488E+03  0.00000000000E+00 0.  1.
</event>
<event>
12    1  0.1046899E+000  0.1867782E+03  0.7818608E-02  0.1161563E+00
         21   -1    0    0  503  502  0.00000000000E+00  0.00000000000E+00  0.11716003602E+03  0.11716003602E+03  0.00000000000E+00 0. -1.
         21   -1    0    0  501  503 -0.00000000000E+00 -0.00000000000E+00 -0.30524182333E+03  0.30524182333E+03  0.00000000000E+00 0. -1.
          6    2    1    2  501    0  0.63318413284E+02  0.32352498061E+02 -0.12933040059E+03  0.22660142458E+03  0.17194751384E+03 0.  0.
         24    2    3    3    0    0  0.23309279016E+02  0.42565899861E+02 -0.15262072926E+03  0.17896138039E+03  0.79868080940E+02 0.  0.
         -6    2    1    2    0  502 -0.63318413284E+02 -0.32352498061E+02 -0.58751386718E+02  0.19580043477E+03  0.17271415467E+03 0.  0.
        -24    2    5    5    0    0  0.18792809399E+02 -0.32164379596E+01 -0.67344553949E+02  0.10812435245E+03  0.82414024823E+02 0.  0.
          5    1    3    3  501    0  0.40009134269E+02 -0.10213401800E+02  0.23290328667E+02  0.47640044193E+02  0.47000000000E+01 0. -1.
        -11    1    4    4    0    0  0.41708895658E+02  0.37872384848E+02 -0.14944157431E+03  0.15970827669E+03  0.00000000000E+00 0.  1.
         12    1    4    4    0    0 -0.18399616642E+02  0.46935150132E+01 -0.31791549414E+01  0.19253103695E+02  0.00000000000E+00 0. -1.
         -5    1    5    5    0  502 -0.82111222683E+02 -0.29136060102E+02  0.85931672306E+01  0.87676082325E+02  0.47000000000E+01 0.  1.
         13    1    6    6    0    0 -0.30051826106E+02 -0.25862231086E+01 -0.45556239830E+02  0.54636725650E+02  0.00000000000E+00 0. -1.
        -14    1    6    6    0    0  0.48844635505E+02 -0.63021485097E+00 -0.21788314118E+02  0.53487626798E+02  0.00000000000E+00 0.  1.
</event>
<event>
12    1  0.1046899E+000  0.2750141E+03  0.7818608E-02  0.1098574E+00
         21   -1    0    0  503  502  0.00000000000E+00  0.00000000000E+00  0.33066132777E+03  0.33066132777E+03  0.00000000000E+00 0. -1.
         21   -1    0    0  501  503 -0.00000000000E+00 -0.00000000000E+00 -0.23405045691E+03  0.23405045691E+03  0.00000000000E+00 0. -1.
          6    2    1    2  501    0 -0.21096764808E+03  0.37637815963E+02  0.93935022091E+02  0.29061411897E+03  0.17236247864E+03 0.  0.
         24    2    3    3    0    0 -0.12085341412E+03  0.85211440217E+02  0.31669482209E+02  0.17110297997E+03  0.80042091457E+02 0.  0.
         -6    2    1    2    0  502  0.21096764808E+03 -0.37637815963E+02  0.26758487664E+01  0.27409766571E+03  0.17087544135E+03 0.  0.
        -24    2    5    5    0    0  0.14996535740E+03 -0.37541413519E+02  0.65896259518E+02  0.18611926440E+03  0.79994358636E+02 0.  0.
          5    1    3    3  501    0 -0.90114233962E+02 -0.47573624254E+02  0.62265539882E+02  0.11951113900E+03  0.47000000000E+01 0. -1.
        -13    1    4    4    0    0 -0.11567015407E+03  0.45193514732E+02  0.82779097562E+01  0.12446108672E+03  0.00000000000E+00 0.  1.
         14    1    4    4    0    0 -0.51832600465E+01  0.40017925485E+02  0.23391572453E+02  0.46641893257E+02  0.00000000000E+00 0. -1.
         -5    1    5    5    0  502  0.61002290678E+02 -0.96402443825E-01 -0.63220410752E+02  0.87978401310E+02  0.47000000000E+01 0.  1.
         11    1    6    6    0    0  0.77799995747E+02 -0.56687890109E+02  0.19504424356E+02  0.98218016640E+02  0.00000000000E+00 0. -1.
        -12    1    6    6    0    0  0.72165361655E+02  0.19146476590E+02  0.46391835161E+02  0.87901247763E+02  0.00000000000E+00 0.  1.
</event>
<event>
12    1  0.1046899E+000  0.1836166E+03  0.7818608E-02  0.1164473E+00
         21   -1    0    0  501  502  0.00000000000E+00  0.00000000000E+00  0.21299767866E+03  0.21299767866E+03  0.00000000000E+00 0.  1.
         21   -1    0    0  502  503 -0.00000000000E+00 -0.00000000000E+00 -0.35768045455E+03  0.35768045455E+03  0.00000000000E+00 0.  1.
         -6    2    1    2    0  503  0.55033381446E+02 -0.31678093923E+02 -0.28567345164E+03  0.33959443482E+03  0.17228721507E+03 0.  0.
        -24    2    3    3    0    0  0.53907664126E+02 -0.42873916562E+02 -0.30163225490E+03  0.31950993618E+03  0.79751947644E+02 0.  0.
          6    2    1    2  501    0 -0.55033381446E+02  0.31678093923E+02  0.14099067575E+03  0.23108369839E+03  0.17172399456E+03 0.  0.
         24    2    5    5    0    0  0.22141622840E+01 -0.12725973832E+02  0.13548123678E+03  0.15827266617E+03  0.80797391120E+02 0.  0.
          5    1    5    5  501    0 -0.57247543730E+02  0.44404067755E+02  0.55094389749E+01  0.72811032228E+02  0.47000000000E+01 0. -1.
        -11    1    6    6    0    0  0.34226957594E+01 -0.28952427492E+02  0.86616732500E+01  0.30413524745E+02  0.00000000000E+00 0.  1.
         12    1    6    6    0    0 -0.12085334753E+01  0.16226453660E+02  0.12681956353E+03  0.12785914142E+03  0.00000000000E+00 0. -1.
         -5    1    3    3    0  503  0.11257173195E+01  0.11195822638E+02  0.15958803254E+02  0.20084498633E+02  0.47000000000E+01 0.  1.
         11    1    4    4    0    0  0.20433055707E+02 -0.13317546669E+02 -0.25024487531E+03  0.25143063543E+03  0.00000000000E+00 0. -1.
        -12    1    4    4    0    0  0.33474608419E+02 -0.29556369893E+02 -0.51387379589E+02  0.68079300754E+02  0.00000000000E+00 0.  1.
</event>
<event>
12    1  0.1046899E+000  0.2041599E+03  0.7818608E-02  0.1146887E+00
         21   -1    0    0  503  502  0.00000000000E+00  0.00000000000E+00  0.90651693258E+03  0.90651693258E+03  0.00000000000E+00 0. -1.
         21   -1    0    0  501  503 -0.00000000000E+00 -0.00000000000E+00 -0.54233208506E+02  0.54233208506E+02  0.00000000000E+00 0. -1.
          6    2    1    2  501    0 -0.83953039104E+02  0.66603468892E+02  0.62350868511E+03  0.65608257362E+03  0.17377320900E+03 0.  0.
         24    2    3    3    0    0 -0.10288797952E+03  0.17898402474E+02  0.55697579718E+03  0.57135105270E+03  0.72895113883E+02 0.  0.
         -6    2    1    2    0  502  0.83953039104E+02 -0.66603468892E+02  0.22877503897E+03  0.30466756746E+03  0.17029437268E+03 0.  0.
        -24    2    5    5    0    0  0.44678207584E+02 -0.64178089039E+02  0.57339344899E+02  0.12871108972E+03  0.84639085525E+02 0.  0.
          5    1    3    3  501    0  0.18934940414E+02  0.48705066418E+02  0.66532887923E+02  0.84731520927E+02  0.47000000000E+01 0. -1.
        -11    1    4    4    0    0 -0.71009098441E+02 -0.85719573845E+01  0.20863821779E+03  0.22055764878E+03  0.00000000000E+00 0.  1.
         12    1    4    4    0    0 -0.31878881077E+02  0.26470359859E+02  0.34833757940E+03  0.35079340392E+03  0.00000000000E+00 0. -1.
         -5    1    5    5    0  502  0.39274831520E+02 -0.24253798528E+01  0.17143569407E+03  0.17595647774E+03  0.47000000000E+01 0.  1.
         13    1    6    6    0    0  0.40183105823E+02 -0.25729503761E+02  0.72786844946E+02  0.87032259275E+02  0.00000000000E+00 0. -1.
        -14    1    6    6    0    0  0.44951017605E+01 -0.38448585279E+02 -0.15447500047E+02  0.41678830448E+02  0.00000000000E+00 0.  1.
</event>
<event>
12    1  0.1046899E+000  0.1885404E+03  0.7818608E-02  0.1160031E+00
         21   -1    0    0  503  502  0.00000000000E+00  0.00000000000E+00  0.38443758370E+03  0.38443758370E+03  0.00000000000E+00 0. -1.
         21   -1    0    0  501  503 -0.00000000000E+00 -0.00000000000E+00 -0.95427610225E+02  0.95427610225E+02  0.00000000000E+00 0. -1.
          6    2    1    2  501    0 -0.38304560520E+02  0.65730630707E+02  0.99018922845E+02  0.21296064297E+03  0.17251009594E+03 0.  0.
         24    2    3    3    0    0 -0.13772784179E+02  0.87631417649E+02  0.13977551947E+02  0.12166126026E+03  0.82080054497E+02 0.  0.
         -6    2    1    2    0  502  0.38304560520E+02 -0.65730630707E+02  0.18999105063E+03  0.26690455095E+03  0.17132917099E+03 0.  0.
        -24    2    5    5    0    0 -0.34089120691E+02  0.13388626991E+02  0.90155333988E+02  0.12031000012E+03  0.70747356130E+02 0.  0.
          5    1    3    3  501    0 -0.24531776341E+02 -0.21900786942E+02  0.85041370898E+02  0.91299382710E+02  0.47000000000E+01 0. -1.
        -13    1    4    4    0    0 -0.41853902409E+02  0.78887602066E+02  0.48771854211E+00  0.89304203574E+02  0.00000000000E+00 0.  1.
         14    1    4    4    0    0  0.28081118231E+02  0.87438155827E+01  0.13489833405E+02  0.32357056685E+02  0.00000000000E+00 0. -1.
         -5    1    5    5    0  502  0.72393681211E+02 -0.79119257698E+02  0.99835716639E+02  0.14659455084E+03  0.47000000000E+01 0.  1.
         11    1    6    6    0    0 -0.49945941168E+02  0.39115180882E+00  0.33716421026E+02  0.60262318954E+02  0.00000000000E+00 0. -1.
        -12    1    6    6    0    0  0.15856820477E+02  0.12997475182E+02  0.56438912961E+02  0.60047681162E+02  0.00000000000E+00 0.  1.
</event>
<event>
12    1  0.1046899E+000  0.1722291E+03  0.7818608E-02  0.1175915E+00
         21   -1    0    0  503  502  0.00000000000E+00  0.00000000000E+00  0.44405576847E+02  0.44405576847E+02  0.00000000000E+00 0.  1.
         21   -1    0    0  501  503 -0.00000000000E+00 -0.00000000000E+00 -0.11384177306E+04  0.11384177306E+04  0.00000000000E+00 0.  1.
          6    2    1    2  501    0  0.46863647498E+01 -0.30743633519E+01 -0.16324509083E+03  0.23625573372E+03  0.17069387309E+03 0.  0.
         24    2    3    3    0    0  0.54317887419E+02  0.29846688701E+02 -0.13800179550E+03  0.17139898642E+03  0.80572074966E+02 0.  0.
         -6    2    1    2    0  502 -0.46863647498E+01  0.30743633519E+01 -0.93076706288E+03  0.94656757369E+03  0.17213782992E+03 0.  0.
        -24    2    5    5    0    0 -0.19458596458E+02 -0.14855269293E+02 -0.23610517527E+03  0.25150144831E+03  0.83114431410E+02 0.  0.
          5    1    3    3  501    0 -0.49631522669E+02 -0.32921052053E+02 -0.25243295329E+02  0.64856747296E+02  0.47000000000E+01 0. -1.
        -13    1    4    4    0    0 -0.15380462525E+02 -0.37340332953E+01 -0.34630211871E+01  0.16201671145E+02  0.00000000000E+00 0.  1.
         14    1    4    4    0    0  0.69698349945E+02  0.33580721997E+02 -0.13453877432E+03  0.15519731528E+03  0.00000000000E+00 0. -1.
         -5    1    5    5    0  502  0.14772231708E+02  0.17929632645E+02 -0.69466188760E+03  0.69506612538E+03  0.47000000000E+01 0.  1.
         13    1    6    6    0    0  0.21563154021E+02  0.20513617908E+02 -0.55859435260E+02  0.63293401224E+02  0.00000000000E+00 0. -1.
        -14    1    6    6    0    0 -0.41021750479E+02 -0.35368887201E+02 -0.18024574001E+03  0.18820804708E+03  0.00000000000E+00 0.  1.
</event>
<event>
12    1  0.1046899E+000  0.2742819E+03  0.7818608E-02  0.1098910E+00
         21   -1    0    0  501  502  0.00000000000E+00  0.00000000000E+00  0.36305669039E+03  0.36305669039E+03  0.00000000000E+00 0. -1.
         21   -1    0    0  502  503 -0.00000000000E+00 -0.00000000000E+00 -0.20829404658E+03  0.20829404658E+03  0.00000000000E+00 0. -1.
         -6    2    1    2    0  503 -0.12381599508E+02  0.21335036481E+03  0.54177680827E+02  0.27958145641E+03  0.17192698304E+03 0.  0.
        -24    2    3    3    0    0 -0.39898661159E+02  0.78093137034E+02 -0.23574505655E+02  0.12109108178E+03  0.80105252983E+02 0.  0.
          6    2    1    2  501    0  0.12381599508E+02 -0.21335036481E+03  0.10058496298E+03  0.29176928056E+03  0.17129009350E+03 0.  0.
         24    2    5    5    0    0  0.32156652047E+02 -0.17156804906E+03  0.13368472598E+03  0.23472106479E+03  0.82174975319E+02 0.  0.
          5    1    5    5  501    0 -0.19775052539E+02 -0.41782315757E+02 -0.33099762993E+02  0.57048215775E+02  0.47000000000E+01 0. -1.
        -13    1    6    6    0    0  0.25687273268E+02 -0.72856148732E+02  0.12450756177E+02  0.78248806671E+02  0.00000000000E+00 0.  1.
         14    1    6    6    0    0  0.64693787788E+01 -0.98711900323E+02  0.12123396980E+03  0.15647225812E+03  0.00000000000E+00 0. -1.
         -5    1    3    3    0  503  0.27517061651E+02  0.13525722778E+03  0.77752186481E+02  0.15849037463E+03  0.47000000000E+01 0.  1.
         13    1    4    4    0    0 -0.67296603307E+01  0.28403511630E+02 -0.48298654851E+02  0.56434101938E+02  0.00000000000E+00 0. -1.
        -14    1    4    4    0    0 -0.33169000829E+02  0.49689625404E+02  0.24724149196E+02  0.64656979841E+02  0.00000000000E+00 0.  1.
</event>
<event>
12    1  0.1046899E+000  0.1720083E+03  0.7818608E-02  0.1175772E+00
         21   -1    0    0  503  502  0.00000000000E+00  0.00000000000E+00  0.14195905153E+03  0.14195905153E+03  0.00000000000E+00 0.  1.
         21   -1    0    0  501  503 -0.00000000000E+00 -0.00000000000E+00 -0.38447588573E+03  0.38447588573E+03  0.00000000000E+00 0.  1.
          6    2    1    2  501    0 -0.99409112371E+01  0.65841575315E+01 -0.29938081258E+03  0.34527101878E+03  0.17158389383E+03 0.  0.
         24    2    3    3    0    0  0.33947003960E+02 -0.29719607725E+01 -0.28481639529E+03  0.29781914054E+03  0.80091384169E+02 0.  0.
         -6    2    1    2    0  502  0.99409112371E+01 -0.65841575315E+01  0.56863978383E+02  0.18116391847E+03  0.17159452343E+03 0.  0.
        -24    2    5    5    0    0  0.55361192345E+02  0.14673138848E+02  0.80299184765E+02  0.12561057938E+03  0.77781077120E+02 0.  0.
          5    1    3    3  501    0 -0.43887915198E+02  0.95561183040E+01 -0.14564417289E+02  0.47451878239E+02  0.47000000000E+01 0. -1.
        -13    1    4    4    0    0  0.54939342757E+02  0.16798256273E+02 -0.17036152315E+03  0.17978754508E+03  0.00000000000E+00 0.  1.
         14    1    4    4    0    0 -0.20992338797E+02 -0.19770217046E+02 -0.11445487215E+03  0.11803159547E+03  0.00000000000E+00 0. -1.
         -5    1    5    5    0  502 -0.45420281108E+02 -0.21257296379E+02 -0.23435206382E+02  0.55553339085E+02  0.47000000000E+01 0.  1.
         11    1    6    6    0    0  0.63353283654E+02  0.30467965914E+02  0.38349159842E+02  0.80078671051E+02  0.00000000000E+00 0. -1.
        -12    1    6    6    0    0 -0.79920913083E+01 -0.15794827066E+02  0.41950024923E+02  0.45531908334E+02  0.00000000000E+00 0.  1.
</event>
<event>
12    1  0.1046899E+000  0.2305378E+03  0.7818608E-02  0.1126398E+00
         21   -1    0    0  501  502  0.00000000000E+00  0.00000000000E+00  0.43193015679E+03  0.43193015679E+03  0.00000000000E+00 0. -1.
         21   -1    0    0  502  503 -0.00000000000E+00 -0.00000000000E+00 -0.12282247139E+03  0.12282247139E+03  0.00000000000E+00 0. -1.
         -6    2    1    2    0  503  0.67366913832E+02  0.13645175519E+03  0.14396602654E+03  0.27179748811E+03  0.17317700532E+03 0.  0.
        -24    2    3    3    0    0  0.33133478883E+02  0.91859944157E+02  0.16858447864E+03  0.21024656721E+03  0.79036800422E+02 0.  0.
          6    2    1    2  501    0 -0.67366913832E+02 -0.13645175519E+03  0.16514165886E+03  0.28295514007E+03  0.17214662711E+03 0.  0.
         24    2    5    5    0    0  0.63153340761E+01 -0.62658597864E+02  0.20799598075E+02  0.10482253711E+03  0.81173626723E+02 0.  0.
          5    1    5    5  501    0 -0.73682247908E+02 -0.73793157327E+02  0.14434206079E+03  0.17813260296E+03  0.47000000000E+01 0. -1.
        -11    1    6    6    0    0  0.15485073675E+02  0.14565357460E+02  0.16547559829E+02  0.26939912415E+02  0.00000000000E+00 0.  1.
         12    1    6    6    0    0 -0.91697395989E+01 -0.77223955324E+02  0.42520382464E+01  0.77882624695E+02  0.00000000000E+00 0. -1.
         -5    1    3    3    0  503  0.34233434949E+02  0.44591811035E+02 -0.24618452102E+02  0.61550920900E+02  0.47000000000E+01 0.  1.
         13    1    4    4    0    0 -0.23910267270E+02  0.34330662896E+02  0.79471419848E+02  0.89810922880E+02  0.00000000000E+00 0. -1.
        -14    1    4    4    0    0  0.57043746153E+02  0.57529281260E+02  0.89113058791E+02  0.12043564433E+03  0.00000000000E+00 0.  1.
</event>
<event>
12    1  0.1046899E+000  0.1883500E+03  0.7818608E-02  0.1162484E+00
         21   -1    0    0  501  502  0.00000000000E+00  0.00000000000E+00  0.15760547230E+04  0.15760547230E+04  0.00000000000E+00 0.  1.
         21   -1    0    0  502  503 -0.00000000000E+00 -0.00000000000E+00 -0.24015145367E+02  0.24015145367E+02  0.00000000000E+00 0.  1.
         -6    2    1    2    0  503 -0.27172444943E+02 -0.37865091930E+02  0.10275159546E+04  0.10427541891E+04  0.17139181713E+03 0.  0.
        -24    2    3    3    0    0 -0.51545505603E+02 -0.59142279033E+02  0.97104254445E+03  0.97750006409E+03  0.80174832933E+02 0.  0.
          6    2    1    2  501    0  0.27172444943E+02  0.37865091930E+02  0.52452362308E+03  0.55731567932E+03  0.18249281708E+03 0.  0.
         24    2    5    5    0    0 -0.36083677344E+02 -0.30138567497E+02  0.21508540845E+03  0.23420589398E+03  0.79876797799E+02 0.  0.
          5    1    5    5  501    0  0.63256122286E+02  0.68003659427E+02  0.30943821463E+03  0.32310978533E+03  0.47000000000E+01 0. -1.
        -13    1    6    6    0    0 -0.25432635436E+02 -0.10456707123E+02  0.12188570743E+02  0.30078612432E+02  0.00000000000E+00 0.  1.
         14    1    6    6    0    0 -0.10651041907E+02 -0.19681860375E+02  0.20289683771E+03  0.20412728155E+03  0.00000000000E+00 0. -1.
         -5    1    3    3    0  503  0.24373060661E+02  0.21277187103E+02  0.56473410103E+02  0.65254124971E+02  0.47000000000E+01 0.  1.
         11    1    4    4    0    0 -0.23315250285E+02 -0.35679035467E+02  0.84869191525E+03  0.84976147328E+03  0.00000000000E+00 0. -1.
        -12    1    4    4    0    0 -0.28230255318E+02 -0.23463243566E+02  0.12235062921E+03  0.12773859081E+03  0.00000000000E+00 0.  1.
</event>
<event>
12    1  0.1046899E+000  0.2483444E+03  0.7818608E-02  0.1114710E+00
         21   -1    0    0  501  502  0.00000000000E+00  0.00000000000E+00  0.60826474897E+03  0.60826474897E+03  0.00000000000E+00 0. -1.
         21   -1    0    0  502  503 -0.00000000000E+00 -0.00000000000E+00 -0.10404027695E+03  0.10404027695E+03  0.00000000000E+00 0. -1.
         -6    2    1    2    0  503 -0.31784679896E+02  0.17597233002E+03  0.31677688832E+03  0.40115951307E+03  0.16912962821E+03 0.  0.
        -24    2    3    3    0    0 -0.37393109166E+02  0.17587551013E+03  0.18724198945E+03  0.27141806295E+03  0.79232333072E+02 0.  0.
          6    2    1    2  501    0  0.31784679896E+02 -0.17597233002E+03  0.18744758369E+03  0.31114551285E+03  0.17233225679E+03 0.  0.
         24    2    5    5    0    0  0.73935578152E+01 -0.84756462698E+02  0.20305614019E+02  0.11912002154E+03  0.80863705734E+02 0.  0.
          5    1    5    5  501    0  0.24391122081E+02 -0.91215867320E+02  0.16714196967E+03  0.19202549131E+03  0.47000000000E+01 0. -1.
        -11    1    6    6    0    0 -0.27982791165E+02 -0.68786893881E+02  0.28337483753E+02  0.79483874821E+02  0.00000000000E+00 0.  1.
         12    1    6    6    0    0  0.35376348980E+02 -0.15969568817E+02 -0.80318697341E+01  0.39636146720E+02  0.00000000000E+00 0. -1.
         -5    1    3    3    0  503  0.56084292706E+01  0.96819886156E-01  0.12953489887E+03  0.12974145011E+03  0.47000000000E+01 0.  1.
         11    1    4    4    0    0  0.16199261962E+02  0.10689722685E+02  0.37017412427E+02  0.41796831004E+02  0.00000000000E+00 0. -1.
        -12    1    4    4    0    0 -0.53592371129E+02  0.16518578745E+03  0.15022457703E+03  0.22962123195E+03  0.00000000000E+00 0.  1.
</event>
<event>
12    1  0.1046899E+000  0.1873079E+03  0.7818608E-02  0.1160923E+00
         21   -1    0    0  501  502  0.00000000000E+00  0.00000000000E+00  0.43958197026E+02  0.43958197026E+02  0.00000000000E+00 0. -1.
         21   -1    0    0  502  503 -0.00000000000E+00 -0.00000000000E+00 -0.80624150953E+03  0.80624150953E+03  0.00000000000E+00 0. -1.
         -6    2    1    2    0  503  0.31269454427E+02 -0.66793917456E+02 -0.33800874065E+03  0.38643777646E+03  0.17217735081E+03 0.  0.
        -24    2    3    3    0    0 -0.36649478846E+02 -0.42317486301E+02 -0.26985588342E+03  0.28704472274E+03  0.80240395630E+02 0.  0.
          6    2    1    2  501    0 -0.31269454427E+02  0.66793917456E+02 -0.42427457186E+03  0.46376193010E+03  0.17212498161E+03 0.  0.
         24    2    5    5    0    0 -0.53429029502E+02 -0.15464426888E+02 -0.27629012380E+03  0.29294340403E+03  0.79911174194E+02 0.  0.
          5    1    5    5  501    0  0.22159575075E+02  0.82258344344E+02 -0.14798444806E+03  0.17081852607E+03  0.47000000000E+01 0. -1.
        -13    1    6    6    0    0  0.11350174722E+02 -0.12882800209E+02 -0.12329372250E+02  0.21137796184E+02  0.00000000000E+00 0.  1.
         14    1    6    6    0    0 -0.64779204224E+02 -0.25816266785E+01 -0.26396075155E+03  0.27180560784E+03  0.00000000000E+00 0. -1.
         -5    1    3    3    0  503  0.67918933273E+02 -0.24476431155E+02 -0.68152857224E+02  0.99393053715E+02  0.47000000000E+01 0.  1.
         11    1    4    4    0    0 -0.26417648050E+02 -0.65150936817E+02 -0.22443005290E+03  0.23518372678E+03  0.00000000000E+00 0. -1.
        -12    1    4    4    0    0 -0.10231830796E+02  0.22833450516E+02 -0.45425830521E+02  0.51860995965E+02  0.00000000000E+00 0.  1.
</event>
<event>
12    1  0.1046899E+000  0.1906329E+03  0.7818608E-02  0.1158010E+00
         21   -1    0    0  503  502  0.00000000000E+00  0.00000000000E+00  0.38148582305E+02  0.38148582305E+02  0.00000000000E+00 0.  1.
         21   -1    0    0  501  503 -0.00000000000E+00 -0.00000000000E+00 -0.98280000632E+03  0.98280000632E+03  0.00000000000E+00 0.  1.
          6    2    1    2  501    0 -0.44099511522E+02  0.67201730443E+02 -0.56623901235E+03  0.59746757634E+03  0.17285845704E+03 0.  0.
         24    2    3    3    0    0 -0.26073119683E+02 -0.20956404593E+02 -0.38833923911E+03  0.39805035818E+03  0.80732549529E+02 0.  0.
         -6    2    1    2    0  502  0.44099511522E+02 -0.67201730443E+02 -0.37841241167E+03  0.42348101229E+03  0.17227702975E+03 0.  0.
        -24    2    5    5    0    0  0.24055654720E+02 -0.82696610477E+01 -0.34013113439E+03  0.35025334547E+03  0.79631373303E+02 0.  0.
          5    1    3    3  501    0 -0.18026391839E+02  0.88158135037E+02 -0.17789977325E+03  0.19941721816E+03  0.47000000000E+01 0. -1.
        -11    1    4    4    0    0 -0.38173726621E+02  0.63342004714E+01 -0.86772358338E+02  0.95009460957E+02  0.00000000000E+00 0.  1.
         12    1    4    4    0    0  0.12100606938E+02 -0.27290605065E+02 -0.30156688077E+03  0.30304089722E+03  0.00000000000E+00 0. -1.
         -5    1    5    5    0  502  0.20043856802E+02 -0.58932069395E+02 -0.38281277278E+02  0.73227666826E+02  0.47000000000E+01 0.  1.
         11    1    6    6    0    0  0.21576898858E+02  0.10385338245E+02 -0.25208924622E+02  0.34769349942E+02  0.00000000000E+00 0. -1.
        -12    1    6    6    0    0  0.24787558616E+01 -0.18654999293E+02 -0.31492220977E+03  0.31548399553E+03  0.00000000000E+00 0.  1.
</event>
<event>
12    1  0.1046899E+000  0.2537714E+03  0.7818608E-02  0.1111584E+00
         21   -1    0    0  503  502  0.00000000000E+00  0.00000000000E+00  0.10190695103E+04  0.10190695103E+04  0.00000000000E+00 0.  1.
         21   -1    0    0  501  503 -0.00000000000E+00 -0.00000000000E+00 -0.19209745690E+03  0.19209745690E+03  0.00000000000E+00 0.  1.
          6    2    1    2  501    0  0.45606312713E+01  0.18151612612E+03  0.91259062726E+03  0.94721780745E+03  0.17728795334E+03 0.  0.
         24    2    3    3    0    0 -0.39539960311E+02  0.49336982151E+02  0.53760791233E+03  0.54715491893E+03  0.79741404809E+02 0.  0.
         -6    2    1    2    0  502 -0.45606312713E+01 -0.18151612612E+03 -0.85618573857E+02  0.26394915974E+03  0.17137594738E+03 0.  0.
        -24    2    5    5    0    0  0.16461905460E+01 -0.16602051023E+02 -0.26920395438E+02  0.88727177809E+02  0.82882243876E+02 0.  0.
          5    1    3    3  501    0  0.44100591582E+02  0.13217914397E+03  0.37498271492E+03  0.40006288852E+03  0.47000000000E+01 0. -1.
        -13    1    4    4    0    0 -0.14711415782E+02  0.17532080648E+02  0.45131444396E+03  0.45189437586E+03  0.00000000000E+00 0.  1.
         14    1    4    4    0    0 -0.24828544529E+02  0.31804901503E+02  0.86293468376E+02  0.95260543077E+02  0.00000000000E+00 0. -1.
         -5    1    5    5    0  502 -0.62068218173E+01 -0.16491407510E+03 -0.58698178420E+02  0.17522198193E+03  0.47000000000E+01 0.  1.
         13    1    6    6    0    0  0.41802618510E+02 -0.34570239035E+01 -0.94007584421E+01  0.42985860324E+02  0.00000000000E+00 0. -1.
        -14    1    6    6    0    0 -0.40156427964E+02 -0.13145027119E+02 -0.17519636995E+02  0.45741317485E+02  0.00000000000E+00 0.  1.
</event>
<event>
12    1  0.1046899E+000  0.1747815E+03  0.7818608E-02  0.1176527E+00
         21   -1    0    0  501  502  0.00000000000E+00  0.00000000000E+00  0.33791259579E+02  0.33791259579E+02  0.00000000000E+00 0.  1.
         21   -1    0    0  502  503 -0.00000000000E+00 -0.00000000000E+00 -0.84360621024E+03  0.84360621024E+03  0.00000000000E+00 0.  1.
         -6    2    1    2    0  503  0.99872476865E+01  0.25092506530E+02 -0.34431920167E+03  0.38017029604E+03  0.15888474549E+03 0.  0.
        -24    2    3    3    0    0  0.29815350038E+02  0.28197586779E+02 -0.34742109059E+03  0.35932546740E+03  0.82032422477E+02 0.  0.
          6    2    1    2  501    0 -0.99872476865E+01 -0.25092506530E+02 -0.46549574898E+03  0.49722717378E+03  0.17268234136E+03 0.  0.
         24    2    5    5    0    0  0.43835158528E+02 -0.54866202350E+02 -0.22041775937E+03  0.24450472648E+03  0.79162815402E+02 0.  0.
          5    1    5    5  501    0 -0.53822406215E+02  0.29773695821E+02 -0.24507798961E+03  0.25272244729E+03  0.47000000000E+01 0. -1.
        -13    1    6    6    0    0  0.13166863946E+02 -0.33631369664E+02 -0.19739013920E+03  0.20066714326E+03  0.00000000000E+00 0.  1.
         14    1    6    6    0    0  0.30668294582E+02 -0.21234832686E+02 -0.23027620171E+02  0.43837583220E+02  0.00000000000E+00 0. -1.
         -5    1    3    3    0  503 -0.19828102351E+02 -0.31050802494E+01  0.31018889150E+01  0.20844828640E+02  0.47000000000E+01 0.  1.
         11    1    4    4    0    0  0.14322881556E+02  0.56170381299E+02 -0.18819645705E+03  0.19692171825E+03  0.00000000000E+00 0. -1.
        -12    1    4    4    0    0  0.15492468482E+02 -0.27972794520E+02 -0.15922463354E+03  0.16240374915E+03  0.00000000000E+00 0.  1.
</event>
<event>
12    1  0.1046899E+000  0.1901535E+03  0.7818608E-02  0.1159570E+00
         21   -1    0    0  503  502  0.00000000000E+00  0.00000000000E+00  0.26185685432E+03  0.26185685432E+03  0.00000000000E+00 0. -1.
         21   -1    0    0  501  503 -0.00000000000E+00 -0.00000000000E+00 -0.17081447872E+03  0.17081447872E+03  0.00000000000E+00 0. -1.
          6    2    1    2  501    0  0.61212108178E+02 -0.15044288068E+02  0.14521443063E+03  0.23495189612E+03  0.17361425585E+03 0.  0.
         24    2    3    3    0    0 -0.48460858899E+01 -0.35500566219E+02  0.14541657741E+03  0.16563901721E+03  0.70756825003E+02 0.  0.
         -6    2    1    2    0  502 -0.61212108178E+02  0.15044288068E+02 -0.54172055031E+02  0.19771943693E+03  0.17940209419E+03 0.  0.
        -24    2    5    5    0    0 -0.55332196786E+02  0.78089379570E+02 -0.56184007397E+02  0.13419467897E+03  0.75445118963E+02 0.  0.
          5    1    3    3  501    0  0.66058194068E+02  0.20456278151E+02 -0.20214678562E+00  0.69312878909E+02  0.47000000000E+01 0. -1.
        -13    1    4    4    0    0 -0.24004129543E+02 -0.22889291581E+02  0.21294169690E+02  0.39415219992E+02  0.00000000000E+00 0.  1.
         14    1    4    4    0    0  0.19158043653E+02 -0.12611274638E+02  0.12412240772E+03  0.12622379722E+03  0.00000000000E+00 0. -1.
         -5    1    5    5    0  502 -0.58799113925E+01 -0.63045091502E+02  0.20119523656E+01  0.63524757952E+02  0.47000000000E+01 0.  1.
         11    1    6    6    0    0 -0.42545870877E+02  0.37112781693E+01 -0.36552555015E+02  0.56214001748E+02  0.00000000000E+00 0. -1.
        -12    1    6    6    0    0 -0.12786325908E+02  0.74378101400E+02 -0.19631452381E+02  0.77980677227E+02  0.00000000000E+00 0.  1.
</event>
<event>
12    1  0.1046899E+000  0.2488549E+03  0.7818608E-02  0.1114087E+00
         21   -1    0    0  501  502  0.00000000000E+00  0.00000000000E+00  0.11681920064E+03  0.11681920064E+03  0.00000000000E+00 0.  1.
         21   -1    0    0  502  503 -0.00000000000E+00 -0.00000000000E+00 -0.55239672971E+03  0.55239672971E+03  0.00000000000E+00 0.  1.
         -6    2    1    2    0  503  0.10972301763E+03  0.14249056934E+03 -0.28625898999E+03  0.37930587566E+03  0.17200591562E+03 0.  0.
        -24    2    3    3    0    0  0.13097892372E+02  0.15590868209E+02 -0.56988156430E+02  0.99972465372E+02  0.79575209099E+02 0.  0.
          6    2    1    2  501    0 -0.10972301763E+03 -0.14249056934E+03 -0.14931853907E+03  0.28991005470E+03  0.17149084743E+03 0.  0.
         24    2    5    5    0    0 -0.12620610562E+03 -0.12696754379E+03 -0.78232268578E+02  0.21515709914E+03  0.90130744971E+02 0.  0.
          5    1    5    5  501    0  0.16483087991E+02 -0.15523025552E+02 -0.71086270497E+02  0.74752955561E+02  0.47000000000E+01 0. -1.
        -11    1    6    6    0    0 -0.23700817265E+01  0.30276564937E+01  0.13149803988E+02  0.13700413722E+02  0.00000000000E+00 0.  1.
         12    1    6    6    0    0 -0.12383602390E+03 -0.12999520028E+03 -0.91382072566E+02  0.20145668541E+03  0.00000000000E+00 0. -1.
         -5    1    3    3    0  503  0.96625125259E+02  0.12689970113E+03 -0.22927083356E+03  0.27933341029E+03  0.47000000000E+01 0.  1.
         11    1    4    4    0    0  0.34302318242E+02 -0.16113965640E+01  0.25877203600E+01  0.34437507638E+02  0.00000000000E+00 0. -1.
        -12    1    4    4    0    0 -0.21204425870E+02  0.17202264773E+02 -0.59575876790E+02  0.65534957734E+02  0.00000000000E+00 0.  1.
</event>
<event>
12    1  0.1046899E+000  0.1775149E+03  0.7818608E-02  0.1170370E+00
         21   -1    0    0  503  502  0.00000000000E+00  0.00000000000E+00  0.36343642064E+03  0.36343642064E+03  0.00000000000E+00 0.  1.
         21   -1    0    0  501  503 -0.00000000000E+00 -0.00000000000E+00 -0.22770995826E+03  0.22770995826E+03  0.00000000000E+00 0.  1.
          6    2    1    2  501    0 -0.36837516763E+02 -0.26817197169E+02  0.30072354164E+03  0.34920792659E+03  0.17156737100E+03 0.  0.
         24    2    3    3    0    0 -0.85359401994E+02  0.17369043844E+01  0.24066603099E+03  0.26675366868E+03  0.77124165708E+02 0.  0.
         -6    2    1    2    0  502  0.36837516763E+02  0.26817197169E+02 -0.16499707926E+03  0.24193845230E+03  0.17097957139E+03 0.  0.
        -24    2    5    5    0    0 -0.13497178692E+02 -0.43410411067E+02 -0.90815288529E+02  0.12796246096E+03  0.77848167375E+02 0.  0.
          5    1    3    3  501    0  0.48521885231E+02 -0.28554101553E+02  0.60057510653E+02  0.82454257911E+02  0.47000000000E+01 0. -1.
        -11    1    4    4    0    0 -0.91753656577E+02 -0.17769948706E+02  0.18188507559E+03  0.20449128415E+03  0.00000000000E+00 0.  1.
         12    1    4    4    0    0  0.63942545832E+01  0.19506853091E+02  0.58780955402E+02  0.62262384529E+02  0.00000000000E+00 0. -1.
         -5    1    5    5    0  502  0.50334695455E+02  0.70227608236E+02 -0.74181790733E+02  0.11397599134E+03  0.47000000000E+01 0.  1.
         11    1    6    6    0    0 -0.11791411479E+01  0.22113896087E+02 -0.13782218865E+02  0.26083794410E+02  0.00000000000E+00 0. -1.
        -12    1    6    6    0    0 -0.12318037544E+02 -0.65524307153E+02 -0.77033069664E+02  0.10187866655E+03  0.00000000000E+00 0.  1.
</event>
<event>
12    1  0.1046899E+000  0.1922425E+03  0.7818608E-02  0.1158205E+00
         21   -1    0    0  501  502  0.00000000000E+00  0.00000000000E+00  0.10421612032E+03  0.10421612032E+03  0.00000000000E+00 0.  1.
         21   -1    0    0  502  503 -0.00000000000E+00 -0.00000000000E+00 -0.43773316112E+03  0.43773316112E+03  0.00000000000E+00 0.  1.
         -6    2    1    2    0  503 -0.61753620908E+02 -0.27363696547E+02 -0.29177225101E+03  0.34522657872E+03  0.17172088579E+03 0.  0.
        -24    2    3    3    0    0 -0.10627837021E+02 -0.67685999356E+02 -0.24115894290E+03  0.26262191276E+03  0.78219485367E+02 0.  0.
          6    2    1    2  501    0  0.61753620908E+02  0.27363696547E+02 -0.41744789796E+02  0.19672270271E+03  0.17998586807E+03 0.  0.
         24    2    5    5    0    0 -0.10313437388E+02 -0.35722848210E+01 -0.74090754027E+02  0.11175772618E+03  0.82953127248E+02 0.  0.
          5    1    5    5  501    0  0.72067058296E+02  0.30935981368E+02  0.32345964231E+02  0.84964976530E+02  0.47000000000E+01 0. -1.
        -11    1    6    6    0    0 -0.35136957862E+02  0.22337937254E+02 -0.18429169055E+02  0.45532664325E+02  0.00000000000E+00 0.  1.
         12    1    6    6    0    0  0.24823520474E+02 -0.25910222075E+02 -0.55661584972E+02  0.66225061860E+02  0.00000000000E+00 0. -1.
         -5    1    3    3    0  503 -0.51125783887E+02  0.40322302809E+02 -0.50613308105E+02  0.82604665965E+02  0.47000000000E+01 0.  1.
         13    1    4    4    0    0  0.74517728878E+01 -0.54681783505E+02 -0.65910541390E+02  0.85964096185E+02  0.00000000000E+00 0. -1.
        -14    1    4    4    0    0 -0.18079609909E+02 -0.13004215851E+02 -0.17524840151E+03  0.17665781657E+03  0.00000000000E+00 0.  1.
</event>
<event>
12    1  0.1046899E+000  0.2131876E+03  0.7818608E-02  0.1139117E+00
         21   -1    0    0  501  502  0.00000000000E+00  0.00000000000E+00  0.10644055175E+03  0.10644055175E+03  0.00000000000E+00 0. -1.
         21   -1    0    0  502  503 -0.00000000000E+00 -0.00000000000E+00 -0.57808165747E+03  0.57808165747E+03  0.00000000000E+00 0. -1.
         -6    2    1    2    0  503 -0.20079965793E+02 -0.12468189289E+03 -0.60645618459E+02  0.22164572712E+03  0.17175609995E+03 0.  0.
        -24    2    3    3    0    0  0.48561970198E+02 -0.42322142659E+02 -0.50696885671E+02  0.11386859077E+03  0.79034505370E+02 0.  0.
          6    2    1    2  501    0  0.20079965793E+02  0.12468189289E+03 -0.41099548726E+03  0.46287648209E+03  0.17143094144E+03 0.  0.
         24    2    5    5    0    0  0.70113004343E+02  0.91243659487E+02 -0.21295241701E+03  0.25583888146E+03  0.82846620833E+02 0.  0.
          5    1    5    5  501    0 -0.50033038550E+02  0.33438233407E+02 -0.19804307025E+03  0.20703760063E+03  0.47000000000E+01 0. -1.
        -13    1    6    6    0    0  0.30282282519E+02  0.12993301973E+02 -0.13322066610E+03  0.13723552167E+03  0.00000000000E+00 0.  1.
         14    1    6    6    0    0  0.39830721824E+02  0.78250357514E+02 -0.79731750910E+02  0.11860335980E+03  0.00000000000E+00 0. -1.
         -5    1    3    3    0  503 -0.68641935991E+02 -0.82359750235E+02 -0.99487327883E+01  0.10777713635E+03  0.47000000000E+01 0.  1.
         13    1    4    4    0    0  0.43969072569E+02  0.74427809485E+01 -0.28577291528E+01  0.44686026303E+02  0.00000000000E+00 0. -1.
        -14    1    4    4    0    0  0.45928976287E+01 -0.49764923607E+02 -0.47839156518E+02  0.69182564470E+02  0.00000000000E+00 0.  1.
</event>
<event>
12    1  0.1046899E+000  0.2333533E+03  0.7818608E-02  0.1124370E+00
         21   -1    0    0  501  502  0.00000000000E+00  0.00000000000E+00  0.37938657576E+03  0.37938657576E+03  0.00000000000E+00 0. -1.
         21   -1    0    0  502  503 -0.00000000000E+00 -0.00000000000E+00 -0.21415018628E+03  0.21415018628E+03  0.00000000000E+00 0. -1.
         -6    2    1    2    0  503  0.67080752031E+02 -0.14285782837E+03  0.25337831181E+03  0.34446240960E+03  0.17188832512E+03 0.  0.
        -24    2    3    3    0    0  0.94038209303E+02 -0.10983684908E+03  0.25256578829E+03  0.30156905615E+03  0.79038598074E+02 0.  0.
          6    2    1    2  501    0 -0.67080752031E+02  0.14285782837E+03 -0.88141922326E+02  0.24907435244E+03  0.17135007485E+03 0.  0.
         24    2    5    5    0    0 -0.61415536160E+02  0.12988392981E+03 -0.42296397618E+01  0.16384655251E+03  0.78651761667E+02 0.  0.
          5    1    5    5  501    0 -0.56652158712E+01  0.12973898563E+02 -0.83912282564E+02  0.85227799924E+02  0.47000000000E+01 0. -1.
        -13    1    6    6    0    0 -0.40315229851E+02  0.29046362781E+02  0.26533893453E+02  0.56329889495E+02  0.00000000000E+00 0.  1.
         14    1    6    6    0    0 -0.21100306308E+02  0.10083756703E+03 -0.30763533215E+02  0.10751666302E+03  0.00000000000E+00 0. -1.
         -5    1    3    3    0  503 -0.26957457272E+02 -0.33020979292E+02  0.81252351909E+00  0.42893353453E+02  0.47000000000E+01 0.  1.
         11    1    4    4    0    0  0.59696843061E+02 -0.60465043969E+02  0.72401538011E+02  0.11163206224E+03  0.00000000000E+00 0. -1.
        -12    1    4    4    0    0  0.34341366241E+02 -0.49371805108E+02  0.18016425028E+03  0.18993699390E+03  0.00000000000E+00 0.  1.
</event>
<event>
12    1  0.1046899E+000  0.2123095E+03  0.7818608E-02  0.1140303E+00
         21   -1    0    0  501  502  0.00000000000E+00  0.00000000000E+00  0.34508788324E+03  0.34508788324E+03  0.00000000000E+00 0.  1.
         21   -1    0    0  502  503 -0.00000000000E+00 -0.00000000000E+00 -0.13087782573E+03  0.13087782573E+03  0.00000000000E+00 0.  1.
         -6    2    1    2    0  503  0.10089358789E+03  0.65624601452E+02  0.13710020214E+03  0.25272872775E+03  0.17489779876E+03 0.  0.
        -24    2    3    3    0    0  0.31291775197E+02  0.10073314063E+03  0.74692309492E+02  0.15275944788E+03  0.81425837446E+02 0.  0.
          6    2    1    2  501    0 -0.10089358789E+03 -0.65624601452E+02  0.77109855362E+02  0.22323698122E+03  0.17147220066E+03 0.  0.
         24    2    5    5    0    0  0.15408424389E+02 -0.30172264704E+02  0.44554479770E+02  0.97280763746E+02  0.79565446192E+02 0.  0.
          5    1    5    5  501    0 -0.11630201228E+03 -0.35452336748E+02  0.32555375592E+02  0.12595621747E+03  0.47000000000E+01 0. -1.
        -13    1    6    6    0    0  0.41515959362E+02 -0.10065497252E+02  0.10846174358E+01  0.42732487777E+02  0.00000000000E+00 0.  1.
         14    1    6    6    0    0 -0.26107534972E+02 -0.20106767452E+02  0.43469862334E+02  0.54548275968E+02  0.00000000000E+00 0. -1.
         -5    1    3    3    0  503  0.69601812690E+02 -0.35108539175E+02  0.62407892649E+02  0.99969279869E+02  0.47000000000E+01 0.  1.
         11    1    4    4    0    0  0.64966892900E+01  0.25681397831E+02  0.68537377258E+02  0.73478658450E+02  0.00000000000E+00 0. -1.
        -12    1    4    4    0    0  0.24795085907E+02  0.75051742796E+02  0.61549322348E+01  0.79280789430E+02  0.00000000000E+00 0.  1.
</event>
<event>
12    1  0.1046899E+000  0.3345332E+03  0.7818608E-02  0.1069229E+00
         21   -1    0    0  503  502  0.00000000000E+00  0.00000000000E+00  0.10240556033E+04  0.10240556033E+04  0.00000000000E+00 0.  1.
         21   -1    0    0  501  503 -0.00000000000E+00 -0.00000000000E+00 -0.11618571145E+03  0.11618571145E+03  0.00000000000E+00 0.  1.
          6    2    1    2  501    0  0.27500470821E+03 -0.79756208702E+02  0.59575692853E+03  0.68325603653E+03  0.17298511840E+03 0.  0.
         24    2    3    3    0    0  0.14387909285E+03 -0.82108767507E+01  0.42861332001E+03  0.45904243882E+03  0.79006143349E+02 0.  0.
         -6    2    1    2    0  502 -0.27500470821E+03  0.79756208702E+02  0.31211296334E+03  0.45698527825E+03  0.17155873712E+03 0.  0.
        -24    2    5    5    0    0 -0.17709000776E+03  0.60658683490E+02  0.10953669359E+03  0.23112860002E+03  0.79886142566E+02 0.  0.
          5    1    3    3  501    0  0.13112561536E+03 -0.71545331951E+02  0.16714360852E+03  0.22421359771E+03  0.47000000000E+01 0. -1.
        -11    1    4    4    0    0  0.28596026045E+02 -0.23334228560E+02  0.19068462367E+03  0.19422369740E+03  0.00000000000E+00 0.  1.
         12    1    4    4    0    0  0.11528306681E+03  0.15123351809E+02  0.23792869634E+03  0.26481874142E+03  0.00000000000E+00 0. -1.
         -5    1    5    5    0  502 -0.97914700458E+02  0.19097525212E+02  0.20257626975E+03  0.22585667823E+03  0.47000000000E+01 0.  1.
         11    1    6    6    0    0 -0.86245821849E+02  0.66262002398E+02  0.81442491421E+02  0.13587447942E+03  0.00000000000E+00 0. -1.
        -12    1    6    6    0    0 -0.90844185907E+02 -0.56033189085E+01  0.28094202171E+02  0.95254120602E+02  0.00000000000E+00 0.  1.
</event>
<event>
12    1  0.1046899E+000  0.1953261E+03  0.7818608E-02  0.1155048E+00
         21   -1    0    0  503  502  0.00000000000E+00  0.00000000000E+00  0.61385759663E+03  0.61385759663E+03  0.00000000000E+00 0. -1.
         21   -1    0    0  501  503 -0.00000000000E+00 -0.00000000000E+00 -0.85427227455E+02  0.85427227455E+02  0.00000000000E+00 0. -1.
          6    2    1    2  501    0 -0.65867158538E+02 -0.46393510111E+02  0.71698740050E+02  0.20253934381E+03  0.17143697416E+03 0.  0.
         24    2    3    3    0    0 -0.91275372877E+02  0.20944528717E+02  0.33681035793E+02  0.12100760357E+03  0.68837206309E+02 0.  0.
         -6    2    1    2    0  502  0.65867158538E+02  0.46393510111E+02  0.45673162913E+03  0.49674548028E+03  0.17793664822E+03 0.  0.
        -24    2    5    5    0    0 -0.21556162215E+02 -0.23016724047E+02  0.19421339498E+03  0.21144120257E+03  0.77421583821E+02 0.  0.
          5    1    3    3  501    0  0.25408214339E+02 -0.67338038828E+02  0.38017704257E+02  0.81531740237E+02  0.47000000000E+01 0. -1.
        -11    1    4    4    0    0 -0.87853292539E+02  0.33153000077E+01  0.46007007946E+02  0.99226191121E+02  0.00000000000E+00 0.  1.
         12    1    4    4    0    0 -0.34220803378E+01  0.17629228709E+02 -0.12325972154E+02  0.21781412449E+02  0.00000000000E+00 0. -1.
         -5    1    5    5    0  502  0.87423320754E+02  0.69410234158E+02  0.26251823415E+03  0.28530427771E+03  0.47000000000E+01 0.  1.
         11    1    6    6    0    0  0.23784074642E+00 -0.29967120631E+02  0.20690042790E+02  0.36416517650E+02  0.00000000000E+00 0. -1.
        -12    1    6    6    0    0 -0.21794002962E+02  0.69503965836E+01  0.17352335219E+03  0.17502468492E+03  0.00000000000E+00 0.  1.
</event>
<event>
12    1  0.1046899E+000  0.3112906E+03  0.7818608E-02  0.1079921E+00
         21   -1    0    0  501  502  0.00000000000E+00  0.00000000000E+00  0.14342717219E+04  0.14342717219E+04  0.00000000000E+00 0. -1.
         21   -1    0    0  502  503 -0.00000000000E+00 -0.00000000000E+00 -0.72900586864E+02  0.72900586864E+02  0.00000000000E+00 0. -1.
         -6    2    1    2    0  503  0.25604460777E+03 -0.31881288938E+02  0.88954220299E+03  0.94190742347E+03  0.17125713338E+03 0.  0.
        -24    2    3    3    0    0  0.92266106445E+02  0.11389707430E+02  0.53724969254E+03  0.55097535835E+03  0.79333810797E+02 0.  0.
          6    2    1    2  501    0 -0.25604460777E+03  0.31881288938E+02  0.47182893205E+03  0.56526488529E+03  0.17414531770E+03 0.  0.
         24    2    5    5    0    0 -0.13541203948E+03  0.61159808395E+02  0.17194451116E+03  0.24066943843E+03  0.79245953066E+02 0.  0.
          5    1    5    5  501    0 -0.12063256829E+03 -0.29278519457E+02  0.29988442089E+03  0.32459544686E+03  0.47000000000E+01 0. -1.
        -13    1    6    6    0    0 -0.69880105597E+02 -0.10633628333E+02  0.63269557504E+02  0.94864851850E+02  0.00000000000E+00 0.  1.
         14    1    6    6    0    0 -0.65531933883E+02  0.71793436729E+02  0.10867495366E+03  0.14580458658E+03  0.00000000000E+00 0. -1.
         -5    1    3    3    0  503  0.16377850133E+03 -0.43270996368E+02  0.35229251045E+03  0.39093206512E+03  0.47000000000E+01 0.  1.
         13    1    4    4    0    0  0.71479836351E+01  0.18760597629E+02  0.27129389480E+02  0.33749925437E+02  0.00000000000E+00 0. -1.
        -14    1    4    4    0    0  0.85118122810E+02 -0.73708901994E+01  0.51012030306E+03  0.51722543291E+03  0.00000000000E+00 0.  1.
</event>
<event>
12    1  0.1046899E+000  0.2673222E+03  0.7818608E-02  0.1102841E+00
         21   -1    0    0  501  502  0.00000000000E+00  0.00000000000E+00  0.15277306398E+03  0.15277306398E+03  0.00000000000E+00 0.  1.
         21   -1    0    0  502  503 -0.00000000000E+00 -0.00000000000E+00 -0.51486754411E+03  0.51486754411E+03  0.00000000000E+00 0.  1.
         -6    2    1    2    0  503 -0.19817711536E+02 -0.20368843615E+03 -0.28230070977E+03  0.38878640396E+03  0.17198679153E+03 0.  0.
        -24    2    3    3    0    0 -0.58005907306E+02 -0.20477512941E+03 -0.22369763736E+03  0.31867271561E+03  0.78829739363E+02 0.  0.
          6    2    1    2  501    0  0.19817711536E+02  0.20368843615E+03 -0.79793770368E+02  0.27885420413E+03  0.17178737048E+03 0.  0.
         24    2    5    5    0    0  0.41132600624E+02  0.15348815290E+03  0.50405447783E+01  0.17789211242E+03  0.79810354313E+02 0.  0.
          5    1    5    5  501    0 -0.21314889088E+02  0.50200283255E+02 -0.84834315146E+02  0.10096209171E+03  0.47000000000E+01 0. -1.
        -11    1    6    6    0    0  0.32426105508E+02  0.10367382546E+03 -0.34200568290E+02  0.11388324405E+03  0.00000000000E+00 0.  1.
         12    1    6    6    0    0  0.87064951157E+01  0.49814327438E+02  0.39241113068E+02  0.64008868371E+02  0.00000000000E+00 0. -1.
         -5    1    3    3    0  503  0.38188195770E+02  0.10866932602E+01 -0.58603072410E+02  0.70113688352E+02  0.47000000000E+01 0.  1.
         13    1    4    4    0    0 -0.54632115550E+01 -0.17514397807E+02  0.44463563902E+01  0.18877788435E+02  0.00000000000E+00 0. -1.
        -14    1    4    4    0    0 -0.52542695751E+02 -0.18726073160E+03 -0.22814399375E+03  0.29979492718E+03  0.00000000000E+00 0.  1.
</event>
<event>
12    1  0.1046899E+000  0.2073079E+03  0.7818608E-02  0.1144240E+00
         21   -1    0    0  503  502  0.00000000000E+00  0.00000000000E+00  0.12952274053E+03  0.12952274053E+03  0.00000000000E+00 0.  1.
         21   -1    0    0  501  503 -0.00000000000E+00 -0.00000000000E+00 -0.38378525744E+03  0.38378525744E+03  0.00000000000E+00 0.  1.
          6    2    1    2  501    0  0.10093293041E+03 -0.56653196082E+02 -0.22457982544E+03  0.30388584116E+03  0.16885930651E+03 0.  0.
         24    2    3    3    0    0  0.22839167401E+02 -0.38544442713E+02 -0.22609077140E+02  0.86536270332E+02  0.70498610499E+02 0.  0.
         -6    2    1    2    0  502 -0.10093293041E+03  0.56653196082E+02 -0.29682691470E+02  0.20942215681E+03  0.17198702428E+03 0.  0.
        -24    2    5    5    0    0  0.13466270156E+02  0.34283912344E+01 -0.32379332173E+01  0.80420326664E+02  0.79144490843E+02 0.  0.
          5    1    3    3  501    0  0.78093763011E+02 -0.18108753369E+02 -0.20197074830E+03  0.21734957083E+03  0.47000000000E+01 0. -1.
        -11    1    4    4    0    0 -0.22822572887E+02 -0.26498705125E+02 -0.20528148967E+01  0.35032345846E+02  0.00000000000E+00 0.  1.
         12    1    4    4    0    0  0.45661740288E+02 -0.12045737588E+02 -0.20556262243E+02  0.51503924487E+02  0.00000000000E+00 0. -1.
         -5    1    5    5    0  502 -0.11439920057E+03  0.53224804847E+02 -0.26444758252E+02  0.12900183014E+03  0.47000000000E+01 0.  1.
         11    1    6    6    0    0 -0.19539979354E+02  0.93328107079E+01 -0.30361855509E+02  0.37292819936E+02  0.00000000000E+00 0. -1.
        -12    1    6    6    0    0  0.33006249510E+02 -0.59044194735E+01  0.27123922291E+02  0.43127506727E+02  0.00000000000E+00 0.  1.
</event>
<event>
12    1  0.1046899E+000  0.1945888E+03  0.7818608E-02  0.1154710E+00
         21   -1    0    0  501  502  0.00000000000E+00  0.00000000000E+00  0.42705803509E+03  0.42705803509E+03  0.00000000000E+00 0.  1.
         21   -1    0    0  502  503 -0.00000000000E+00 -0.00000000000E+00 -0.18267336382E+03  0.18267336382E+03  0.00000000000E+00 0.  1.
         -6    2    1    2    0  503  0.59021318690E+02  0.69387984111E+02  0.34144969404E+03  0.39227697584E+03  0.17027954609E+03 0.  0.
        -24    2    3    3    0    0 -0.81695274951E+01  0.87929419624E+02  0.17092587772E+03  0.20799768624E+03  0.79050982240E+02 0.  0.
          6    2    1    2  501    0 -0.59021318690E+02 -0.69387984111E+02 -0.97065022768E+02  0.21745442307E+03  0.17194940846E+03 0.  0.
         24    2    5    5    0    0 -0.38376538302E+02  0.29510205793E+02 -0.39593629183E+02  0.10112682530E+03  0.79469292089E+02 0.  0.
          5    1    5    5  501    0 -0.20644780388E+02 -0.98898189905E+02 -0.57471393584E+02  0.11632759778E+03  0.47000000000E+01 0. -1.
        -13    1    6    6    0    0 -0.31222997952E+01  0.28307272512E+02  0.17926891510E+02  0.33651506241E+02  0.00000000000E+00 0.  1.
         14    1    6    6    0    0 -0.35254238507E+02  0.12029332814E+01 -0.57520520693E+02  0.67475319058E+02  0.00000000000E+00 0. -1.
         -5    1    3    3    0  503  0.67190846185E+02 -0.18541435513E+02  0.17052381633E+03  0.18427928960E+03  0.47000000000E+01 0.  1.
         13    1    4    4    0    0  0.34931737428E+02  0.28375451598E+02  0.65587458014E+02  0.79543115239E+02  0.00000000000E+00 0. -1.
        -14    1    4    4    0    0 -0.43101264923E+02  0.59553968026E+02  0.10533841970E+03  0.12845457100E+03  0.00000000000E+00 0.  1.
</event>
<event>
12    1  0.1046899E+000  0.2898436E+03  0.7818608E-02  0.1090861E+00
         21   -1    0    0  503  502  0.00000000000E+00  0.00000000000E+00  0.15819580171E+03  0.15819580171E+03  0.00000000000E+00 0.  1.
         21   -1    0    0  501  503 -0.00000000000E+00 -0.00000000000E+00 -0.65867106228E+03  0.65867106228E+03  0.00000000000E+00 0. -1.
          6    2    1    2  501    0 -0.10916239746E+03 -0.20347234084E+03 -0.43531789684E+03  0.52298279907E+03  0.17519107943E+03 0.  0.
         24    2    3    3    0    0 -0.11246975564E+03 -0.77509928586E+02 -0.29182570490E+03  0.33196037352E+03  0.79863712532E+02 0.  0.
         -6    2    1    2    0  502  0.10916239746E+03  0.20347234084E+03 -0.65157363740E+02  0.29388406492E+03  0.16972017869E+03 0.  0.
        -24    2    5    5    0    0 -0.97584968691E+01  0.98390010500E+02 -0.31031376515E+02  0.13149210618E+03  0.80940751366E+02 0.  0.
          5    1    3    3  501    0  0.33073581786E+01 -0.12596241225E+03 -0.14349219193E+03  0.19102242555E+03  0.47000000000E+01 0. -1.
        -11    1    4    4    0    0  0.97528398090E+01 -0.13257464854E+02 -0.59145947416E+02  0.61393170259E+02  0.00000000000E+00 0.  1.
         12    1    4    4    0    0 -0.12222259545E+03 -0.64252463731E+02 -0.23267975749E+03  0.27056720326E+03  0.00000000000E+00 0. -1.
         -5    1    5    5    0  502  0.11892089433E+03  0.10508233034E+03 -0.34125987226E+02  0.16239195874E+03  0.47000000000E+01 0.  1.
         13    1    6    6    0    0  0.29021678054E+02  0.77896835689E+02 -0.13313849469E+02  0.84186895626E+02  0.00000000000E+00 0. -1.
        -14    1    6    6    0    0 -0.38780174923E+02  0.20493174811E+02 -0.17717527045E+02  0.47305210553E+02  0.00000000000E+00 0.  1.
</event>
<event>
12    1  0.1046899E+000  0.3192264E+03  0.7818608E-02  0.1076117E+00
         21   -1    0    0  503  502  0.00000000000E+00  0.00000000000E+00  0.64169156980E+03  0.64169156980E+03  0.00000000000E+00 0. -1.
         21   -1    0    0  501  503 -0.00000000000E+00 -0.00000000000E+00 -0.15844138894E+03  0.15844138894E+03  0.00000000000E+00 0. -1.
          6    2    1    2  501    0 -0.91850718719E+02 -0.25290125900E+03  0.23136575865E+03  0.39425323582E+03  0.17178445316E+03 0.  0.
         24    2    3    3    0    0  0.89526669412E+01 -0.14756798532E+03  0.92374644460E+02  0.19276616198E+03  0.82275498940E+02 0.  0.
         -6    2    1    2    0  502  0.91850718719E+02  0.25290125900E+03  0.25188442221E+03  0.40587972291E+03  0.16999113502E+03 0.  0.
        -24    2    5    5    0    0  0.74058009773E+01  0.19040170355E+03  0.12253371829E+03  0.23917389467E+03  0.76694101279E+02 0.  0.
          5    1    3    3  501    0 -0.10080338566E+03 -0.10533327368E+03  0.13899111419E+03  0.20148707385E+03  0.47000000000E+01 0. -1.
        -11    1    4    4    0    0 -0.16935259076E+02 -0.43905057961E+01 -0.43782615036E+01  0.18034653169E+02  0.00000000000E+00 0.  1.
         12    1    4    4    0    0  0.25887926018E+02 -0.14317747953E+03  0.96752905963E+02  0.17473150881E+03  0.00000000000E+00 0. -1.
         -5    1    5    5    0  502  0.84444917742E+02  0.62499555450E+02  0.12935070392E+03  0.16670582824E+03  0.47000000000E+01 0.  1.
         13    1    6    6    0    0 -0.15317144226E+02  0.13348715055E+03  0.47996456881E+02  0.14267828897E+03  0.00000000000E+00 0. -1.
        -14    1    6    6    0    0  0.22722945203E+02  0.56914552999E+02  0.74537261406E+02  0.96495605701E+02  0.00000000000E+00 0.  1.
</event>
<event>
12    1  0.1046899E+000  0.2376781E+03  0.7818608E-02  0.1121414E+00
         21   -1    0    0  503  502  0.00000000000E+00  0.00000000000E+00  0.25855327102E+03  0.25855327102E+03  0.00000000000E+00 0.  1.
         21   -1    0    0  501  503 -0.00000000000E+00 -0.00000000000E+00 -0.33851631890E+03  0.33851631890E+03  0.00000000000E+00 0.  1.
          6    2    1    2  501    0  0.56397768839E+02 -0.15400727317E+03  0.13806671351E+03  0.27453606616E+03  0.17148960821E+03 0.  0.
         24    2    3    3    0    0 -0.36496748551E+02 -0.71977548017E+02  0.71621874246E+02  0.13384038806E+03  0.79188234817E+02 0.  0.
         -6    2    1    2    0  502 -0.56397768839E+02  0.15400727317E+03 -0.21802976138E+03  0.32253352376E+03  0.17202310479E+03 0.  0.
        -24    2    5    5    0    0 -0.92905908015E+02  0.14914797628E+03 -0.14509207899E+03  0.24068944941E+03  0.77479501171E+02 0.  0.
          5    1    3    3  501    0  0.92894517390E+02 -0.82029725154E+02  0.66444839262E+02  0.14069567809E+03  0.47000000000E+01 0. -1.
        -13    1    4    4    0    0 -0.47153741342E+02 -0.17290844524E+02  0.10828567034E+02  0.51378074029E+02  0.00000000000E+00 0.  1.
         14    1    4    4    0    0  0.10656992791E+02 -0.54686703493E+02  0.60793307212E+02  0.82462314036E+02  0.00000000000E+00 0. -1.
         -5    1    5    5    0  502  0.36508139176E+02  0.48592968933E+01 -0.72937682395E+02  0.81844074346E+02  0.47000000000E+01 0.  1.
         11    1    6    6    0    0 -0.25277956777E+02  0.95526006858E+02 -0.10904777544E+03  0.14715845342E+03  0.00000000000E+00 0. -1.
        -12    1    6    6    0    0 -0.67627951238E+02  0.53621969420E+02 -0.36044303553E+02  0.93530995994E+02  0.00000000000E+00 0.  1.
</event>
<event>
12    1  0.1046899E+000  0.2210017E+03  0.7818608E-02  0.1134476E+00
         21   -1    0    0  503  502  0.00000000000E+00  0.00000000000E+00  0.64659882736E+02  0.64659882736E+02  0.00000000000E+00 0.  1.
         21   -1    0    0  501  503 -0.00000000000E+00 -0.00000000000E+00 -0.15840576005E+04  0.15840576005E+04  0.00000000000E+00 0. -1.
          6    2    1    2  501    0  0.21055801871E+02  0.13633423846E+03 -0.16061612171E+03  0.27320192196E+03  0.17265972385E+03 0.  0.
         24    2    3    3    0    0 -0.88604649975E+01  0.14442340475E+03 -0.17060565457E+03  0.24030361803E+03  0.87766233734E+02 0.  0.
         -6    2    1    2    0  502 -0.21055801871E+02 -0.13633423846E+03 -0.13587815961E+04  0.13755155613E+04  0.16347862909E+03 0.  0.
        -24    2    5    5    0    0 -0.20661541315E+02 -0.15214277877E+03 -0.13385762078E+04  0.13494308320E+04  0.74853067976E+02 0.  0.
          5    1    3    3  501    0  0.29916266869E+02 -0.80891662909E+01  0.99895328638E+01  0.32898303930E+02  0.47000000000E+01 0. -1.
        -11    1    4    4    0    0 -0.20716857386E+02  0.33661731994E+02 -0.37807776041E+01  0.39706355412E+02  0.00000000000E+00 0.  1.
         12    1    4    4    0    0  0.11856392388E+02  0.11076167276E+03 -0.16682487697E+03  0.20059726261E+03  0.00000000000E+00 0. -1.
         -5    1    5    5    0  502 -0.39426055636E+00  0.15808540302E+02 -0.20205388235E+02  0.26084729279E+02  0.47000000000E+01 0.  1.
         13    1    6    6    0    0 -0.48908016075E+02 -0.87614209601E+02 -0.79947602784E+03  0.80574820065E+03  0.00000000000E+00 0. -1.
        -14    1    6    6    0    0  0.28246474760E+02 -0.64528569165E+02 -0.53910018000E+03  0.54368263136E+03  0.00000000000E+00 0.  1.
</event>
<event>
12    1  0.1046899E+000  0.3762712E+03  0.7818608E-02  0.1052450E+00
         21   -1    0    0  503  502  0.00000000000E+00  0.00000000000E+00  0.69391692057E+03  0.69391692057E+03  0.00000000000E+00 0. -1.
         21   -1    0    0  501  503 -0.00000000000E+00 -0.00000000000E+00 -0.23057676602E+03  0.23057676602E+03  0.00000000000E+00 0. -1.
          6    2    1    2  501    0 -0.90413336011E+01  0.33424001938E+03  0.39108657885E+03  0.54270502885E+03  0.17257433157E+03 0.  0.
         24    2    3    3    0    0 -0.21076555598E+02  0.31690741407E+03  0.40207723481E+03  0.51845321874E+03  0.79076589302E+02 0.  0.
         -6    2    1    2    0  502  0.90413336011E+01 -0.33424001938E+03  0.72253575703E+02  0.38178865773E+03  0.16954015365E+03 0.  0.
        -24    2    5    5    0    0  0.55305461900E+02 -0.10573481302E+03  0.42500197969E+02  0.14670919800E+03  0.74018762144E+02 0.  0.
          5    1    3    3  501    0  0.12035221997E+02  0.17332605311E+02 -0.10990655964E+02  0.24251810116E+02  0.47000000000E+01 0. -1.
        -13    1    4    4    0    0  0.28162032153E+02  0.71422854651E+02  0.87694091104E+02  0.11655289716E+03  0.00000000000E+00 0.  1.
         14    1    4    4    0    0 -0.49238587751E+02  0.24548455942E+03  0.31438314371E+03  0.40190032158E+03  0.00000000000E+00 0. -1.
         -5    1    5    5    0  502 -0.46264128299E+02 -0.22850520636E+03  0.29753377734E+02  0.23507945973E+03  0.47000000000E+01 0.  1.
         13    1    6    6    0    0  0.13921287023E+02 -0.32463295919E+02 -0.21174404511E+02  0.41182802487E+02  0.00000000000E+00 0. -1.
        -14    1    6    6    0    0  0.41384174878E+02 -0.73271517102E+02  0.63674602480E+02  0.10552639551E+03  0.00000000000E+00 0.  1.
</event>
<event>
12    1  0.1046899E+000  0.1881916E+03  0.7818608E-02  0.1162523E+00
         21   -1    0    0  501  502  0.00000000000E+00  0.00000000000E+00  0.44822751074E+03  0.44822751074E+03  0.00000000000E+00 0.  1.
         21   -1    0    0  502  503 -0.00000000000E+00 -0.00000000000E+00 -0.74870759254E+02  0.74870759254E+02  0.00000000000E+00 0.  1.
         -6    2    1    2    0  503 -0.62973304604E+02 -0.43539283857E+02  0.18158665048E+03  0.26151439919E+03  0.17191498777E+03 0.  0.
        -24    2    3    3    0    0  0.19430636794E+02 -0.52498031036E+02  0.58513027970E+02  0.11305607080E+03  0.78894282395E+02 0.  0.
          6    2    1    2  501    0  0.62973304604E+02  0.43539283857E+02  0.19177010100E+03  0.26158387080E+03  0.16058967431E+03 0.  0.
         24    2    5    5    0    0  0.65193330884E+02 -0.10919618365E+02  0.17652285893E+03  0.20479241952E+03  0.80063767778E+02 0.  0.
          5    1    5    5  501    0 -0.22200262805E+01  0.54458902222E+02  0.15247242073E+02  0.56791451283E+02  0.47000000000E+01 0. -1.
        -13    1    6    6    0    0 -0.75338265923E+01 -0.20357080827E+02  0.12325471152E+02  0.24961701105E+02  0.00000000000E+00 0.  1.
         14    1    6    6    0    0  0.72727157476E+02  0.94374624621E+01  0.16419738778E+03  0.17983071841E+03  0.00000000000E+00 0. -1.
         -5    1    3    3    0  503 -0.82403941397E+02  0.89587471785E+01  0.12307362251E+03  0.14845832839E+03  0.47000000000E+01 0.  1.
         13    1    4    4    0    0 -0.52265411919E+00 -0.53024494472E+02  0.19371999298E+01  0.53062443639E+02  0.00000000000E+00 0. -1.
        -14    1    4    4    0    0  0.19953290913E+02  0.52646343637E+00  0.56575828040E+02  0.59993627165E+02  0.00000000000E+00 0.  1.
</event>
<event>
12    1  0.1046899E+000  0.1770429E+03  0.7818608E-02  0.1170826E+00
         21   -1    0    0  501  502  0.00000000000E+00  0.00000000000E+00  0.58879159303E+02  0.58879159303E+02  0.00000000000E+00 0.  1.
         21   -1    0    0  502  503 -0.00000000000E+00 -0.00000000000E+00 -0.53581264313E+03  0.53581264313E+03  0.00000000000E+00 0.  1.
         -6    2    1    2    0  503  0.44087382979E+02 -0.54283920755E+01 -0.26765795006E+03  0.32091272272E+03  0.17137979051E+03 0.  0.
        -24    2    3    3    0    0  0.19579038417E+02  0.27111437294E+02 -0.50833599054E+02  0.10024467194E+03  0.79665366886E+02 0.  0.
          6    2    1    2  501    0 -0.44087382979E+02  0.54283920755E+01 -0.20927553377E+03  0.27377907971E+03  0.17083784908E+03 0.  0.
         24    2    5    5    0    0 -0.77754216018E+02  0.33059806583E+02 -0.19591231751E+03  0.22797933885E+03  0.80338495570E+02 0.  0.
          5    1    5    5  501    0  0.33666833039E+02 -0.27631414508E+02 -0.13363216261E+02  0.45799740866E+02  0.47000000000E+01 0. -1.
        -13    1    6    6    0    0  0.15928674388E+01  0.29235745785E+02 -0.21491056964E+02  0.36319851152E+02  0.00000000000E+00 0.  1.
         14    1    6    6    0    0 -0.79347083456E+02  0.38240607978E+01 -0.17442126054E+03  0.19165948770E+03  0.00000000000E+00 0. -1.
         -5    1    3    3    0  503  0.24508344562E+02 -0.32539829369E+02 -0.21682435100E+03  0.22066805078E+03  0.47000000000E+01 0.  1.
         11    1    4    4    0    0  0.24276229743E+02  0.31767737670E+02 -0.69644483404E+02  0.80304909911E+02  0.00000000000E+00 0. -1.
        -12    1    4    4    0    0 -0.46971913264E+01 -0.46563003768E+01  0.18810884350E+02  0.19939762024E+02  0.00000000000E+00 0.  1.
</event>
<event>
12    1  0.1046899E+000  0.2022308E+03  0.7818608E-02  0.1148785E+00
         21   -1    0    0  503  502  0.00000000000E+00  0.00000000000E+00  0.31212712470E+02  0.31212712470E+02  0.00000000000E+00 0.  1.
         21   -1    0    0  501  503 -0.00000000000E+00 -0.00000000000E+00 -0.16732937686E+04  0.16732937686E+04  0.00000000000E+00 0.  1.
          6    2    1    2  501    0 -0.37626861656E+02  0.98438102761E+02 -0.40223026940E+03  0.44827112487E+03  0.16748722630E+03 0.  0.
         24    2    3    3    0    0  0.30260242069E+02  0.58010021234E+02 -0.31276333406E+03  0.32881606575E+03  0.77577426829E+02 0.  0.
         -6    2    1    2    0  502  0.37626861656E+02 -0.98438102761E+02 -0.12398507867E+04  0.12562353562E+04  0.17260201628E+03 0.  0.
        -24    2    5    5    0    0 -0.43220773411E+02 -0.69529034611E+02 -0.62098912793E+03  0.63142825233E+03  0.79823673962E+02 0.  0.
          5    1    3    3  501    0 -0.67887103726E+02  0.40428081526E+02 -0.89466935343E+02  0.11945505911E+03  0.47000000000E+01 0. -1.
        -11    1    4    4    0    0 -0.20323691165E+02  0.10944986917E+02 -0.30679458215E+02  0.38393675489E+02  0.00000000000E+00 0.  1.
         12    1    4    4    0    0  0.50583933234E+02  0.47065034317E+02 -0.28208387584E+03  0.29042239026E+03  0.00000000000E+00 0. -1.
         -5    1    5    5    0  502  0.80847635068E+02 -0.28909068150E+02 -0.61886165877E+03  0.62480710384E+03  0.47000000000E+01 0.  1.
         13    1    6    6    0    0 -0.34355547775E+02 -0.50006907284E+02 -0.18062248424E+03  0.19053995972E+03  0.00000000000E+00 0. -1.
        -14    1    6    6    0    0 -0.88652256367E+01 -0.19522127327E+02 -0.44036664369E+03  0.44088829261E+03  0.00000000000E+00 0.  1.
</event>
<event>
12    1  0.1046899E+000  0.2451942E+03  0.7818608E-02  0.1116556E+00
         21   -1    0    0  501  502  0.00000000000E+00  0.00000000000E+00  0.13126752720E+03  0.13126752720E+03  0.00000000000E+00 0.  1.
         21   -1    0    0  502  503 -0.00000000000E+00 -0.00000000000E+00 -0.47189966802E+03  0.47189966802E+03  0.00000000000E+00 0.  1.
         -6    2    1    2    0  503  0.10155910841E+03 -0.14116449719E+03 -0.11528741475E+03  0.27094534430E+03  0.17285405356E+03 0.  0.
        -24    2    3    3    0    0  0.13352281983E+03 -0.12890187943E+03 -0.74273969858E+02  0.21731472521E+03  0.85235140989E+02 0.  0.
          6    2    1    2  501    0 -0.10155910841E+03  0.14116449719E+03 -0.22534472606E+03  0.33222185091E+03  0.17131679689E+03 0.  0.
         24    2    5    5    0    0  0.10011893491E+01  0.96252154579E+02 -0.15793285503E+03  0.20144653386E+03  0.79827562060E+02 0.  0.
          5    1    5    5  501    0 -0.10256029776E+03  0.44912342608E+02 -0.67411871026E+02  0.13077531705E+03  0.47000000000E+01 0. -1.
        -13    1    6    6    0    0  0.13003930202E+02 -0.65983451000E+01 -0.49117647002E+02  0.51236545608E+02  0.00000000000E+00 0.  1.
         14    1    6    6    0    0 -0.12002740853E+02  0.10285049968E+03 -0.10881520803E+03  0.15020998825E+03  0.00000000000E+00 0. -1.
         -5    1    3    3    0  503 -0.31963711420E+02 -0.12262617762E+02 -0.41013444895E+02  0.53630619093E+02  0.47000000000E+01 0.  1.
         11    1    4    4    0    0  0.45245601948E+02 -0.87553648805E+02 -0.67792133093E+02  0.11961847359E+03  0.00000000000E+00 0. -1.
        -12    1    4    4    0    0  0.88277217885E+02 -0.41348230621E+02 -0.64818367655E+01  0.97696251621E+02  0.00000000000E+00 0.  1.
</event>
<event>
12    1  0.1046899E+000  0.3534169E+03  0.7818608E-02  0.1061301E+00
         21   -1    0    0  503  502  0.00000000000E+00  0.00000000000E+00  0.21132937251E+03  0.21132937251E+03  0.00000000000E+00 0. -1.
         21   -1    0    0  501  503 -0.00000000000E+00 -0.00000000000E+00 -0.61170818008E+03  0.61170818008E+03  0.00000000000E+00 0.  1.
          6    2    1    2  501    0 -0.20747442418E+03  0.22776033410E+03 -0.27840991675E+03  0.44990623701E+03  0.17315638560E+03 0.  0.
         24    2    3    3    0    0 -0.11664159325E+03  0.90066448618E+02 -0.19362408533E+03  0.26437743470E+03  0.10338237335E+03 0.  0.
         -6    2    1    2    0  502  0.20747442418E+03 -0.22776033410E+03 -0.12196889081E+03  0.37313131558E+03  0.17155221322E+03 0.  0.
        -24    2    5    5    0    0  0.36372998638E+02 -0.29324830999E+02 -0.31790421816E+02  0.95991291430E+02  0.77593533031E+02 0.  0.
          5    1    3    3  501    0 -0.90832830936E+02  0.13769388548E+03 -0.84785831423E+02  0.18552880230E+03  0.47000000000E+01 0. -1.
        -11    1    4    4    0    0 -0.82946278805E+02  0.10571681977E+03 -0.18039253883E+03  0.22493910113E+03  0.00000000000E+00 0.  1.
         12    1    4    4    0    0 -0.33695314440E+02 -0.15650371156E+02 -0.13231546504E+02  0.39438333578E+02  0.00000000000E+00 0. -1.
         -5    1    5    5    0  502  0.17110142554E+03 -0.19843550310E+03 -0.90178468996E+02  0.27714002415E+03  0.47000000000E+01 0.  1.
         11    1    6    6    0    0  0.58695799202E+02 -0.33587096776E+02 -0.26672783082E+02  0.72696129685E+02  0.00000000000E+00 0. -1.
        -12    1    6    6    0    0 -0.22322800564E+02  0.42622657765E+01 -0.51176387336E+01  0.23295161746E+02  0.00000000000E+00 0.  1.
</event>
<event>
12    1  0.1180590E+000  0.2245906E+03  0.7818608E-02  0.1132677E+00
         21   -1    0    0  501  502  0.00000000000E+00  0.00000000000E+00  0.23250696280E+03  0.23250696280E+03  0.00000000000E+00 0.  1.
         21   -1    0    0  502  503 -0.00000000000E+00 -0.00000000000E+00 -0.52368649102E+03  0.52368649102E+03  0.00000000000E+00 0.  1.
         -6    2    1    2    0  503 -0.85504886892E+02 -0.92179770976E+02  0.14740167780E+03  0.26864135520E+03  0.18609870297E+03 0.  0.
        -24    2    3    3    0    0 -0.18412379893E+01 -0.37267937311E+02  0.14281455046E+03  0.16835153836E+03  0.80956502746E+02 0.  0.
          6    2    1    2  501    0  0.85504886892E+02  0.92179770976E+02 -0.43858120602E+03  0.48755209862E+03  0.17188769221E+03 0.  0.
         24    2    5    5    0    0 -0.18213890491E+02  0.42108452504E+02 -0.13730202440E+03  0.16497504272E+03  0.79120485570E+02 0.  0.
          5    1    5    5  501    0  0.10371877738E+03  0.50071318472E+02 -0.30127918162E+03  0.32257705590E+03  0.47000000000E+01 0. -1.
        -13    1    6    6    0    0 -0.59260929989E+01 -0.15767283018E+02 -0.15808248687E+01  0.16918179550E+02  0.00000000000E+00 0.  1.
         14    1    6    6    0    0 -0.12287797492E+02  0.57875735522E+02 -0.13572119953E+03  0.14805686317E+03  0.00000000000E+00 0. -1.
         -5    1    3    3    0  503 -0.83663648902E+02 -0.54911833664E+02  0.45871273319E+01  0.10028981684E+03  0.47000000000E+01 0.  1.
         11    1    4    4    0    0  0.16204404799E+01 -0.58420355404E+02  0.63977028509E+02  0.86652316355E+02  0.00000000000E+00 0. -1.
        -12    1    4    4    0    0 -0.34616784691E+01  0.21152418093E+02  0.78837521955E+02  0.81699222009E+02  0.00000000000E+00 0.  1.
</event>
<event>
12    1  0.1046899E+000  0.2106457E+03  0.7818608E-02  0.1141165E+00
         21   -1    0    0  503  502  0.00000000000E+00  0.00000000000E+00  0.75988003161E+03  0.75988003161E+03  0.00000000000E+00 0.  1.
         21   -1    0    0  501  503 -0.00000000000E+00 -0.00000000000E+00 -0.75950827456E+02  0.75950827456E+02  0.00000000000E+00 0.  1.
          6    2    1    2  501    0 -0.11820213745E+03  0.28004753610E+02  0.54342935151E+03  0.58262771933E+03  0.17141641613E+03 0.  0.
         24    2    3    3    0    0 -0.10265049440E+03 -0.42468279595E+02  0.32471506684E+03  0.35226641543E+03  0.79442268590E+02 0.  0.
         -6    2    1    2    0  502  0.11820213745E+03 -0.28004753610E+02  0.14049985264E+03  0.25320313974E+03  0.17209186459E+03 0.  0.
        -24    2    5    5    0    0  0.64585824679E+02  0.46895433798E+02  0.44877185462E+02  0.12034783669E+03  0.78096924147E+02 0.  0.
          5    1    3    3  501    0 -0.15551643054E+02  0.70473033205E+02  0.21871428468E+03  0.23036130390E+03  0.47000000000E+01 0. -1.
        -11    1    4    4    0    0  0.39280838878E+01  0.14590780062E+02  0.26962875755E+02  0.30908208858E+02  0.00000000000E+00 0.  1.
         12    1    4    4    0    0 -0.10657857828E+03 -0.57059059658E+02  0.29775219108E+03  0.32135820657E+03  0.00000000000E+00 0. -1.
         -5    1    5    5    0  502  0.53616312770E+02 -0.74900187408E+02  0.95622667176E+02  0.13285530304E+03  0.47000000000E+01 0.  1.
         13    1    6    6    0    0  0.76260800661E+02  0.18936326585E+02  0.19839477681E+02  0.81042575580E+02  0.00000000000E+00 0. -1.
        -14    1    6    6    0    0 -0.11674975981E+02  0.27959107213E+02  0.25037707781E+02  0.39305261114E+02  0.00000000000E+00 0.  1.
</event>
<event>
12    1  0.1046899E+000  0.1834060E+03  0.7818608E-02  0.1165012E+00
         21   -1    0    0  501  502  0.00000000000E+00  0.00000000000E+00  0.54558204035E+02  0.54558204035E+02  0.00000000000E+00 0. -1.
         21   -1    0    0  502  503 -0.00000000000E+00 -0.00000000000E+00 -0.62097660588E+03  0.62097660588E+03  0.00000000000E+00 0. -1.
         -6    2    1    2    0  503  0.21460083661E+02 -0.59269022639E+02 -0.32966273980E+03  0.37724697199E+03  0.17223357289E+03 0.  0.
        -24    2    3    3    0    0  0.38738308206E+02 -0.60528825527E+02 -0.98786462898E+02  0.14567393949E+03  0.79358277149E+02 0.  0.
          6    2    1    2  501    0 -0.21460083661E+02  0.59269022639E+02 -0.23675566205E+03  0.29828783793E+03  0.17014416977E+03 0.  0.
         24    2    5    5    0    0  0.33451861704E+02 -0.16525216866E+02 -0.10688102507E+03  0.13813291351E+03  0.79151995739E+02 0.  0.
          5    1    5    5  501    0 -0.54911945365E+02  0.75794239504E+02 -0.12987463697E+03  0.16015492442E+03  0.47000000000E+01 0. -1.
        -11    1    6    6    0    0  0.66772385272E+01  0.18225423062E+02  0.31638023671E+01  0.19666245334E+02  0.00000000000E+00 0.  1.
         12    1    6    6    0    0  0.26774623177E+02 -0.34750639928E+02 -0.11004482744E+03  0.11846666817E+03  0.00000000000E+00 0. -1.
         -5    1    3    3    0  503 -0.17278224546E+02  0.12598028882E+01 -0.23087627690E+03  0.23157303250E+03  0.47000000000E+01 0.  1.
         13    1    4    4    0    0  0.43137532033E+02 -0.13246384466E+02 -0.84984751024E+02  0.96222249391E+02  0.00000000000E+00 0. -1.
        -14    1    4    4    0    0 -0.43992238264E+01 -0.47282441061E+02 -0.13801711875E+02  0.49451690098E+02  0.00000000000E+00 0.  1.
</event>
<event>
12    1  0.1046899E+000  0.1927295E+03  0.7818608E-02  0.1156954E+00
         21   -1    0    0  503  502  0.00000000000E+00  0.00000000000E+00  0.56531086376E+02  0.56531086376E+02  0.00000000000E+00 0.  1.
         21   -1    0    0  501  503 -0.00000000000E+00 -0.00000000000E+00 -0.14652295280E+04  0.14652295280E+04  0.00000000000E+00 0.  1.
          6    2    1    2  501    0 -0.81300214529E+02  0.28800435708E+02 -0.13099743594E+03  0.22960561907E+03  0.16768787107E+03 0.  0.
         24    2    3    3    0    0 -0.10227565717E+03  0.52620795618E+02 -0.61470115982E+02  0.15303201421E+03  0.80068495877E+02 0.  0.
         -6    2    1    2    0  502  0.81300214529E+02 -0.28800435708E+02 -0.12777010056E+04  0.12921549953E+04  0.17235278356E+03 0.  0.
        -24    2    5    5    0    0 -0.23289397018E+01 -0.59609019151E+02 -0.79710116598E+03  0.80333877199E+03  0.80151448292E+02 0.  0.
          5    1    3    3  501    0  0.20975442644E+02 -0.23820359910E+02 -0.69527319958E+02  0.76573604858E+02  0.47000000000E+01 0. -1.
        -11    1    4    4    0    0 -0.76371226750E+02  0.73436417582E+02 -0.38923671792E+02  0.11287392936E+03  0.00000000000E+00 0.  1.
         12    1    4    4    0    0 -0.25904430422E+02 -0.20815621964E+02 -0.22546444190E+02  0.40158084851E+02  0.00000000000E+00 0. -1.
         -5    1    5    5    0  502  0.83629154231E+02  0.30808583443E+02 -0.48059983966E+03  0.48881622327E+03  0.47000000000E+01 0.  1.
         13    1    6    6    0    0  0.21101210666E+02 -0.70114606822E+02 -0.63651937863E+03  0.64071697227E+03  0.00000000000E+00 0. -1.
        -14    1    6    6    0    0 -0.23430150367E+02  0.10505587671E+02 -0.16058178735E+03  0.16262179973E+03  0.00000000000E+00 0.  1.
</event>
<event>
12    1  0.1046899E+000  0.2124283E+03  0.7818608E-02  0.1139675E+00
         21   -1    0    0  503  502  0.00000000000E+00  0.00000000000E+00  0.18958362452E+03  0.18958362452E+03  0.00000000000E+00 0. -1.
         21   -1    0    0  501  503 -0.00000000000E+00 -0.00000000000E+00 -0.28586830698E+03  0.28586830698E+03  0.00000000000E+00 0. -1.
          6    2    1    2  501    0  0.12254308791E+03 -0.12043335336E+02 -0.14550468215E+03  0.25748280821E+03  0.17310093494E+03 0.  0.
         24    2    3    3    0    0  0.13696386488E+03  0.35518299636E+02 -0.11560096536E+03  0.19929010929E+03  0.79575841661E+02 0.  0.
         -6    2    1    2    0  502 -0.12254308791E+03  0.12043335336E+02  0.49219999694E+02  0.21796912329E+03  0.17299156054E+03 0.  0.
        -24    2    5    5    0    0 -0.12626873300E+03 -0.70593119944E+01  0.88850293518E+02  0.17356820263E+03  0.78980500684E+02 0.  0.
          5    1    3    3  501    0 -0.14420776975E+02 -0.47561634971E+02 -0.29903716787E+02  0.58192698918E+02  0.47000000000E+01 0. -1.
        -11    1    4    4    0    0  0.13010995410E+02 -0.19020793737E+02 -0.31343875428E+01  0.23257278027E+02  0.00000000000E+00 0.  1.
         12    1    4    4    0    0  0.12395286947E+03  0.54539093373E+02 -0.11246657782E+03  0.17603283126E+03  0.00000000000E+00 0. -1.
         -5    1    5    5    0  502  0.37256450924E+01  0.19102647330E+02 -0.39630293824E+02  0.44400920654E+02  0.47000000000E+01 0.  1.
         13    1    6    6    0    0 -0.90492702120E+02 -0.11267705032E+02  0.10050238934E+03  0.13570785009E+03  0.00000000000E+00 0. -1.
        -14    1    6    6    0    0 -0.35776030881E+02  0.42083930380E+01 -0.11652095823E+02  0.37860352542E+02  0.00000000000E+00 0.  1.
</event>
<event>
12    1  0.1046899E+000  0.1871235E+03  0.7818608E-02  0.1161101E+00
         21   -1    0    0  503  502  0.00000000000E+00  0.00000000000E+00  0.17452139673E+02  0.17452139673E+02  0.00000000000E+00 0.  1.
         21   -1    0    0  501  503 -0.00000000000E+00 -0.00000000000E+00 -0.31296701742E+04  0.31296701742E+04  0.00000000000E+00 0.  1.
          6    2    1    2  501    0  0.61630767134E+02 -0.38430850671E+02 -0.61323179890E+03  0.64114618656E+03  0.17245263586E+03 0.  0.
         24    2    3    3    0    0  0.33070078628E+02  0.79200661850E+01 -0.55388964973E+03  0.56047586308E+03  0.78632636176E+02 0.  0.
         -6    2    1    2    0  502 -0.61630767134E+02  0.38430850671E+02 -0.24989862357E+04  0.25059761273E+04  0.17236259190E+03 0.  0.
        -24    2    5    5    0    0 -0.28773551054E+02  0.39454830789E+02 -0.23954730989E+04  0.23972668606E+04  0.78818987038E+02 0.  0.
          5    1    3    3  501    0  0.28560688506E+02 -0.46350916856E+02 -0.59342149170E+02  0.80670323474E+02  0.47000000000E+01 0. -1.
        -11    1    4    4    0    0  0.10202485607E+02 -0.13751113477E+01 -0.51013186478E+03  0.51023573092E+03  0.00000000000E+00 0.  1.
         12    1    4    4    0    0  0.22867593022E+02  0.92951775326E+01 -0.43757784946E+02  0.50240132159E+02  0.00000000000E+00 0. -1.
         -5    1    5    5    0  502 -0.32857216080E+02 -0.10239801182E+01 -0.10351313676E+03  0.10870926670E+03  0.47000000000E+01 0.  1.
         13    1    6    6    0    0 -0.52731024123E+02  0.83355763167E+01 -0.14230267971E+04  0.14240278466E+04  0.00000000000E+00 0. -1.
        -14    1    6    6    0    0  0.23957473069E+02  0.31119254472E+02 -0.97244630182E+03  0.97323901403E+03  0.00000000000E+00 0.  1.
</event>
<event>
12    1  0.1046899E+000  0.1810604E+03  0.7818608E-02  0.1166877E+00
         21   -1    0    0  501  502  0.00000000000E+00  0.00000000000E+00  0.25187703365E+02  0.25187703365E+02  0.00000000000E+00 0. -1.
         21   -1    0    0  502  503 -0.00000000000E+00 -0.00000000000E+00 -0.13960921931E+04  0.13960921931E+04  0.00000000000E+00 0. -1.
         -6    2    1    2    0  503  0.48452436281E+02 -0.24123229828E+02 -0.49843603040E+03  0.53030307268E+03  0.17278108603E+03 0.  0.
        -24    2    3    3    0    0  0.52838993660E+02  0.19962688263E+02 -0.46202711037E+03  0.47276604532E+03  0.82753940788E+02 0.  0.
          6    2    1    2  501    0 -0.48452436281E+02  0.24123229828E+02 -0.87246845933E+03  0.89097682378E+03  0.17236275466E+03 0.  0.
         24    2    5    5    0    0 -0.71422409463E+02  0.47294838809E+02 -0.36725292052E+03  0.38468701173E+03  0.75969908611E+02 0.  0.
          5    1    5    5  501    0  0.22969973181E+02 -0.23171608980E+02 -0.50521553881E+03  0.50628981205E+03  0.47000000000E+01 0. -1.
        -13    1    6    6    0    0 -0.46661446461E+02 -0.52446066787E+01 -0.91065405445E+02  0.10245830642E+03  0.00000000000E+00 0.  1.
         14    1    6    6    0    0 -0.24760963002E+02  0.52539445487E+02 -0.27618751507E+03  0.28222870532E+03  0.00000000000E+00 0. -1.
         -5    1    3    3    0  503 -0.43865573791E+01 -0.44085918091E+02 -0.36408920036E+02  0.57537027364E+02  0.47000000000E+01 0.  1.
         13    1    4    4    0    0  0.68359389568E+02  0.34368813224E+02 -0.31162960323E+03  0.32088507456E+03  0.00000000000E+00 0. -1.
        -14    1    4    4    0    0 -0.15520395908E+02 -0.14406124961E+02 -0.15039750713E+03  0.15188097076E+03  0.00000000000E+00 0.  1.
</event>
<event>
12    1  0.1046899E+000  0.1800356E+03  0.7818608E-02  0.1168175E+00
         21   -1    0    0  503  502  0.00000000000E+00  0.00000000000E+00  0.10357138092E+04  0.10357138092E+04  0.00000000000E+00 0. -1.
         21   -1    0    0  501  503 -0.00000000000E+00 -0.00000000000E+00 -0.34677461111E+02  0.34677461111E+02  0.00000000000E+00 0. -1.
          6    2    1    2  501    0 -0.16548327730E+02 -0.46890280080E+02  0.67259478384E+03  0.69584263137E+03  0.17129121073E+03 0.  0.
         24    2    3    3    0    0  0.80333543168E+01 -0.93136424687E+02  0.38638404419E+03  0.40484152747E+03  0.76583969437E+02 0.  0.
         -6    2    1    2    0  502  0.16548327730E+02  0.46890280080E+02  0.32844156424E+03  0.37454863893E+03  0.17303258735E+03 0.  0.
        -24    2    5    5    0    0 -0.32820938916E+02  0.86496449398E+01  0.83730053982E+02  0.12195116483E+03  0.81910526037E+02 0.  0.
          5    1    3    3  501    0 -0.24581682047E+02  0.46246144607E+02  0.28621073965E+03  0.29100110391E+03  0.47000000000E+01 0. -1.
        -13    1    4    4    0    0  0.18129579609E+02 -0.15564565198E+01  0.19950037251E+02  0.27002003630E+02  0.00000000000E+00 0.  1.
         14    1    4    4    0    0 -0.10096225292E+02 -0.91579968168E+02  0.36643400693E+03  0.37783952384E+03  0.00000000000E+00 0. -1.
         -5    1    5    5    0  502  0.49369266646E+02  0.38240635140E+02  0.24471151026E+03  0.25259747409E+03  0.47000000000E+01 0.  1.
         11    1    6    6    0    0  0.99081014301E+01  0.20697940102E+02 -0.43123858179E+01  0.23348915818E+02  0.00000000000E+00 0. -1.
        -12    1    6    6    0    0 -0.42729040346E+02 -0.12048295162E+02  0.88042439800E+02  0.98602249017E+02  0.00000000000E+00 0.  1.
</event>
<event>
12    1  0.1287487E+000  0.2042684E+03  0.7818608E-02  0.1147081E+00
         21   -1    0    0  501  502  0.00000000000E+00  0.00000000000E+00  0.84414597973E+03  0.84414597973E+03  0.00000000000E+00 0. -1.
         21   -1    0    0  502  503 -0.00000000000E+00 -0.00000000000E+00 -0.14204946993E+03  0.14204946993E+03  0.00000000000E+00 0. -1.
         -6    2    1    2    0  503 -0.10864621665E+03 -0.37942460428E+01  0.75270542920E+03  0.77993014200E+03  0.17293688605E+03 0.  0.
        -24    2    3    3    0    0 -0.14212855516E+03 -0.17497596935E+02  0.57931111003E+03  0.60273948553E+03  0.84775191686E+02 0.  0.
          6    2    1    2  501    0  0.10864621665E+03  0.37942460428E+01 -0.50608919397E+02  0.20626530766E+03  0.16782645121E+03 0.  0.
         24    2    5    5    0    0  0.10444912141E+03  0.55786236214E+02 -0.23767925012E+02  0.14741540001E+03  0.84526107127E+02 0.  0.
          5    1    5    5  501    0  0.41970952380E+01 -0.51991990171E+02 -0.26840994385E+02  0.58849907646E+02  0.47000000000E+01 0. -1.
        -13    1    6    6    0    0  0.51788005760E+02  0.11704398499E+02 -0.50921386994E+02  0.73566148046E+02  0.00000000000E+00 0.  1.
         14    1    6    6    0    0  0.52661115651E+02  0.44081837715E+02  0.27153461982E+02  0.73849251964E+02  0.00000000000E+00 0. -1.
         -5    1    3    3    0  503  0.33482338515E+02  0.13703350893E+02  0.17339431917E+03  0.17719065647E+03  0.47000000000E+01 0.  1.
         13    1    4    4    0    0 -0.22484615103E+02 -0.38080432632E+02  0.12998595112E+03  0.13730267570E+03  0.00000000000E+00 0. -1.
        -14    1    4    4    0    0 -0.11964394006E+03  0.20582835696E+02  0.44932515890E+03  0.46543680983E+03  0.00000000000E+00 0.  1.
</event>
<event>
12    1  0.1046899E+000  0.2367135E+03  0.7818608E-02  0.1122153E+00
         21   -1    0    0  501  502  0.00000000000E+00  0.00000000000E+00  0.40622063551E+02  0.40622063551E+02  0.00000000000E+00 0. -1.
         21   -1    0    0  502  503 -0.00000000000E+00 -0.00000000000E+00 -0.19752142203E+04  0.19752142203E+04  0.00000000000E+00 0. -1.
         -6    2    1    2    0  503 -0.33989010183E+01 -0.16234276891E+03 -0.41258193466E+03  0.47566492315E+03  0.17223977232E+03 0.  0.
        -24    2    3    3    0    0 -0.42933562079E+02 -0.17066046477E+03 -0.31656135185E+03  0.37138541504E+03  0.82144701778E+02 0.  0.
          6    2    1    2  501    0  0.33989010183E+01  0.16234276891E+03 -0.15220102221E+04  0.15401713607E+04  0.17101455205E+03 0.  0.
         24    2    5    5    0    0 -0.81423396310E+01  0.10207477274E+03 -0.50251944134E+03  0.51882471355E+03  0.78534944719E+02 0.  0.
          5    1    5    5  501    0  0.11541240649E+02  0.60267996169E+02 -0.10194907807E+04  0.10213466471E+04  0.47000000000E+01 0. -1.
        -11    1    6    6    0    0  0.21557813902E+00 -0.13209478790E+02 -0.62134553451E+02  0.63523535295E+02  0.00000000000E+00 0.  1.
         12    1    6    6    0    0 -0.83579177701E+01  0.11528425153E+03 -0.44038488789E+03  0.45530117825E+03  0.00000000000E+00 0. -1.
         -5    1    3    3    0  503  0.39534661061E+02  0.83176958651E+01 -0.96020582808E+02  0.10427950811E+03  0.47000000000E+01 0.  1.
         13    1    4    4    0    0 -0.24711179818E+02 -0.87753381377E+02 -0.84570359961E+02  0.12435209743E+03  0.00000000000E+00 0. -1.
        -14    1    4    4    0    0 -0.18222382261E+02 -0.82907083397E+02 -0.23199099189E+03  0.24703331761E+03  0.00000000000E+00 0.  1.
</event>
<event>
12    1  0.1046899E+000  0.1758223E+03  0.7818608E-02  0.1171967E+00
         21   -1    0    0  503  502  0.00000000000E+00  0.00000000000E+00  0.16866915151E+03  0.16866915151E+03  0.00000000000E+00 0. -1.
         21   -1    0    0  501  503 -0.00000000000E+00 -0.00000000000E+00 -0.26379072124E+03  0.26379072124E+03  0.00000000000E+00 0. -1.
          6    2    1    2  501    0 -0.35169019487E+02 -0.20199296714E+02  0.72056071435E+02  0.19001458186E+03  0.17108066042E+03 0.  0.
         24    2    3    3    0    0 -0.52849861268E+02 -0.71995869960E+02  0.40752465043E+02  0.12678877274E+03  0.80237873589E+02 0.  0.
         -6    2    1    2    0  502  0.35169019487E+02  0.20199296714E+02 -0.16717764117E+03  0.24244529090E+03  0.17084052169E+03 0.  0.
        -24    2    5    5    0    0  0.13614114785E+02  0.61679100473E+02 -0.16678334219E+03  0.19546195866E+03  0.79993990358E+02 0.  0.
          5    1    3    3  501    0  0.17680841781E+02  0.51796573246E+02  0.31303606392E+02  0.63225809123E+02  0.47000000000E+01 0. -1.
        -11    1    4    4    0    0  0.96361098260E+01 -0.18299389497E+02 -0.16503394278E+02  0.26459106018E+02  0.00000000000E+00 0.  1.
         12    1    4    4    0    0 -0.62485971094E+02 -0.53696480463E+02  0.57255859321E+02  0.10032966672E+03  0.00000000000E+00 0. -1.
         -5    1    5    5    0  502  0.21554904701E+02 -0.41479803759E+02 -0.39429897655E+00  0.46983332239E+02  0.47000000000E+01 0.  1.
         13    1    6    6    0    0 -0.21504348888E+02  0.12227286364E+02 -0.10871311617E+03  0.11149208573E+03  0.00000000000E+00 0. -1.
        -14    1    6    6    0    0  0.35118463673E+02  0.49451814109E+02 -0.58070226019E+02  0.83969872927E+02  0.00000000000E+00 0.  1.
</event>
<event>
12    1  0.1046899E+000  0.2121372E+03  0.7818608E-02  0.1139947E+00
         21   -1    0    0  503  502  0.00000000000E+00  0.00000000000E+00  0.94526423982E+02  0.94526423982E+02  0.00000000000E+00 0.  1.
         21   -1    0    0  501  503 -0.00000000000E+00 -0.00000000000E+00 -0.47952821448E+03  0.47952821448E+03  0.00000000000E+00 0.  1.
          6    2    1    2  501    0 -0.19338972784E+02 -0.12203059721E+03 -0.16559527767E+03  0.26886383335E+03  0.17204796532E+03 0.  0.
         24    2    3    3    0    0  0.20214119309E+02 -0.13371093538E+03 -0.86616375970E+02  0.17964144654E+03  0.80507315617E+02 0.  0.
         -6    2    1    2    0  502  0.19338972784E+02  0.12203059721E+03 -0.21940651282E+03  0.30519080511E+03  0.17244346068E+03 0.  0.
        -24    2    5    5    0    0 -0.39568279437E+02  0.17413993439E+02 -0.88980212602E+02  0.12785550705E+03  0.80997879870E+02 0.  0.
          5    1    3    3  501    0 -0.39553092093E+02  0.11680338174E+02 -0.78978901701E+02  0.89222386809E+02  0.47000000000E+01 0. -1.
        -13    1    4    4    0    0  0.34681092567E+02 -0.16770419405E+02 -0.12783606520E+02  0.40588739132E+02  0.00000000000E+00 0.  1.
         14    1    4    4    0    0 -0.14466973258E+02 -0.11694051598E+03 -0.73832769450E+02  0.13905270741E+03  0.00000000000E+00 0. -1.
         -5    1    5    5    0  502  0.58907252221E+02  0.10461660377E+03 -0.13042630022E+03  0.17733529806E+03  0.47000000000E+01 0.  1.
         13    1    6    6    0    0 -0.22401752125E+02  0.48569533043E+02 -0.68152056674E+02  0.86634524684E+02  0.00000000000E+00 0. -1.
        -14    1    6    6    0    0 -0.17166527312E+02 -0.31155539604E+02 -0.20828155929E+02  0.41220982368E+02  0.00000000000E+00 0.  1.
</event>
<event>
12    1  0.1046899E+000  0.1889219E+03  0.7818608E-02  0.1159749E+00
         21   -1    0    0  501  502  0.00000000000E+00  0.00000000000E+00  0.26250140851E+03  0.26250140851E+03  0.00000000000E+00 0.  1.
         21   -1    0    0  502  503 -0.00000000000E+00 -0.00000000000E+00 -0.13639630182E+03  0.13639630182E+03  0.00000000000E+00 0.  1.
         -6    2    1    2    0  503  0.12311340139E+02  0.74916383672E+02  0.42533441698E+02  0.19231674821E+03  0.17150103307E+03 0.  0.
        -24    2    3    3    0    0 -0.44990144877E+02  0.72760534299E+02 -0.55928109335E+01  0.11730785498E+03  0.80072747042E+02 0.  0.
          6    2    1    2  501    0 -0.12311340139E+02 -0.74916383672E+02  0.83571664995E+02  0.20658096212E+03  0.17299548284E+03 0.  0.
         24    2    5    5    0    0  0.38765069999E+02 -0.90488064827E+02  0.87996229452E+02  0.15279487008E+03  0.76890281549E+02 0.  0.
          5    1    5    5  501    0 -0.51076410138E+02  0.15571681156E+02 -0.44245644567E+01  0.53786092042E+02  0.47000000000E+01 0. -1.
        -11    1    6    6    0    0  0.28731490446E+02 -0.52874136472E+01  0.52236889989E+02  0.59851048128E+02  0.00000000000E+00 0.  1.
         12    1    6    6    0    0  0.10033579553E+02 -0.85200651180E+02  0.35759339463E+02  0.92943821952E+02  0.00000000000E+00 0. -1.
         -5    1    3    3    0  503  0.57301485016E+02  0.21558493725E+01  0.48126252631E+02  0.75008893232E+02  0.47000000000E+01 0.  1.
         11    1    4    4    0    0  0.14182070426E+02  0.30061869259E+02 -0.25244179096E+02  0.41738659335E+02  0.00000000000E+00 0. -1.
        -12    1    4    4    0    0 -0.59172215303E+02  0.42698665041E+02  0.19651368162E+02  0.75569195647E+02  0.00000000000E+00 0.  1.
</event>
<event>
12    1  0.1046899E+000  0.2265438E+03  0.7818608E-02  0.1129116E+00
         21   -1    0    0  503  502  0.00000000000E+00  0.00000000000E+00  0.64089061109E+03  0.64089061109E+03  0.00000000000E+00 0.  1.
         21   -1    0    0  501  503 -0.00000000000E+00 -0.00000000000E+00 -0.82749148435E+02  0.82749148435E+02  0.00000000000E+00 0.  1.
          6    2    1    2  501    0 -0.11190027034E+03  0.95637405616E+02  0.34446125315E+03  0.41222151582E+03  0.17206056878E+03 0.  0.
         24    2    3    3    0    0 -0.14152210535E+03  0.90625539624E+02  0.25036601654E+03  0.31333483591E+03  0.85170901271E+02 0.  0.
         -6    2    1    2    0  502  0.11190027034E+03 -0.95637405616E+02  0.21368020951E+03  0.31141824371E+03  0.17220309731E+03 0.  0.
        -24    2    5    5    0    0  0.79332959686E+02 -0.72461881141E+02  0.34753275725E+02  0.12802066387E+03  0.60308021794E+02 0.  0.
          5    1    3    3  501    0  0.29621835012E+02  0.50118659923E+01  0.94095236612E+02  0.98886679908E+02  0.47000000000E+01 0. -1.
        -11    1    4    4    0    0 -0.97031725112E+02  0.83161852892E+02  0.11968826786E+03  0.17508949402E+03  0.00000000000E+00 0.  1.
         12    1    4    4    0    0 -0.44490380239E+02  0.74636867314E+01  0.13067774868E+03  0.13824534189E+03  0.00000000000E+00 0. -1.
         -5    1    5    5    0  502  0.32567310652E+02 -0.23175524475E+02  0.17892693379E+03  0.18339757984E+03  0.47000000000E+01 0.  1.
         13    1    6    6    0    0  0.85021233659E+02 -0.75301577180E+02  0.39325989390E+02  0.12018931375E+03  0.00000000000E+00 0. -1.
        -14    1    6    6    0    0 -0.56882739729E+01  0.28396960389E+01 -0.45727136653E+01  0.78313501166E+01  0.00000000000E+00 0.  1.
</event>
<event>
12    1  0.1046899E+000  0.2088367E+03  0.7818608E-02  0.1142553E+00
         21   -1    0    0  503  502  0.00000000000E+00  0.00000000000E+00  0.35678962756E+03  0.35678962756E+03  0.00000000000E+00 0. -1.
         21   -1    0    0  501  503 -0.00000000000E+00 -0.00000000000E+00 -0.14091533186E+03  0.14091533186E+03  0.00000000000E+00 0. -1.
          6    2    1    2  501    0 -0.11660666083E+03 -0.21383169461E+02  0.19905618061E+03  0.28850673159E+03  0.17192561719E+03 0.  0.
         24    2    3    3    0    0 -0.26479776950E+02  0.40961664927E+02  0.11975807128E+03  0.15315528639E+03  0.82070150069E+02 0.  0.
         -6    2    1    2    0  502  0.11660666083E+03  0.21383169461E+02  0.16818115088E+02  0.20919822784E+03  0.17154211217E+03 0.  0.
        -24    2    5    5    0    0  0.11441187368E+03  0.91392808872E+01 -0.43587290837E+02  0.14734652646E+03  0.81471121526E+02 0.  0.
          5    1    3    3  501    0 -0.90126883880E+02 -0.62344834388E+02  0.79298109328E+02  0.13535144519E+03  0.47000000000E+01 0. -1.
        -11    1    4    4    0    0 -0.40948779873E+02  0.58882812489E+02  0.82138235767E+02  0.10904438525E+03  0.00000000000E+00 0.  1.
         12    1    4    4    0    0  0.14469002923E+02 -0.17921147562E+02  0.37619835514E+02  0.44110901143E+02  0.00000000000E+00 0. -1.
         -5    1    5    5    0  502  0.21947871472E+01  0.12243888574E+02  0.60405405925E+02  0.61851701375E+02  0.47000000000E+01 0.  1.
         13    1    6    6    0    0  0.92766489217E+02 -0.19382924310E+02 -0.52886265427E+01  0.94917273703E+02  0.00000000000E+00 0. -1.
        -14    1    6    6    0    0  0.21645384466E+02  0.28522205197E+02 -0.38298664294E+02  0.52429252757E+02  0.00000000000E+00 0.  1.
</event>
<event>
12    1  0.1046899E+000  0.1873671E+03  0.7818608E-02  0.1161464E+00
         21   -1    0    0  503  502  0.00000000000E+00  0.00000000000E+00  0.54119281487E+03  0.54119281487E+03  0.00000000000E+00 0.  1.
         21   -1    0    0  501  503 -0.00000000000E+00 -0.00000000000E+00 -0.11011765451E+03  0.11011765451E+03  0.00000000000E+00 0.  1.
          6    2    1    2  501    0 -0.43434768470E+01 -0.45307974375E+02  0.42724660586E+03  0.46652557067E+03  0.18175469057E+03 0.  0.
         24    2    3    3    0    0  0.66785766795E+02 -0.19540437438E+01  0.25637770278E+03  0.27637509174E+03  0.78673425720E+02 0.  0.
         -6    2    1    2    0  502  0.43434768470E+01  0.45307974375E+02  0.38285545057E+01  0.18478489871E+03  0.17905061471E+03 0.  0.
        -24    2    5    5    0    0 -0.80470983604E+01  0.82194020943E+02  0.50822148563E+02  0.12359180541E+03  0.76625261562E+02 0.  0.
          5    1    3    3  501    0 -0.71129243642E+02 -0.43353930631E+02  0.17086890307E+03  0.19015047894E+03  0.47000000000E+01 0. -1.
        -13    1    4    4    0    0 -0.25041840327E+01  0.39852044882E+01 -0.44246175238E+01  0.64598786919E+01  0.00000000000E+00 0.  1.
         14    1    4    4    0    0  0.69289950828E+02 -0.59392482320E+01  0.26080232031E+03  0.26991521304E+03  0.00000000000E+00 0. -1.
         -5    1    5    5    0  502  0.12390575207E+02 -0.36886046568E+02 -0.46993594057E+02  0.61193093301E+02  0.47000000000E+01 0.  1.
         13    1    6    6    0    0  0.26795814326E+02  0.55254045432E+02  0.75894787014E+01  0.61875886976E+02  0.00000000000E+00 0. -1.
        -14    1    6    6    0    0 -0.34842912687E+02  0.26939975510E+02  0.43232669861E+02  0.61715918435E+02  0.00000000000E+00 0.  1.
</event>
<event>
12    1  0.1046899E+000  0.3520772E+03  0.7818608E-02  0.1062110E+00
         21   -1    0    0  501  502  0.00000000000E+00  0.00000000000E+00  0.11621519245E+03  0.11621519245E+03  0.00000000000E+00 0. -1.
         21   -1    0    0  502  503 -0.00000000000E+00 -0.00000000000E+00 -0.14626108983E+04  0.14626108983E+04  0.00000000000E+00 0. -1.
         -6    2    1    2    0  503  0.19355203531E+03 -0.23854291589E+03 -0.25487689208E+03  0.43192953520E+03  0.16503266395E+03 0.  0.
        -24    2    3    3    0    0  0.72963192298E+02 -0.97613625481E+02 -0.45587625879E+02  0.15223895456E+03  0.79034298515E+02 0.  0.
          6    2    1    2  501    0 -0.19355203531E+03  0.23854291589E+03 -0.10915188138E+04  0.11468965556E+04  0.17202696072E+03 0.  0.
         24    2    5    5    0    0 -0.12342733802E+03  0.58214078134E+02 -0.46331659522E+03  0.48955639985E+03  0.79874993372E+02 0.  0.
          5    1    5    5  501    0 -0.70124697292E+02  0.18032883776E+03 -0.62820221858E+03  0.65734015572E+03  0.47000000000E+01 0. -1.
        -11    1    6    6    0    0 -0.52609527497E+02  0.68657954676E+02 -0.24778192230E+03  0.26244534315E+03  0.00000000000E+00 0.  1.
         12    1    6    6    0    0 -0.70817810525E+02 -0.10443876541E+02 -0.21553467292E+03  0.22711105670E+03  0.00000000000E+00 0. -1.
         -5    1    3    3    0  503  0.12058884302E+03 -0.14092929041E+03 -0.20928926620E+03  0.27969058065E+03  0.47000000000E+01 0.  1.
         13    1    4    4    0    0  0.41363541813E+02  0.10487295060E+01 -0.17294467478E+02  0.44845747069E+02  0.00000000000E+00 0. -1.
        -14    1    4    4    0    0  0.31599650485E+02 -0.98662354987E+02 -0.28293158402E+02  0.10739320749E+03  0.00000000000E+00 0.  1.
</event>
<event>
12    1  0.1046899E+000  0.3054840E+03  0.7818608E-02  0.1082568E+00
         21   -1    0    0  503  502  0.00000000000E+00  0.00000000000E+00  0.11840099170E+04  0.11840099170E+04  0.00000000000E+00 0.  1.
         21   -1    0    0  501  503 -0.00000000000E+00 -0.00000000000E+00 -0.14186140654E+03  0.14186140654E+03  0.00000000000E+00 0.  1.
          6    2    1    2  501    0 -0.16159431034E+03  0.19406622255E+03  0.96314205864E+03  0.10103360958E+04  0.17135338205E+03 0.  0.
         24    2    3    3    0    0 -0.67331259141E+02  0.33479626672E+02  0.24860206948E+03  0.27191679509E+03  0.80506960201E+02 0.  0.
         -6    2    1    2    0  502  0.16159431034E+03 -0.19406622255E+03  0.79006451815E+02  0.31553522770E+03  0.17188961756E+03 0.  0.
        -24    2    5    5    0    0  0.10459560638E+03 -0.58411140926E+02  0.75455631846E+02  0.16827405921E+03  0.90942313403E+02 0.  0.
          5    1    3    3  501    0 -0.94263051201E+02  0.16058659588E+03  0.71453998916E+03  0.73841930074E+03  0.47000000000E+01 0. -1.
        -13    1    4    4    0    0 -0.71277588354E+02  0.18285217500E+02  0.24499754180E+03  0.25580977165E+03  0.00000000000E+00 0.  1.
         14    1    4    4    0    0  0.39463292129E+01  0.15194409172E+02  0.36045276784E+01  0.16107023441E+02  0.00000000000E+00 0. -1.
         -5    1    5    5    0  502  0.56998703957E+02 -0.13565508162E+03  0.35508199694E+01  0.14726116849E+03  0.47000000000E+01 0.  1.
         11    1    6    6    0    0  0.10979550162E+03 -0.28564169949E+02  0.37028468990E+02  0.11934015040E+03  0.00000000000E+00 0. -1.
        -12    1    6    6    0    0 -0.51998952342E+01 -0.29846970977E+02  0.38427162855E+02  0.48933908817E+02  0.00000000000E+00 0.  1.
</event>
<event>
12    1  0.1046899E+000  0.5441374E+03  0.7818608E-02  0.1002956E+00
         21   -1    0    0  501  502  0.00000000000E+00  0.00000000000E+00  0.35935925207E+03  0.35935925207E+03  0.00000000000E+00 0.  1.
         21   -1    0    0  502  503 -0.00000000000E+00 -0.00000000000E+00 -0.82159764000E+03  0.82159764000E+03  0.00000000000E+00 0.  1.
         -6    2    1    2    0  503  0.39875808750E+03  0.32522335024E+03 -0.22329812841E+03  0.58666908449E+03  0.17187297825E+03 0.  0.
        -24    2    3    3    0    0  0.27816622577E+03  0.28748183253E+03 -0.12548513484E+03  0.42680573351E+03  0.79964754074E+02 0.  0.
          6    2    1    2  501    0 -0.39875808750E+03 -0.32522335024E+03 -0.23894025951E+03  0.59428780758E+03  0.17693872029E+03 0.  0.
         24    2    5    5    0    0 -0.15002371610E+03 -0.19584875838E+03 -0.14707215107E+03  0.29921423729E+03  0.83875447104E+02 0.  0.
          5    1    5    5  501    0 -0.24873437140E+03 -0.12937459186E+03 -0.91868108434E+02  0.29507357029E+03  0.47000000000E+01 0. -1.
        -13    1    6    6    0    0 -0.14553126263E+02 -0.21039897345E+02  0.10511096470E+02  0.27657800225E+02  0.00000000000E+00 0.  1.
         14    1    6    6    0    0 -0.13547058984E+03 -0.17480886103E+03 -0.15758324754E+03  0.27155643707E+03  0.00000000000E+00 0. -1.
         -5    1    3    3    0  503  0.12059186173E+03  0.37741517704E+02 -0.97812993573E+02  0.15986335098E+03  0.47000000000E+01 0.  1.
         13    1    4    4    0    0  0.25876501337E+03  0.22868868128E+03 -0.11520327765E+03  0.36404620623E+03  0.00000000000E+00 0. -1.
        -14    1    4    4    0    0  0.19401212401E+02  0.58793151252E+02 -0.10281857189E+02  0.62759527277E+02  0.00000000000E+00 0.  1.
</event>
<event>
12    1  0.1046899E+000  0.2020370E+03  0.7818608E-02  0.1148505E+00
         21   -1    0    0  503  502  0.00000000000E+00  0.00000000000E+00  0.43491752365E+03  0.43491752365E+03  0.00000000000E+00 0.  1.
         21   -1    0    0  501  503 -0.00000000000E+00 -0.00000000000E+00 -0.11393585561E+03  0.11393585561E+03  0.00000000000E+00 0.  1.
          6    2    1    2  501    0 -0.61678077734E+01 -0.10056062245E+03  0.43051371867E+02  0.20657288856E+03  0.17512411893E+03 0.  0.
         24    2    3    3    0    0 -0.39480501748E+02  0.62589301758E+01  0.29376301963E+02  0.93748910881E+02  0.79548770883E+02 0.  0.
         -6    2    1    2    0  502  0.61678077734E+01  0.10056062245E+03  0.27793029617E+03  0.34228049069E+03  0.17251146090E+03 0.  0.
        -24    2    5    5    0    0 -0.30588735353E+02 -0.68400354302E+01  0.13977068988E+03  0.16340592128E+03  0.78633278851E+02 0.  0.
          5    1    3    3  501    0  0.33312693975E+02 -0.10681955263E+03  0.13675069904E+02  0.11282397768E+03  0.47000000000E+01 0. -1.
        -13    1    4    4    0    0 -0.47761458945E+02 -0.18235611706E+02 -0.42845612830E+01  0.51303527756E+02  0.00000000000E+00 0.  1.
         14    1    4    4    0    0  0.82809571968E+01  0.24494541882E+02  0.33660863246E+02  0.42445383124E+02  0.00000000000E+00 0. -1.
         -5    1    5    5    0  502  0.36756543127E+02  0.10740065788E+03  0.13815960628E+03  0.17887456942E+03  0.47000000000E+01 0.  1.
         11    1    6    6    0    0 -0.34060941988E+02  0.22736094959E+02  0.12208597528E+03  0.12877135995E+03  0.00000000000E+00 0. -1.
        -12    1    6    6    0    0  0.34722066346E+01 -0.29576130390E+02  0.17684714602E+02  0.34634561326E+02  0.00000000000E+00 0.  1.
</event>
<event>
12    1  0.1046899E+000  0.2522617E+03  0.7818608E-02  0.1112086E+00
         21   -1    0    0  503  502  0.00000000000E+00  0.00000000000E+00  0.77891341340E+02  0.77891341340E+02  0.00000000000E+00 0.  1.
         21   -1    0    0  501  503 -0.00000000000E+00 -0.00000000000E+00 -0.13420486731E+04  0.13420486731E+04  0.00000000000E+00 0.  1.
          6    2    1    2  501    0 -0.16854765699E+03 -0.70339498758E+02 -0.18721601592E+03  0.31414298042E+03  0.17401154493E+03 0.  0.
         24    2    3    3    0    0 -0.14193689100E+03 -0.23743643341E+02 -0.57332217363E+02  0.17353288926E+03  0.78210222360E+02 0.  0.
         -6    2    1    2    0  502  0.16854765699E+03  0.70339498758E+02 -0.10769413159E+04  0.11057970341E+04  0.17212938424E+03 0.  0.
        -24    2    5    5    0    0  0.11124745999E+03  0.11654498896E+02 -0.90315785048E+03  0.91357314212E+03  0.80062215950E+02 0.  0.
          5    1    3    3  501    0 -0.26610765984E+02 -0.46595855417E+02 -0.12988379855E+03  0.14061009116E+03  0.47000000000E+01 0. -1.
        -13    1    4    4    0    0 -0.27957195778E+02  0.26226624002E+02 -0.21840605064E+02  0.44118620013E+02  0.00000000000E+00 0.  1.
         14    1    4    4    0    0 -0.11397969522E+03 -0.49970267343E+02 -0.35491612299E+02  0.12941426925E+03  0.00000000000E+00 0. -1.
         -5    1    5    5    0  502  0.57300196994E+02  0.58684999862E+02 -0.17378346539E+03  0.19222389193E+03  0.47000000000E+01 0.  1.
         11    1    6    6    0    0  0.81295626699E+02  0.42200247249E+02 -0.51683298671E+03  0.52488682203E+03  0.00000000000E+00 0. -1.
        -12    1    6    6    0    0  0.29951833294E+02 -0.30545748353E+02 -0.38632486377E+03  0.38868632009E+03  0.00000000000E+00 0.  1.
</event>
<event>
12    1  0.1046899E+000  0.2394818E+03  0.7818608E-02  0.1120155E+00
         21   -1    0    0  501  502  0.00000000000E+00  0.00000000000E+00  0.99327516433E+03  0.99327516433E+03  0.00000000000E+00 0. -1.
         21   -1    0    0  502  503 -0.00000000000E+00 -0.00000000000E+00 -0.83509528137E+02  0.83509528137E+02  0.00000000000E+00 0. -1.
         -6    2    1    2    0  503 -0.16180303196E+03  0.39402125929E+02  0.75416941879E+03  0.79127937334E+03  0.17210109167E+03 0.  0.
        -24    2    3    3    0    0 -0.10529156203E+03  0.11389061011E+02  0.68528216801E+03  0.69776027711E+03  0.77728571164E+02 0.  0.
          6    2    1    2  501    0  0.16180303196E+03 -0.39402125929E+02  0.15559621741E+03  0.28550531913E+03  0.17196033177E+03 0.  0.
         24    2    5    5    0    0  0.14133955997E+03 -0.89007307133E+02  0.11451010437E+03  0.21775883308E+03  0.80044821476E+02 0.  0.
          5    1    5    5  501    0  0.20463471984E+02  0.49605181204E+02  0.41086113040E+02  0.67746486054E+02  0.47000000000E+01 0. -1.
        -13    1    6    6    0    0  0.84008040768E+02 -0.16436305758E+02  0.85115207150E+02  0.12071495992E+03  0.00000000000E+00 0.  1.
         14    1    6    6    0    0  0.57331519205E+02 -0.72571001375E+02  0.29394897217E+02  0.97043873157E+02  0.00000000000E+00 0. -1.
         -5    1    3    3    0  503 -0.56511469928E+02  0.28013064918E+02  0.68887250783E+02  0.93519096232E+02  0.47000000000E+01 0.  1.
         11    1    4    4    0    0 -0.38962754540E+01  0.43852766787E+00 -0.91468138545E+00  0.40261533709E+01  0.00000000000E+00 0. -1.
        -12    1    4    4    0    0 -0.10139528657E+03  0.10950533343E+02  0.68619684939E+03  0.69373412373E+03  0.00000000000E+00 0.  1.
</event>
<event>
12    1  0.1046899E+000  0.1799498E+03  0.7818608E-02  0.1168029E+00
         21   -1    0    0  501  502  0.00000000000E+00  0.00000000000E+00  0.21710523510E+03  0.21710523510E+03  0.00000000000E+00 0.  1.
         21   -1    0    0  502  503 -0.00000000000E+00 -0.00000000000E+00 -0.53122158614E+03  0.53122158614E+03  0.00000000000E+00 0.  1.
         -6    2    1    2    0  503  0.24267348553E+02  0.42120380753E+02 -0.47471694711E+03  0.50767915429E+03  0.17325966969E+03 0.  0.
        -24    2    3    3    0    0  0.68915663142E+01  0.59985797892E+02 -0.47188271101E+03  0.48216026262E+03  0.78482076037E+02 0.  0.
          6    2    1    2  501    0 -0.24267348553E+02 -0.42120380753E+02  0.16060059607E+03  0.24064766695E+03  0.17249845642E+03 0.  0.
         24    2    5    5    0    0  0.36604212478E+02 -0.66350619817E+02  0.76121496409E+02  0.13363710809E+03  0.79511768447E+02 0.  0.
          5    1    5    5  501    0 -0.60871561031E+02  0.24230239064E+02  0.84479099663E+02  0.10701055886E+03  0.47000000000E+01 0. -1.
        -13    1    6    6    0    0  0.38071457701E+02 -0.16659930386E+02  0.72784704536E+02  0.83812901074E+02  0.00000000000E+00 0.  1.
         14    1    6    6    0    0 -0.14672452234E+01 -0.49690689431E+02  0.33367918724E+01  0.49824207015E+02  0.00000000000E+00 0. -1.
         -5    1    3    3    0  503  0.17375782239E+02 -0.17865417139E+02 -0.28342361020E+01  0.25518891674E+02  0.47000000000E+01 0.  1.
         13    1    4    4    0    0  0.14184384003E+02  0.48446671625E+02 -0.12226614286E+03  0.13227730883E+03  0.00000000000E+00 0. -1.
        -14    1    4    4    0    0 -0.72928176892E+01  0.11539126267E+02 -0.34961656815E+03  0.34988295379E+03  0.00000000000E+00 0.  1.
</event>
<event>
12    1  0.1046899E+000  0.2748589E+03  0.7818608E-02  0.1098825E+00
         21   -1    0    0  503  502  0.00000000000E+00  0.00000000000E+00  0.46103441590E+03  0.46103441590E+03  0.00000000000E+00 0.  1.
         21   -1    0    0  501  503 -0.00000000000E+00 -0.00000000000E+00 -0.18456203578E+03  0.18456203578E+03  0.00000000000E+00 0. -1.
          6    2    1    2  501    0 -0.11196749941E+03 -0.18027151071E+03  0.24907840774E+03  0.36937582712E+03  0.17135900898E+03 0.  0.
         24    2    3    3    0    0 -0.79137437895E+02 -0.87391562342E+02  0.22776361214E+03  0.26847534020E+03  0.79389709888E+02 0.  0.
         -6    2    1    2    0  502  0.11196749941E+03  0.18027151071E+03  0.27393972386E+02  0.27622062456E+03  0.17467932108E+03 0.  0.
        -24    2    5    5    0    0  0.38936080698E+02  0.19489947665E+02  0.39088545874E+02  0.99180651154E+02  0.80081275618E+02 0.  0.
          5    1    3    3  501    0 -0.32830061512E+02 -0.92879948371E+02  0.21314795599E+02  0.10090048692E+03  0.47000000000E+01 0. -1.
        -13    1    4    4    0    0 -0.61835277012E+02 -0.12312327103E+02  0.80275498579E+02  0.10207522008E+03  0.00000000000E+00 0.  1.
         14    1    4    4    0    0 -0.17302160883E+02 -0.75079235239E+02  0.14748811356E+03  0.16640012012E+03  0.00000000000E+00 0. -1.
         -5    1    5    5    0  502  0.73031418710E+02  0.16078156305E+03 -0.11694573489E+02  0.17703997341E+03  0.47000000000E+01 0.  1.
         11    1    6    6    0    0  0.63124987390E+02  0.16111682128E+02  0.19898218308E+02  0.68119669889E+02  0.00000000000E+00 0. -1.
        -12    1    6    6    0    0 -0.24188906692E+02  0.33782655373E+01  0.19190327566E+02  0.31060981265E+02  0.00000000000E+00 0.  1.
</event>
<event>
12    1  0.1046899E+000  0.1730902E+03  0.7818608E-02  0.1174923E+00
         21   -1    0    0  501  502  0.00000000000E+00  0.00000000000E+00  0.19595503537E+02  0.19595503537E+02  0.00000000000E+00 0. -1.
         21   -1    0    0  502  503 -0.00000000000E+00 -0.00000000000E+00 -0.15718185404E+04  0.15718185404E+04  0.00000000000E+00 0. -1.
         -6    2    1    2    0  503 -0.21518791147E+02  0.13551076626E+02 -0.62938194175E+03  0.65248065242E+03  0.17018426229E+03 0.  0.
        -24    2    3    3    0    0  0.51035192078E+01 -0.46025894676E+02 -0.26687035044E+03  0.28411275649E+03  0.85766226259E+02 0.  0.
          6    2    1    2  501    0  0.21518791147E+02 -0.13551076626E+02 -0.92284109514E+03  0.93893339154E+03  0.17121196461E+03 0.  0.
         24    2    5    5    0    0  0.73213273113E+02 -0.37899244989E+02 -0.53275834980E+03  0.54465964022E+03  0.77628141007E+02 0.  0.
          5    1    5    5  501    0 -0.51694481965E+02  0.24348168363E+02 -0.39008274534E+03  0.39427375132E+03  0.47000000000E+01 0. -1.
        -13    1    6    6    0    0  0.57968619200E+02 -0.27231208195E+02 -0.51490556699E+03  0.51887343585E+03  0.00000000000E+00 0.  1.
         14    1    6    6    0    0  0.15244653913E+02 -0.10668036793E+02 -0.17852782805E+02  0.25786204371E+02  0.00000000000E+00 0. -1.
         -5    1    3    3    0  503 -0.26622310355E+02  0.59576971302E+02 -0.36251159131E+03  0.36836789593E+03  0.47000000000E+01 0.  1.
         13    1    4    4    0    0  0.28433459007E+02 -0.13424929924E+02 -0.22086263923E+03  0.22308965853E+03  0.00000000000E+00 0. -1.
        -14    1    4    4    0    0 -0.23329939799E+02 -0.32600964753E+02 -0.46007711205E+02  0.61023097956E+02  0.00000000000E+00 0.  1.
</event>
<event>
12    1  0.1046899E+000  0.2381064E+03  0.7818608E-02  0.1122346E+00
         21   -1    0    0  503  502  0.00000000000E+00  0.00000000000E+00  0.27222679923E+03  0.27222679923E+03  0.00000000000E+00 0.  1.
         21   -1    0    0  501  503 -0.00000000000E+00 -0.00000000000E+00 -0.22611498300E+03  0.22611498300E+03  0.00000000000E+00 0.  1.
          6    2    1    2  501    0 -0.15785215123E+03  0.45697179410E+02  0.10517308738E+03  0.26029986722E+03  0.17230527766E+03 0.  0.
         24    2    3    3    0    0 -0.18719489015E+03  0.43769394235E+02  0.91236287471E+02  0.22742073897E+03  0.80239925184E+02 0.  0.
         -6    2    1    2    0  502  0.15785215123E+03 -0.45697179410E+02 -0.59061271147E+02  0.23804191502E+03  0.16177201767E+03 0.  0.
        -24    2    5    5    0    0  0.45797717655E+02 -0.68711675233E+02 -0.17274623247E+02  0.11616461178E+03  0.79856616295E+02 0.  0.
          5    1    3    3  501    0  0.29342738915E+02  0.19277851746E+01  0.13936799905E+02  0.32879128248E+02  0.47000000000E+01 0. -1.
        -13    1    4    4    0    0 -0.17954070773E+02 -0.92203922712E+01 -0.10725800462E+02  0.22856226428E+02  0.00000000000E+00 0.  1.
         14    1    4    4    0    0 -0.16924081937E+03  0.52989786507E+02  0.10196208793E+03  0.20456451254E+03  0.00000000000E+00 0. -1.
         -5    1    5    5    0  502  0.11205443358E+03  0.23014495823E+02 -0.41786647901E+02  0.12187730324E+03  0.47000000000E+01 0.  1.
         11    1    6    6    0    0  0.69574545385E+01  0.12316235936E+02 -0.22032762680E+02  0.26182789626E+02  0.00000000000E+00 0. -1.
        -12    1    6    6    0    0  0.38840263116E+02 -0.81027911169E+02  0.47581394331E+01  0.89981822154E+02  0.00000000000E+00 0.  1.
</event>
<event>
12    1  0.1046899E+000  0.2663215E+03  0.7818608E-02  0.1103423E+00
         21   -1    0    0  503  502  0.00000000000E+00  0.00000000000E+00  0.23364295999E+03  0.23364295999E+03  0.00000000000E+00 0. -1.
         21   -1    0    0  501  503 -0.00000000000E+00 -0.00000000000E+00 -0.35059352267E+03  0.35059352267E+03  0.00000000000E+00 0. -1.
          6    2    1    2  501    0 -0.57978642059E+02 -0.19436859044E+03  0.48670560359E+02  0.27073226934E+03  0.17258756135E+03 0.  0.
         24    2    3    3    0    0 -0.92559891850E+02 -0.17496471262E+03  0.60281526786E+01  0.21231276708E+03  0.76553172369E+02 0.  0.
         -6    2    1    2    0  502  0.57978642059E+02  0.19436859044E+03 -0.16562112303E+03  0.31350421332E+03  0.17237709676E+03 0.  0.
        -24    2    5    5    0    0 -0.31515433104E+02  0.60941189165E+02 -0.63586572719E+02  0.12312249056E+03  0.80055258360E+02 0.  0.
          5    1    3    3  501    0  0.34581249791E+02 -0.19403877828E+02  0.42642407681E+02  0.58419502263E+02  0.47000000000E+01 0. -1.
        -11    1    4    4    0    0 -0.66873902339E+02 -0.86908358518E+02  0.36631643695E+02  0.11561599766E+03  0.00000000000E+00 0.  1.
         12    1    4    4    0    0 -0.25685989511E+02 -0.88056354098E+02 -0.30603491017E+02  0.96696769422E+02  0.00000000000E+00 0. -1.
         -5    1    5    5    0  502  0.89494075163E+02  0.13342740128E+03 -0.10203455032E+03  0.19038172276E+03  0.47000000000E+01 0.  1.
         13    1    6    6    0    0 -0.27133366690E+02  0.45161775083E+02  0.47042449269E+01  0.52895514337E+02  0.00000000000E+00 0. -1.
        -14    1    6    6    0    0 -0.43820664140E+01  0.15779414081E+02 -0.68290817646E+02  0.70226976224E+02  0.00000000000E+00 0.  1.
</event>
<event>
12    1  0.1046899E+000  0.2449265E+03  0.7818608E-02  0.1116723E+00
         21   -1    0    0  501  502  0.00000000000E+00  0.00000000000E+00  0.71133605865E+02  0.71133605865E+02  0.00000000000E+00 0. -1.
         21   -1    0    0  502  503 -0.00000000000E+00 -0.00000000000E+00 -0.85674015556E+03  0.85674015556E+03  0.00000000000E+00 0.  1.
         -6    2    1    2    0  503 -0.95731376920E+02 -0.14532304317E+03 -0.32664113854E+03  0.40764472126E+03  0.17086983929E+03 0.  0.
        -24    2    3    3    0    0 -0.10400680473E+03 -0.39656516138E+02 -0.17023932704E+03  0.21865394296E+03  0.80237544834E+02 0.  0.
          6    2    1    2  501    0  0.95731376920E+02  0.14532304317E+03 -0.45896541116E+03  0.52022904017E+03  0.17235348037E+03 0.  0.
         24    2    5    5    0    0  0.36963096967E+02  0.13107796121E+03 -0.41897076399E+03  0.44757716551E+03  0.79000731384E+02 0.  0.
          5    1    5    5  501    0  0.58768279954E+02  0.14245081956E+02 -0.39994647166E+02  0.72651874653E+02  0.47000000000E+01 0. -1.
        -13    1    6    6    0    0  0.42942077506E+02  0.59380930065E+02 -0.29755600660E+03  0.30644688600E+03  0.00000000000E+00 0.  1.
         14    1    6    6    0    0 -0.59789805390E+01  0.71697031147E+02 -0.12141475739E+03  0.14113027951E+03  0.00000000000E+00 0. -1.
         -5    1    3    3    0  503  0.82754278049E+01 -0.10566652703E+03 -0.15640181151E+03  0.18899077830E+03  0.47000000000E+01 0.  1.
         11    1    4    4    0    0 -0.72454915043E+02  0.14687984635E+02 -0.10076509887E+03  0.12497622477E+03  0.00000000000E+00 0. -1.
        -12    1    4    4    0    0 -0.31551889682E+02 -0.54344500773E+02 -0.69474228167E+02  0.93677718195E+02  0.00000000000E+00 0.  1.
</event>
<event>
12    1  0.1046899E+000  0.2228656E+03  0.7818608E-02  0.1131990E+00
         21   -1    0    0  501  502  0.00000000000E+00  0.00000000000E+00  0.11233343352E+03  0.11233343352E+03  0.00000000000E+00 0.  1.
         21   -1    0    0  502  503 -0.00000000000E+00 -0.00000000000E+00 -0.58257131006E+03  0.58257131006E+03  0.00000000000E+00 0.  1.
         -6    2    1    2    0  503  0.77042712915E+02  0.11878557514E+03 -0.40765461272E+03  0.46459807393E+03  0.17211477145E+03 0.  0.
        -24    2    3    3    0    0 -0.10878425538E+02  0.10712738127E+03 -0.24660058721E+03  0.28067817505E+03  0.79835909057E+02 0.  0.
          6    2    1    2  501    0 -0.77042712915E+02 -0.11878557514E+03 -0.62583263822E+02  0.23030666966E+03  0.17052537848E+03 0.  0.
         24    2    5    5    0    0 -0.45240573631E+02  0.29467591014E+01 -0.56122385418E+02  0.10423537946E+03  0.75232302202E+02 0.  0.
          5    1    5    5  501    0 -0.31802139283E+02 -0.12173233424E+03 -0.64608784037E+01  0.12607129020E+03  0.47000000000E+01 0. -1.
        -11    1    6    6    0    0 -0.87105768639E+01  0.19160633741E+01 -0.65823620054E+02  0.66425103728E+02  0.00000000000E+00 0.  1.
         12    1    6    6    0    0 -0.36529996767E+02  0.10306957273E+01  0.97012346365E+01  0.37810275733E+02  0.00000000000E+00 0. -1.
         -5    1    3    3    0  503  0.87921138453E+02  0.11658193866E+02 -0.16105402551E+03  0.18391989888E+03  0.47000000000E+01 0.  1.
         11    1    4    4    0    0  0.28804753333E+02  0.17529344271E+02 -0.88091911644E+02  0.94324846261E+02  0.00000000000E+00 0. -1.
        -12    1    4    4    0    0 -0.39683178871E+02  0.89598037002E+02 -0.15850867557E+03  0.18635332879E+03  0.00000000000E+00 0.  1.
</event>
<event>
12    1  0.1046899E+000  0.2917852E+03  0.7818608E-02  0.1089521E+00
         21   -1    0    0  503  502  0.00000000000E+00  0.00000000000E+00  0.64032083391E+03  0.64032083391E+03  0.00000000000E+00 0.  1.
         21   -1    0    0  501  503 -0.00000000000E+00 -0.00000000000E+00 -0.13527311779E+03  0.13527311779E+03  0.00000000000E+00 0. -1.
          6    2    1    2  501    0 -0.23016599660E+03 -0.53281900469E+02  0.19778977979E+03  0.35186523697E+03  0.16992057289E+03 0.  0.
         24    2    3    3    0    0 -0.20957815996E+03 -0.62269193124E+02  0.21954594612E+03  0.32024165051E+03  0.80955757805E+02 0.  0.
         -6    2    1    2    0  502  0.23016599660E+03  0.53281900469E+02  0.30725793633E+03  0.42372871473E+03  0.17124029124E+03 0.  0.
        -24    2    5    5    0    0  0.96681695938E+02  0.83802923156E+02  0.19422878817E+03  0.24611320392E+03  0.80477367809E+02 0.  0.
          5    1    3    3  501    0 -0.20587836641E+02  0.89872926551E+01 -0.21756166334E+02  0.31623586456E+02  0.47000000000E+01 0. -1.
        -13    1    4    4    0    0 -0.90113853589E+02 -0.60900845089E+01  0.43644191216E+02  0.10031157044E+03  0.00000000000E+00 0.  1.
         14    1    4    4    0    0 -0.11946430637E+03 -0.56179108615E+02  0.17590175490E+03  0.21993008007E+03  0.00000000000E+00 0. -1.
         -5    1    5    5    0  502  0.13348430066E+03 -0.30521022686E+02  0.11302914816E+03  0.17761551082E+03  0.47000000000E+01 0.  1.
         13    1    6    6    0    0  0.63843092966E+00  0.45818050565E+02  0.42026805393E+02  0.62176794089E+02  0.00000000000E+00 0. -1.
        -14    1    6    6    0    0  0.96043265008E+02  0.37984872590E+02  0.15220198278E+03  0.18393640983E+03  0.00000000000E+00 0.  1.
</event>
<event>
12    1  0.1046899E+000  0.6098931E+03  0.7818608E-02  0.9885481E-01
         21   -1    0    0  501  502  0.00000000000E+00  0.00000000000E+00  0.24833192770E+03  0.24833192770E+03  0.00000000000E+00 0.  1.
         21   -1    0    0  502  503 -0.00000000000E+00 -0.00000000000E+00 -0.18080083865E+04  0.18080083865E+04  0.00000000000E+00 0.  1.
         -6    2    1    2    0  503  0.57600523329E+03 -0.10065427935E+03 -0.12073684298E+04  0.13526670452E+04  0.17336752034E+03 0.  0.
        -24    2    3    3    0    0  0.38988218665E+03 -0.58263245790E+02 -0.66069607523E+03  0.77360613175E+03  0.80897577064E+02 0.  0.
          6    2    1    2  501    0 -0.57600523329E+03  0.10065427935E+03 -0.35230802902E+03  0.70367326903E+03  0.17065113392E+03 0.  0.
         24    2    5    5    0    0 -0.54173503052E+03  0.12365121390E+03 -0.34935435606E+03  0.66203050278E+03  0.86426006047E+02 0.  0.
          5    1    5    5  501    0 -0.34270202777E+02 -0.22996934557E+02 -0.29536729575E+01  0.41642766255E+02  0.47000000000E+01 0. -1.
        -13    1    6    6    0    0 -0.47914660724E+02  0.78846465314E+01 -0.63094774094E+02  0.79617415690E+02  0.00000000000E+00 0.  1.
         14    1    6    6    0    0 -0.49382036979E+03  0.11576656737E+03 -0.28625958196E+03  0.58241308709E+03  0.00000000000E+00 0. -1.
         -5    1    3    3    0  503  0.18612304665E+03 -0.42391033556E+02 -0.54667235456E+03  0.57906091343E+03  0.47000000000E+01 0.  1.
         13    1    4    4    0    0  0.29759045981E+03 -0.64451142470E+02 -0.55588470222E+03  0.63381529936E+03  0.00000000000E+00 0. -1.
        -14    1    4    4    0    0  0.92291726837E+02  0.61878966799E+01 -0.10481137301E+03  0.13979083239E+03  0.00000000000E+00 0.  1.
</event>
<event>
12    1  0.1046899E+000  0.1928365E+03  0.7818608E-02  0.1156417E+00
         21   -1    0    0  501  502  0.00000000000E+00  0.00000000000E+00  0.50420937264E+03  0.50420937264E+03  0.00000000000E+00 0.  1.
         21   -1    0    0  502  503 -0.00000000000E+00 -0.00000000000E+00 -0.28907175141E+03  0.28907175141E+03  0.00000000000E+00 0.  1.
         -6    2    1    2    0  503  0.79244442017E+02  0.20009295055E+02  0.45040151303E+03  0.48908543692E+03  0.17222946377E+03 0.  0.
        -24    2    3    3    0    0  0.83024507025E+02  0.70421625385E+02  0.36925247071E+03  0.39336214295E+03  0.80833868441E+02 0.  0.
          6    2    1    2  501    0 -0.79244442017E+02 -0.20009295055E+02 -0.23526389180E+03  0.30419568712E+03  0.17465927917E+03 0.  0.
         24    2    5    5    0    0  0.12833396424E+02  0.29094053618E+02 -0.80127670485E+02  0.11716947413E+03  0.79354155973E+02 0.  0.
          5    1    5    5  501    0 -0.92077838441E+02 -0.49103348673E+02 -0.15513622131E+03  0.18702621299E+03  0.47000000000E+01 0. -1.
        -13    1    6    6    0    0  0.16747001520E+02  0.41754102018E+02 -0.10373652167E+02  0.46167951596E+02  0.00000000000E+00 0.  1.
         14    1    6    6    0    0 -0.39136050953E+01 -0.12660048400E+02 -0.69754018318E+02  0.71001522532E+02  0.00000000000E+00 0. -1.
         -5    1    3    3    0  503 -0.37800650080E+01 -0.50412330329E+02  0.81149042316E+02  0.95723293975E+02  0.47000000000E+01 0.  1.
         13    1    4    4    0    0  0.22691891644E+02  0.18635058639E+02  0.23872955081E+03  0.24052855504E+03  0.00000000000E+00 0. -1.
        -14    1    4    4    0    0  0.60332615381E+02  0.51786566745E+02  0.13052291990E+03  0.15283358791E+03  0.00000000000E+00 0.  1.
</event>
<event>
12    1  0.1046899E+000  0.2566218E+03  0.7818608E-02  0.1109320E+00
         21   -1    0    0  501  502  0.00000000000E+00  0.00000000000E+00  0.10839379149E+04  0.10839379149E+04  0.00000000000E+00 0.  1.
         21   -1    0    0  502  503 -0.00000000000E+00 -0.00000000000E+00 -0.62564352561E+02  0.62564352561E+02  0.00000000000E+00 0.  1.
         -6    2    1    2    0  503 -0.38517254777E+02 -0.18527002259E+03  0.61425682881E+03  0.66570729501E+03  0.17333837052E+03 0.  0.
        -24    2    3    3    0    0 -0.73561374599E+02 -0.18997327147E+03  0.49960445510E+03  0.54563453506E+03  0.81309990686E+02 0.  0.
          6    2    1    2  501    0  0.38517254777E+02  0.18527002259E+03  0.40711673353E+03  0.48079497245E+03  0.17207908250E+03 0.  0.
         24    2    5    5    0    0 -0.14771550023E+02  0.84170487913E+02  0.31926123990E+03  0.33656775454E+03  0.63617956298E+02 0.  0.
          5    1    5    5  501    0  0.53288804800E+02  0.10109953468E+03  0.87855493622E+02  0.14422721792E+03  0.47000000000E+01 0. -1.
        -11    1    6    6    0    0 -0.37201709664E+02  0.29677729660E+02  0.13947129274E+03  0.14736680881E+03  0.00000000000E+00 0.  1.
         12    1    6    6    0    0  0.22430159642E+02  0.54492758253E+02  0.17978994716E+03  0.18920094572E+03  0.00000000000E+00 0. -1.
         -5    1    3    3    0  503  0.35044119822E+02  0.47032488775E+01  0.11465237371E+03  0.12007275995E+03  0.47000000000E+01 0.  1.
         11    1    4    4    0    0 -0.34620473097E+02 -0.50854068405E+02  0.24788472591E+03  0.25540468040E+03  0.00000000000E+00 0. -1.
        -12    1    4    4    0    0 -0.38940901502E+02 -0.13911920306E+03  0.25171972919E+03  0.29022985466E+03  0.00000000000E+00 0.  1.
</event>
<event>
12    1  0.1046899E+000  0.1904059E+03  0.7818608E-02  0.1158336E+00
         21   -1    0    0  501  502  0.00000000000E+00  0.00000000000E+00  0.15304912260E+03  0.15304912260E+03  0.00000000000E+00 0.  1.
         21   -1    0    0  502  503 -0.00000000000E+00 -0.00000000000E+00 -0.27909817762E+03  0.27909817762E+03  0.00000000000E+00 0.  1.
         -6    2    1    2    0  503 -0.60575521352E+02  0.54730905732E+02  0.22169831373E+02  0.19169222475E+03  0.17201610906E+03 0.  0.
        -24    2    3    3    0    0 -0.52920650757E+02 -0.22204358073E+02  0.45857845833E+02  0.11069318840E+03  0.82803448838E+02 0.  0.
          6    2    1    2  501    0  0.60575521352E+02 -0.54730905732E+02 -0.14821888640E+03  0.24045507547E+03  0.17083600090E+03 0.  0.
         24    2    5    5    0    0 -0.31192933603E+02 -0.47626235353E+02 -0.84115605132E+02  0.12819089447E+03  0.78206220968E+02 0.  0.
          5    1    5    5  501    0  0.91768454955E+02 -0.71046703787E+01 -0.64103281266E+02  0.11226418100E+03  0.47000000000E+01 0. -1.
        -13    1    6    6    0    0  0.69273548586E+01 -0.34530028910E+01 -0.66914564747E+02  0.67360748583E+02  0.00000000000E+00 0.  1.
         14    1    6    6    0    0 -0.38120288461E+02 -0.44173232462E+02 -0.17201040384E+02  0.60830145889E+02  0.00000000000E+00 0. -1.
         -5    1    3    3    0  503 -0.76548705946E+01  0.76935263805E+02 -0.23688014460E+02  0.80999036350E+02  0.47000000000E+01 0.  1.
         11    1    4    4    0    0 -0.62258991519E+02  0.38314743779E+01  0.66775848092E+01  0.62733183880E+02  0.00000000000E+00 0. -1.
        -12    1    4    4    0    0  0.93383407613E+01 -0.26035832451E+02  0.39180261024E+02  0.47960004519E+02  0.00000000000E+00 0.  1.
</event>
<event>
12    1  0.1046899E+000  0.1857585E+03  0.7818608E-02  0.1162562E+00
         21   -1    0    0  501  502  0.00000000000E+00  0.00000000000E+00  0.12548844493E+03  0.12548844493E+03  0.00000000000E+00 0. -1.
         21   -1    0    0  502  503 -0.00000000000E+00 -0.00000000000E+00 -0.51227771838E+03  0.51227771838E+03  0.00000000000E+00 0. -1.
         -6    2    1    2    0  503  0.86314743213E+01  0.69337128280E+02  0.24011622678E+02  0.18730393220E+03  0.17211642945E+03 0.  0.
        -24    2    3    3    0    0  0.50275244167E+02  0.29309711627E+02  0.64100076874E+02  0.11683711865E+03  0.78456568040E+02 0.  0.
          6    2    1    2  501    0 -0.86314743213E+01 -0.69337128280E+02 -0.41080089613E+03  0.45046223112E+03  0.17110437078E+03 0.  0.
         24    2    5    5    0    0 -0.43828316608E+01 -0.14512362020E+02 -0.75506526311E+02  0.11065609464E+03  0.79458906993E+02 0.  0.
          5    1    5    5  501    0 -0.42486426605E+01 -0.54824766260E+02 -0.33529436982E+03  0.33980613648E+03  0.47000000000E+01 0. -1.
        -11    1    6    6    0    0 -0.26423853543E+02 -0.38085501636E+01 -0.81220898720E+02  0.85495961772E+02  0.00000000000E+00 0.  1.
         12    1    6    6    0    0  0.22041021882E+02 -0.10703811856E+02  0.57143724089E+01  0.25160132867E+02  0.00000000000E+00 0. -1.
         -5    1    3    3    0  503 -0.41643769846E+02  0.40027416653E+02 -0.40088454196E+02  0.70466813541E+02  0.47000000000E+01 0.  1.
         11    1    4    4    0    0  0.60394436954E+02  0.18341011066E+02  0.14121996403E+02  0.64678524135E+02  0.00000000000E+00 0. -1.
        -12    1    4    4    0    0 -0.10119192787E+02  0.10968700561E+02  0.49978080471E+02  0.52158594519E+02  0.00000000000E+00 0.  1.
</event>
<event>
12    1  0.1046899E+000  0.2829795E+03  0.7818608E-02  0.1094118E+00
         21   -1    0    0  501  502  0.00000000000E+00  0.00000000000E+00  0.12422526689E+03  0.12422526689E+03  0.00000000000E+00 0. -1.
         21   -1    0    0  502  503 -0.00000000000E+00 -0.00000000000E+00 -0.64772549545E+03  0.64772549545E+03  0.00000000000E+00 0. -1.
         -6    2    1    2    0  503 -0.82487069044E+02 -0.20937337323E+03 -0.29145894003E+03  0.40599914638E+03  0.17101364612E+03 0.  0.
        -24    2    3    3    0    0 -0.95948765571E+02 -0.97437973094E+02 -0.11034580046E+03  0.19261027507E+03  0.78880911287E+02 0.  0.
          6    2    1    2  501    0  0.82487069044E+02  0.20937337323E+03 -0.23204128853E+03  0.36595161596E+03  0.17156951845E+03 0.  0.
         24    2    5    5    0    0 -0.92032017178E+00  0.17588654026E+03 -0.15319723125E+03  0.24629947044E+03  0.79101930719E+02 0.  0.
          5    1    5    5  501    0  0.83407389216E+02  0.33486832969E+02 -0.78844057288E+02  0.11965214552E+03  0.47000000000E+01 0. -1.
        -13    1    6    6    0    0  0.34759382811E+02  0.12979059186E+03 -0.11195657613E+03  0.17489450354E+03  0.00000000000E+00 0.  1.
         14    1    6    6    0    0 -0.35679702983E+02  0.46095948398E+02 -0.41240655112E+02  0.71404966898E+02  0.00000000000E+00 0. -1.
         -5    1    3    3    0  503  0.13461696527E+02 -0.11193540014E+03 -0.18111313957E+03  0.21338887131E+03  0.47000000000E+01 0.  1.
         13    1    4    4    0    0 -0.99462108740E+02 -0.86111463373E+02 -0.11942092419E+03  0.17767738273E+03  0.00000000000E+00 0. -1.
        -14    1    4    4    0    0  0.35133431685E+01 -0.11326509721E+02  0.90751237312E+01  0.14932892333E+02  0.00000000000E+00 0.  1.
</event>
<event>
12    1  0.1046899E+000  0.1892216E+03  0.7818608E-02  0.1159472E+00
         21   -1    0    0  501  502  0.00000000000E+00  0.00000000000E+00  0.75799427482E+03  0.75799427482E+03  0.00000000000E+00 0. -1.
         21   -1    0    0  502  503 -0.00000000000E+00 -0.00000000000E+00 -0.85819662569E+02  0.85819662569E+02  0.00000000000E+00 0. -1.
         -6    2    1    2    0  503 -0.64738596223E+02 -0.39953261421E+02  0.61955183897E+03  0.64741136991E+03  0.17178373548E+03 0.  0.
        -24    2    3    3    0    0 -0.18576896867E+02  0.40926815411E+02  0.25466431437E+03  0.27079819313E+03  0.80359461612E+02 0.  0.
          6    2    1    2  501    0  0.64738596223E+02  0.39953261421E+02  0.52622773283E+02  0.19640256748E+03  0.17325548565E+03 0.  0.
         24    2    5    5    0    0  0.56371155323E+02  0.10806847354E+02 -0.34797152703E+02  0.10375343916E+03  0.79116617714E+02 0.  0.
          5    1    5    5  501    0  0.83674409006E+01  0.29146414067E+02  0.87419925986E+02  0.92649128326E+02  0.47000000000E+01 0. -1.
        -13    1    6    6    0    0  0.74109474839E+02  0.18638201693E+02 -0.19002535488E+02  0.78744480303E+02  0.00000000000E+00 0.  1.
         14    1    6    6    0    0 -0.17738319516E+02 -0.78313543382E+01 -0.15794617215E+02  0.25008958854E+02  0.00000000000E+00 0. -1.
         -5    1    3    3    0  503 -0.46161699356E+02 -0.80880076832E+02  0.36488752460E+03  0.37661317678E+03  0.47000000000E+01 0.  1.
         11    1    4    4    0    0 -0.97906363652E+00  0.17563658386E+02  0.23476149399E+03  0.23541962476E+03  0.00000000000E+00 0. -1.
        -12    1    4    4    0    0 -0.17597833230E+02  0.23363157026E+02  0.19902820378E+02  0.35378568366E+02  0.00000000000E+00 0.  1.
</event>
<event>
12    1  0.1046899E+000  0.3146168E+03  0.7818608E-02  0.1078306E+00
         21   -1    0    0  501  502  0.00000000000E+00  0.00000000000E+00  0.96817963576E+02  0.96817963576E+02  0.00000000000E+00 0.  1.
         21   -1    0    0  502  503 -0.00000000000E+00 -0.00000000000E+00 -0.10192285766E+04  0.10192285766E+04  0.00000000000E+00 0.  1.
         -6    2    1    2    0  503 -0.10514296456E+03 -0.24036568423E+03 -0.44241105663E+03  0.54212727503E+03  0.17130012886E+03 0.  0.
        -24    2    3    3    0    0 -0.44858423813E+02 -0.23657306189E+03 -0.37195726294E+03  0.44920560434E+03  0.73853758991E+02 0.  0.
          6    2    1    2  501    0  0.10514296456E+03  0.24036568423E+03 -0.47999955640E+03  0.57391926516E+03  0.17364631762E+03 0.  0.
         24    2    5    5    0    0  0.75801989946E+02  0.53176385288E+02 -0.22788425479E+03  0.25850692911E+03  0.79504271460E+02 0.  0.
          5    1    5    5  501    0  0.29340974617E+02  0.18718929894E+03 -0.25211530160E+03  0.31541233605E+03  0.47000000000E+01 0. -1.
        -11    1    6    6    0    0  0.17958842568E+02 -0.35057778268E+01 -0.13082351220E+03  0.13209694110E+03  0.00000000000E+00 0.  1.
         12    1    6    6    0    0  0.57843147378E+02  0.56682163115E+02 -0.97060742598E+02  0.12640998801E+03  0.00000000000E+00 0. -1.
         -5    1    3    3    0  503 -0.60284540751E+02 -0.37926223390E+01 -0.70453793689E+02  0.92921670685E+02  0.47000000000E+01 0.  1.
         11    1    4    4    0    0  0.19117906389E+02 -0.30660831677E+02 -0.48940620607E+02  0.60833915616E+02  0.00000000000E+00 0. -1.
        -12    1    4    4    0    0 -0.63976330202E+02 -0.20591223021E+03 -0.32301664234E+03  0.38837168873E+03  0.00000000000E+00 0.  1.
</event>
<event>
12    1  0.1046899E+000  0.2057934E+03  0.7818608E-02  0.1146191E+00
         21   -1    0    0  503  502  0.00000000000E+00  0.00000000000E+00  0.82930100989E+03  0.82930100989E+03  0.00000000000E+00 0. -1.
         21   -1    0    0  501  503 -0.00000000000E+00 -0.00000000000E+00 -0.49875726554E+02  0.49875726554E+02  0.00000000000E+00 0.  1.
          6    2    1    2  501    0  0.29702335010E+02  0.98619262760E+02  0.36149873937E+03  0.41597146533E+03  0.17816546722E+03 0.  0.
         24    2    3    3    0    0  0.43017750424E+02  0.85027162462E+02  0.12060935197E+03  0.17428606561E+03  0.82151516565E+02 0.  0.
         -6    2    1    2    0  502 -0.29702335010E+02 -0.98619262760E+02  0.41792654397E+03  0.46320527112E+03  0.17113894748E+03 0.  0.
        -24    2    5    5    0    0 -0.43782419191E+02 -0.84149973537E+02  0.42402027934E+03  0.44159895926E+03  0.78856358385E+02 0.  0.
          5    1    3    3  501    0 -0.13315415414E+02  0.13592100298E+02  0.24088938740E+03  0.24168539972E+03  0.47000000000E+01 0. -1.
        -11    1    4    4    0    0  0.43930367640E+02  0.99738635908E+02  0.11520421107E+03  0.15858651564E+03  0.00000000000E+00 0.  1.
         12    1    4    4    0    0 -0.91261721511E+00 -0.14711473446E+02  0.54051409046E+01  0.15699549972E+02  0.00000000000E+00 0. -1.
         -5    1    5    5    0  502  0.14080084180E+02 -0.14469289222E+02 -0.60937353678E+01  0.21606311852E+02  0.47000000000E+01 0.  1.
         13    1    6    6    0    0 -0.37982803969E+02 -0.64316864785E+02  0.15788414699E+03  0.17466183431E+03  0.00000000000E+00 0. -1.
        -14    1    6    6    0    0 -0.57996152220E+01 -0.19833108752E+02  0.26613613234E+03  0.26693712495E+03  0.00000000000E+00 0.  1.
</event>
<event>
12    1  0.1046899E+000  0.1743395E+03  0.7818608E-02  0.1173586E+00
         21   -1    0    0  503  502  0.00000000000E+00  0.00000000000E+00  0.17844290529E+03  0.17844290529E+03  0.00000000000E+00 0. -1.
         21   -1    0    0  501  503 -0.00000000000E+00 -0.00000000000E+00 -0.22697794344E+03  0.22697794344E+03  0.00000000000E+00 0. -1.
          6    2    1    2  501    0  0.15804159340E+02  0.28472912557E+02  0.77613121525E+02  0.19083519609E+03  0.17127112201E+03 0.  0.
         24    2    3    3    0    0 -0.69837843237E+01 -0.50037466586E+02  0.21518798067E+02  0.91578795121E+02  0.73287759823E+02 0.  0.
         -6    2    1    2    0  502 -0.15804159340E+02 -0.28472912557E+02 -0.12614815967E+03  0.21458565264E+03  0.17050855090E+03 0.  0.
        -24    2    5    5    0    0  0.51588232264E+02 -0.23199470327E+01 -0.59870813343E+02  0.11639966236E+03  0.85426221058E+02 0.  0.
          5    1    3    3  501    0  0.22787943663E+02  0.78510379143E+02  0.56094323458E+02  0.99256400972E+02  0.47000000000E+01 0. -1.
        -11    1    4    4    0    0  0.33112872064E+02 -0.23150027140E+02  0.58589533869E+01  0.40825401256E+02  0.00000000000E+00 0.  1.
         12    1    4    4    0    0 -0.40096656388E+02 -0.26887439445E+02  0.15659844680E+02  0.50753393865E+02  0.00000000000E+00 0. -1.
         -5    1    5    5    0  502 -0.67392391604E+02 -0.26152965524E+02 -0.66277346331E+02  0.98185990286E+02  0.47000000000E+01 0.  1.
         11    1    6    6    0    0  0.24172087738E+02  0.41500255536E+02 -0.26170839673E+02  0.54694367940E+02  0.00000000000E+00 0. -1.
        -12    1    6    6    0    0  0.27416144526E+02 -0.43820202569E+02 -0.33699973670E+02  0.61705294417E+02  0.00000000000E+00 0.  1.
</event>
<event>
12    1  0.1046899E+000  0.2504766E+03  0.7818608E-02  0.1113351E+00
         21   -1    0    0  503  502  0.00000000000E+00  0.00000000000E+00  0.88402707725E+02  0.88402707725E+02  0.00000000000E+00 0.  1.
         21   -1    0    0  501  503 -0.00000000000E+00 -0.00000000000E+00 -0.77073644562E+03  0.77073644562E+03  0.00000000000E+00 0.  1.
          6    2    1    2  501    0 -0.51985507509E+02 -0.17230872348E+03 -0.46667718759E+03  0.52861491755E+03  0.17103609109E+03 0.  0.
         24    2    3    3    0    0 -0.17856515928E+02 -0.17949496283E+03 -0.30763483722E+03  0.36572541723E+03  0.81108513072E+02 0.  0.
         -6    2    1    2    0  502  0.51985507509E+02  0.17230872348E+03 -0.21565655030E+03  0.33052423579E+03  0.17420026860E+03 0.  0.
        -24    2    5    5    0    0  0.77590411857E+02  0.13940857442E+03 -0.22551322023E+03  0.28742812370E+03  0.79395788067E+02 0.  0.
          5    1    3    3  501    0 -0.34128991580E+02  0.71862393484E+01 -0.15904235037E+03  0.16288950032E+03  0.47000000000E+01 0. -1.
        -13    1    4    4    0    0  0.29970881447E+02 -0.80980491903E+02 -0.11074723828E+03  0.14043163671E+03  0.00000000000E+00 0.  1.
         14    1    4    4    0    0 -0.47827397375E+02 -0.98514470928E+02 -0.19688759894E+03  0.22529378052E+03  0.00000000000E+00 0. -1.
         -5    1    5    5    0  502 -0.25604904348E+02  0.32900149063E+02  0.98566699340E+01  0.43096112089E+02  0.47000000000E+01 0.  1.
         11    1    6    6    0    0  0.48701727799E+02  0.62500761658E+02 -0.17202445021E+03  0.18939539320E+03  0.00000000000E+00 0. -1.
        -12    1    6    6    0    0  0.28888684058E+02  0.76907812761E+02 -0.53488770026E+02  0.98032730500E+02  0.00000000000E+00 0.  1.
</event>
<event>
12    1  0.1046899E+000  0.2004979E+03  0.7818608E-02  0.1150357E+00
         21   -1    0    0  501  502  0.00000000000E+00  0.00000000000E+00  0.30084693167E+03  0.30084693167E+03  0.00000000000E+00 0.  1.
         21   -1    0    0  502  503 -0.00000000000E+00 -0.00000000000E+00 -0.15320252385E+03  0.15320252385E+03  0.00000000000E+00 0.  1.
         -6    2    1    2    0  503 -0.10244901742E+03 -0.95379652074E+01  0.16063998904E+03  0.25313079637E+03  0.16638275163E+03 0.  0.
        -24    2    3    3    0    0 -0.99153600946E+02  0.44895122184E+02  0.13932313046E+03  0.19439137832E+03  0.80808815782E+02 0.  0.
          6    2    1    2  501    0  0.10244901742E+03  0.95379652074E+01 -0.12995581219E+02  0.20091865915E+03  0.17208326041E+03 0.  0.
         24    2    5    5    0    0 -0.78258914308E+01 -0.10179456635E+02  0.21499899105E+02  0.83609834209E+02  0.79771503690E+02 0.  0.
          5    1    5    5  501    0  0.11027490885E+03  0.19717421842E+02 -0.34495480324E+02  0.11730882494E+03  0.47000000000E+01 0. -1.
        -11    1    6    6    0    0 -0.10900019430E+02 -0.43555501303E+02  0.22435125182E+01  0.44954704601E+02  0.00000000000E+00 0.  1.
         12    1    6    6    0    0  0.30741279989E+01  0.33376044668E+02  0.19256386587E+02  0.38655129608E+02  0.00000000000E+00 0. -1.
         -5    1    3    3    0  503 -0.32954164777E+01 -0.54433087391E+02  0.21316858580E+02  0.58739418046E+02  0.47000000000E+01 0.  1.
         13    1    4    4    0    0 -0.96186764949E+02  0.19697014149E+02  0.13749708579E+03  0.16895358747E+03  0.00000000000E+00 0. -1.
        -14    1    4    4    0    0 -0.29668359970E+01  0.25198108035E+02  0.18260446709E+01  0.25437790854E+02  0.00000000000E+00 0.  1.
</event>
<event>
12    1  0.1046899E+000  0.1841665E+03  0.7818608E-02  0.1163949E+00
         21   -1    0    0  503  502  0.00000000000E+00  0.00000000000E+00  0.35943001657E+02  0.35943001657E+02  0.00000000000E+00 0.  1.
         21   -1    0    0  501  503 -0.00000000000E+00 -0.00000000000E+00 -0.12203518516E+04  0.12203518516E+04  0.00000000000E+00 0.  1.
          6    2    1    2  501    0 -0.67092156577E+02  0.10578915655E+02 -0.29108307968E+03  0.34418288465E+03  0.17064356970E+03 0.  0.
         24    2    3    3    0    0  0.17375005421E+02  0.17942743259E+02 -0.21291765011E+03  0.22876689012E+03  0.79853186779E+02 0.  0.
         -6    2    1    2    0  502  0.67092156577E+02 -0.10578915655E+02 -0.89332577029E+03  0.91211196863E+03  0.17118422980E+03 0.  0.
        -24    2    5    5    0    0  0.41672332117E+02  0.16411174036E+01 -0.87138980451E+03  0.87607347147E+03  0.80282373335E+02 0.  0.
          5    1    3    3  501    0 -0.84467161999E+02 -0.73638276040E+01 -0.78165429575E+02  0.11541599453E+03  0.47000000000E+01 0. -1.
        -11    1    4    4    0    0 -0.17341228508E+02 -0.71984339191E+01 -0.15795089246E+03  0.15906294379E+03  0.00000000000E+00 0.  1.
         12    1    4    4    0    0  0.34716233929E+02  0.25141177179E+02 -0.54966757645E+02  0.69703946332E+02  0.00000000000E+00 0. -1.
         -5    1    5    5    0  502  0.25419824460E+02 -0.12220033059E+02 -0.21935965775E+02  0.36038497166E+02  0.47000000000E+01 0.  1.
         13    1    6    6    0    0 -0.17448013249E+02  0.21771741658E+02 -0.24916214697E+03  0.25071939970E+03  0.00000000000E+00 0. -1.
        -14    1    6    6    0    0  0.59120345366E+02 -0.20130624255E+02 -0.62222765754E+03  0.62535407177E+03  0.00000000000E+00 0.  1.
</event>
<event>
12    1  0.1046899E+000  0.1961730E+03  0.7818608E-02  0.1153110E+00
         21   -1    0    0  501  502  0.00000000000E+00  0.00000000000E+00  0.17609640820E+03  0.17609640820E+03  0.00000000000E+00 0.  1.
         21   -1    0    0  502  503 -0.00000000000E+00 -0.00000000000E+00 -0.25002316271E+03  0.25002316271E+03  0.00000000000E+00 0.  1.
         -6    2    1    2    0  503 -0.90558771055E+02  0.26822181389E+02 -0.11323279226E+03  0.22650723650E+03  0.17194052027E+03 0.  0.
        -24    2    3    3    0    0 -0.11591495053E+03  0.44457411613E+02 -0.12508884187E+03  0.19309177459E+03  0.78895360131E+02 0.  0.
          6    2    1    2  501    0  0.90558771055E+02 -0.26822181389E+02  0.39306037757E+02  0.19961233442E+03  0.17140536461E+03 0.  0.
         24    2    5    5    0    0  0.64926814399E+02  0.31512100104E+01 -0.40949853182E+02  0.11006626011E+03  0.78817953449E+02 0.  0.
          5    1    5    5  501    0  0.25631956655E+02 -0.29973391400E+02  0.80255890939E+02  0.89546074310E+02  0.47000000000E+01 0. -1.
        -13    1    6    6    0    0 -0.24227561062E-01  0.46593526772E+01  0.20269753150E+02  0.20798390493E+02  0.00000000000E+00 0.  1.
         14    1    6    6    0    0  0.64951041960E+02 -0.15081426668E+01 -0.61219606332E+02  0.89267869614E+02  0.00000000000E+00 0. -1.
         -5    1    3    3    0  503  0.25356179471E+02 -0.17635230224E+02  0.11856049606E+02  0.33415461910E+02  0.47000000000E+01 0.  1.
         13    1    4    4    0    0 -0.66777788369E+02  0.63808876402E+02 -0.64155046916E+02  0.11245761767E+03  0.00000000000E+00 0. -1.
        -14    1    4    4    0    0 -0.49137162157E+02 -0.19351464789E+02 -0.60933794952E+02  0.80634156916E+02  0.00000000000E+00 0.  1.
</event>
<event>
12    1  0.1046899E+000  0.2020764E+03  0.7818608E-02  0.1148159E+00
         21   -1    0    0  503  502  0.00000000000E+00  0.00000000000E+00  0.32558071112E+04  0.32558071112E+04  0.00000000000E+00 0. -1.
         21   -1    0    0  501  503 -0.00000000000E+00 -0.00000000000E+00 -0.13137132275E+02  0.13137132275E+02  0.00000000000E+00 0. -1.
          6    2    1    2  501    0 -0.86831289597E+02  0.58229199780E+02  0.19857515360E+04  0.19960070265E+04  0.17292939200E+03 0.  0.
         24    2    3    3    0    0 -0.82575564616E+02  0.13547128913E+02  0.70172602266E+03  0.71118867065E+03  0.79797655456E+02 0.  0.
         -6    2    1    2    0  502  0.86831289597E+02 -0.58229199780E+02  0.12569184430E+04  0.12729372170E+04  0.17203160638E+03 0.  0.
        -24    2    5    5    0    0  0.25945942565E+02 -0.12751686350E+02  0.10320001002E+04  0.10354807355E+04  0.79751797830E+02 0.  0.
          5    1    3    3  501    0 -0.42557249805E+01  0.44682070867E+02  0.12840255133E+04  0.12848183558E+04  0.47000000000E+01 0. -1.
        -13    1    4    4    0    0 -0.66386478543E+02  0.21391482800E+02  0.67714742232E+03  0.68073004314E+03  0.00000000000E+00 0.  1.
         14    1    4    4    0    0 -0.16189086073E+02 -0.78443538869E+01  0.24578600336E+02  0.30458627518E+02  0.00000000000E+00 0. -1.
         -5    1    5    5    0  502  0.60885347032E+02 -0.45477513430E+02  0.22491834272E+03  0.23745648149E+03  0.47000000000E+01 0.  1.
         11    1    6    6    0    0 -0.27620517479E+02 -0.13788181259E+02  0.33117246817E+03  0.33260819383E+03  0.00000000000E+00 0. -1.
        -12    1    6    6    0    0  0.53566460044E+02  0.10364949085E+01  0.70082763207E+03  0.70287254167E+03  0.00000000000E+00 0.  1.
</event>
<event>
12    1  0.1046899E+000  0.1773061E+03  0.7818608E-02  0.1170547E+00
         21   -1    0    0  501  502  0.00000000000E+00  0.00000000000E+00  0.13464784439E+03  0.13464784439E+03  0.00000000000E+00 0.  1.
         21   -1    0    0  502  503 -0.00000000000E+00 -0.00000000000E+00 -0.38557344163E+03  0.38557344163E+03  0.00000000000E+00 0.  1.
         -6    2    1    2    0  503 -0.31766643498E+01 -0.42550114861E+02  0.38123846905E+02  0.18135847334E+03  0.17209551034E+03 0.  0.
        -24    2    3    3    0    0 -0.24566006516E+02 -0.82056627303E+02  0.56824049074E+02  0.13247027390E+03  0.83562085623E+02 0.  0.
          6    2    1    2  501    0  0.31766643498E+01  0.42550114861E+02 -0.28904944414E+03  0.33886281267E+03  0.17163280915E+03 0.  0.
         24    2    5    5    0    0  0.50482301202E+02 -0.20194227669E+02 -0.14757746776E+03  0.17696443127E+03  0.81123556247E+02 0.  0.
          5    1    5    5  501    0 -0.47305636852E+02  0.62744342530E+02 -0.14147197639E+03  0.16189838140E+03  0.47000000000E+01 0. -1.
        -11    1    6    6    0    0  0.21579509082E+02 -0.37513910090E+02 -0.25302185079E+02  0.50131519348E+02  0.00000000000E+00 0.  1.
         12    1    6    6    0    0  0.28902792121E+02  0.17319682421E+02 -0.12227528268E+03  0.12683291192E+03  0.00000000000E+00 0. -1.
         -5    1    3    3    0  503  0.21389342166E+02  0.39506512442E+02 -0.18700202168E+02  0.48888199443E+02  0.47000000000E+01 0.  1.
         11    1    4    4    0    0 -0.38722713994E+02 -0.30259715866E+02  0.61323482547E+02  0.78585421644E+02  0.00000000000E+00 0. -1.
        -12    1    4    4    0    0  0.14156707478E+02 -0.51796911438E+02 -0.44994334735E+01  0.53884852256E+02  0.00000000000E+00 0.  1.
</event>
<event>
12    1  0.1046899E+000  0.2263986E+03  0.7818608E-02  0.1129268E+00
         21   -1    0    0  501  502  0.00000000000E+00  0.00000000000E+00  0.16053516101E+03  0.16053516101E+03  0.00000000000E+00 0.  1.
         21   -1    0    0  502  503 -0.00000000000E+00 -0.00000000000E+00 -0.32957741273E+03  0.32957741273E+03  0.00000000000E+00 0.  1.
         -6    2    1    2    0  503 -0.14549744627E+03  0.17588882542E+02 -0.40038721280E+02  0.22953965489E+03  0.17206533151E+03 0.  0.
        -24    2    3    3    0    0 -0.14131111268E+03 -0.38231047078E+02 -0.45474564583E+02  0.17310359972E+03  0.80414405934E+02 0.  0.
          6    2    1    2  501    0  0.14549744627E+03 -0.17588882542E+02 -0.12900353044E+03  0.26057291885E+03  0.17256146589E+03 0.  0.
         24    2    5    5    0    0  0.94925950853E+02  0.55780620397E+02 -0.90223606005E+02  0.16327681076E+03  0.79978772768E+02 0.  0.
          5    1    5    5  501    0  0.50571495419E+02 -0.73369502939E+02 -0.38779924433E+02  0.97296108090E+02  0.47000000000E+01 0. -1.
        -11    1    6    6    0    0  0.10458486021E+03  0.52568458887E+02 -0.60305603266E+02  0.13167460515E+03  0.00000000000E+00 0.  1.
         12    1    6    6    0    0 -0.96589093588E+01  0.32121615099E+01 -0.29918002739E+02  0.31602205611E+02  0.00000000000E+00 0. -1.
         -5    1    3    3    0  503 -0.41863335879E+01  0.55819929620E+02  0.54358433031E+01  0.56436055179E+02  0.47000000000E+01 0.  1.
         11    1    4    4    0    0 -0.91274171470E+02  0.15741928376E+02 -0.16891503041E+02  0.94149378976E+02  0.00000000000E+00 0. -1.
        -12    1    4    4    0    0 -0.50036941214E+02 -0.53972975455E+02 -0.28583061543E+02  0.78954220740E+02  0.00000000000E+00 0.  1.
</event>
<event>
12    1  0.1046899E+000  0.1734796E+03  0.7818608E-02  0.1174398E+00
         21   -1    0    0  503  502  0.00000000000E+00  0.00000000000E+00  0.89501726743E+02  0.89501726743E+02  0.00000000000E+00 0. -1.
         21   -1    0    0  501  503 -0.00000000000E+00 -0.00000000000E+00 -0.12983897216E+04  0.12983897216E+04  0.00000000000E+00 0. -1.
          6    2    1    2  501    0  0.19300186752E+02  0.13625411643E+00 -0.69994702795E+01  0.17362076213E+03  0.17240261218E+03 0.  0.
         24    2    3    3    0    0 -0.45143438020E+02 -0.37359091876E+02 -0.12233027027E+02  0.98731765205E+02  0.78515493810E+02 0.  0.
         -6    2    1    2    0  502 -0.19300186752E+02 -0.13625411643E+00 -0.12018885246E+04  0.12142706862E+04  0.17188588686E+03 0.  0.
        -24    2    5    5    0    0 -0.75792522657E+02 -0.77105783621E+01 -0.92041644020E+03  0.92704711704E+03  0.80286825246E+02 0.  0.
          5    1    3    3  501    0  0.64443624772E+02  0.37495345992E+02  0.52335567470E+01  0.74888996929E+02  0.47000000000E+01 0. -1.
        -13    1    4    4    0    0  0.19460990279E+02  0.15755865149E+00 -0.14047956735E+02  0.24002084405E+02  0.00000000000E+00 0.  1.
         14    1    4    4    0    0 -0.64604428299E+02 -0.37516650527E+02  0.18149297086E+01  0.74729680800E+02  0.00000000000E+00 0. -1.
         -5    1    5    5    0  502  0.56492335905E+02  0.75743242457E+01 -0.28147208439E+03  0.28722356919E+03  0.47000000000E+01 0.  1.
         11    1    6    6    0    0 -0.82203436422E+02  0.16674420189E+02 -0.76698252096E+03  0.77155533094E+03  0.00000000000E+00 0. -1.
        -12    1    6    6    0    0  0.64109137644E+01 -0.24384998551E+02 -0.15343391924E+03  0.15549178610E+03  0.00000000000E+00 0.  1.
</event>
<event>
12    1  0.1046899E+000  0.3493320E+03  0.7818608E-02  0.1063092E+00
         21   -1    0    0  501  502  0.00000000000E+00  0.00000000000E+00  0.59499272510E+03  0.59499272510E+03  0.00000000000E+00 0. -1.
         21   -1    0    0  502  503 -0.00000000000E+00 -0.00000000000E+00 -0.20614276602E+03  0.20614276602E+03  0.00000000000E+00 0.  1.
         -6    2    1    2    0  503  0.90465941445E+02 -0.28760819415E+03  0.23630655102E+03  0.42175065788E+03  0.17643772688E+03 0.  0.
        -24    2    3    3    0    0  0.34858521517E+02 -0.27857746412E+03  0.17201458613E+03  0.33613940871E+03  0.67676910428E+02 0.  0.
          6    2    1    2  501    0 -0.90465941445E+02  0.28760819415E+03  0.15254340807E+03  0.37938483324E+03  0.17251318918E+03 0.  0.
         24    2    5    5    0    0 -0.58159157050E+02  0.12549399794E+03  0.15082970312E+03  0.21400718144E+03  0.62595872825E+02 0.  0.
          5    1    5    5  501    0 -0.32306784395E+02  0.16211419621E+03  0.17137049466E+01  0.16537765180E+03  0.47000000000E+01 0. -1.
        -13    1    6    6    0    0  0.19622107853E+01  0.14314486199E+02  0.50814586637E+02  0.52828751655E+02  0.00000000000E+00 0.  1.
         14    1    6    6    0    0 -0.60121367835E+02  0.11117951174E+03  0.10001511649E+03  0.16117842978E+03  0.00000000000E+00 0. -1.
         -5    1    3    3    0  503  0.55607419928E+02 -0.90307300274E+01  0.64291964888E+02  0.85611249174E+02  0.47000000000E+01 0.  1.
         11    1    4    4    0    0  0.10929521244E+02 -0.14216650385E+03  0.12577064130E+03  0.19012896535E+03  0.00000000000E+00 0. -1.
        -12    1    4    4    0    0  0.23929000272E+02 -0.13641096027E+03  0.46243944834E+02  0.14601044336E+03  0.00000000000E+00 0.  1.
</event>
<event>
12    1  0.1046899E+000  0.1821793E+03  0.7818608E-02  0.1167162E+00
         21   -1    0    0  503  502  0.00000000000E+00  0.00000000000E+00  0.34303074636E+03  0.34303074636E+03  0.00000000000E+00 0. -1.
         21   -1    0    0  501  503 -0.00000000000E+00 -0.00000000000E+00 -0.10439955244E+03  0.10439955244E+03  0.00000000000E+00 0. -1.
          6    2    1    2  501    0  0.47427767799E+02  0.74674383747E+01  0.18947288504E+03  0.25873517772E+03  0.16952510797E+03 0.  0.
         24    2    3    3    0    0  0.33747854042E+02  0.63016072474E+02  0.16462888560E+03  0.19618835447E+03  0.79229144982E+02 0.  0.
         -6    2    1    2    0  502 -0.47427767799E+02 -0.74674383747E+01  0.49158308877E+02  0.18869512107E+03  0.17573887900E+03 0.  0.
        -24    2    5    5    0    0  0.37022863026E+02  0.26166502618E+02  0.12183460210E+02  0.90448592038E+02  0.77311919217E+02 0.  0.
          5    1    3    3  501    0  0.13679913757E+02 -0.55548634099E+02  0.24843999436E+02  0.62546823250E+02  0.47000000000E+01 0. -1.
        -13    1    4    4    0    0  0.14963453600E+02 -0.12538296041E+02  0.74850930037E+02  0.77354867582E+02  0.00000000000E+00 0.  1.
         14    1    4    4    0    0  0.18784400442E+02  0.75554368515E+02  0.89777955564E+02  0.11883348689E+03  0.00000000000E+00 0. -1.
         -5    1    5    5    0  502 -0.84450630825E+02 -0.33633940993E+02  0.36974848667E+02  0.98246529035E+02  0.47000000000E+01 0.  1.
         13    1    6    6    0    0  0.23082610416E+02 -0.30659582306E+01  0.40965618089E+02  0.47121002418E+02  0.00000000000E+00 0. -1.
        -14    1    6    6    0    0  0.13940252611E+02  0.29232460849E+02 -0.28782157879E+02  0.43327589620E+02  0.00000000000E+00 0.  1.
</event>
<event>
12    1  0.1046899E+000  0.1968185E+03  0.7818608E-02  0.1152650E+00
         21   -1    0    0  503  502  0.00000000000E+00  0.00000000000E+00  0.56896580997E+02  0.56896580997E+02  0.00000000000E+00 0.  1.
         21   -1    0    0  501  503 -0.00000000000E+00 -0.00000000000E+00 -0.69558340970E+03  0.69558340970E+03  0.00000000000E+00 0.  1.
          6    2    1    2  501    0  0.10350797990E+01 -0.92552803518E+02 -0.25967810171E+03  0.32583777642E+03  0.17369642255E+03 0.  0.
         24    2    3    3    0    0 -0.63842222049E+02 -0.81614822477E+02 -0.18094283099E+03  0.22312440543E+03  0.79419038328E+02 0.  0.
         -6    2    1    2    0  502 -0.10350797990E+01  0.92552803518E+02 -0.37900872699E+03  0.42664221428E+03  0.17265245737E+03 0.  0.
        -24    2    5    5    0    0 -0.37327755778E+02  0.79320590240E+02 -0.36814222026E+03  0.38623898709E+03  0.77244698390E+02 0.  0.
          5    1    3    3  501    0  0.64877301848E+02 -0.10937981042E+02 -0.78735270718E+02  0.10271337099E+03  0.47000000000E+01 0. -1.
        -13    1    4    4    0    0 -0.17812968738E+02  0.14404640179E+02 -0.44486391704E+02  0.50038330915E+02  0.00000000000E+00 0.  1.
         14    1    4    4    0    0 -0.46029253312E+02 -0.96019462656E+02 -0.13645643928E+03  0.17308607452E+03  0.00000000000E+00 0. -1.
         -5    1    5    5    0  502  0.36292675979E+02  0.13232213279E+02 -0.10866506736E+02  0.40403227181E+02  0.47000000000E+01 0.  1.
         11    1    6    6    0    0  0.83732737455E+01 -0.30297573607E+01 -0.12768666155E+03  0.12799677606E+03  0.00000000000E+00 0. -1.
        -12    1    6    6    0    0 -0.45701029524E+02  0.82350347601E+02 -0.24045555870E+03  0.25824221104E+03  0.00000000000E+00 0.  1.
</event>
<event>
12    1  0.1046899E+000  0.2133443E+03  0.7818608E-02  0.1139349E+00
         21   -1    0    0  501  502  0.00000000000E+00  0.00000000000E+00  0.41925043148E+03  0.41925043148E+03  0.00000000000E+00 0. -1.
         21   -1    0    0  502  503 -0.00000000000E+00 -0.00000000000E+00 -0.13285486081E+03  0.13285486081E+03  0.00000000000E+00 0. -1.
         -6    2    1    2    0  503  0.56622884133E+02 -0.11159816903E+03  0.26433070674E+03  0.33968590509E+03  0.17278741056E+03 0.  0.
        -24    2    3    3    0    0  0.19573366725E+01 -0.32764084062E+00  0.15355759535E+03  0.17336625883E+03  0.80448655029E+02 0.  0.
          6    2    1    2  501    0 -0.56622884133E+02  0.11159816903E+03  0.22064863930E+02  0.21241938721E+03  0.17021996212E+03 0.  0.
         24    2    5    5    0    0 -0.61651584203E+02  0.78016769407E+02 -0.48538248495E+02  0.13393443509E+03  0.75464807643E+02 0.  0.
          5    1    5    5  501    0  0.50287000702E+01  0.33581399621E+02  0.70603112425E+02  0.78484952118E+02  0.47000000000E+01 0. -1.
        -13    1    6    6    0    0 -0.42167006478E+01 -0.14534178832E+02 -0.12393943668E+01  0.15184169950E+02  0.00000000000E+00 0.  1.
         14    1    6    6    0    0 -0.57434883555E+02  0.92550948239E+02 -0.47298854128E+02  0.11875026514E+03  0.00000000000E+00 0. -1.
         -5    1    3    3    0  503  0.54665547460E+02 -0.11127052819E+03  0.11077311139E+03  0.16631964625E+03  0.47000000000E+01 0.  1.
         11    1    4    4    0    0  0.22376611228E+02 -0.28318404584E+02  0.36671886271E+02  0.51453590846E+02  0.00000000000E+00 0. -1.
        -12    1    4    4    0    0 -0.20419274556E+02  0.27990763744E+02  0.11688570908E+03  0.12191266799E+03  0.00000000000E+00 0.  1.
</event>
<event>
12    1  0.1046899E+000  0.2499568E+03  0.7818608E-02  0.1113620E+00
         21   -1    0    0  503  502  0.00000000000E+00  0.00000000000E+00  0.60148321073E+03  0.60148321073E+03  0.00000000000E+00 0. -1.
         21   -1    0    0  501  503 -0.00000000000E+00 -0.00000000000E+00 -0.10594057180E+03  0.10594057180E+03  0.00000000000E+00 0. -1.
          6    2    1    2  501    0 -0.66483482287E+01  0.18236611552E+03  0.30459874460E+03  0.39287969685E+03  0.16814416540E+03 0.  0.
         24    2    3    3    0    0 -0.51088601855E+02  0.86212738543E+02  0.10205974976E+03  0.16426529993E+03  0.80772611153E+02 0.  0.
         -6    2    1    2    0  502  0.66483482287E+01 -0.18236611552E+03  0.19094389433E+03  0.31454408568E+03  0.17081220809E+03 0.  0.
        -24    2    5    5    0    0 -0.18488999027E+02 -0.10441504826E+03  0.19083751396E+03  0.23250533611E+03  0.79971427379E+02 0.  0.
          5    1    3    3  501    0  0.44440253626E+02  0.96153376974E+02  0.20253899485E+03  0.22861439692E+03  0.47000000000E+01 0. -1.
        -11    1    4    4    0    0 -0.50293078078E+02  0.89396586215E+01  0.34714019053E+02  0.61760621092E+02  0.00000000000E+00 0.  1.
         12    1    4    4    0    0 -0.79552377643E+00  0.77273079922E+02  0.67345730705E+02  0.10250467883E+03  0.00000000000E+00 0. -1.
         -5    1    5    5    0  502  0.25137347256E+02 -0.77951067259E+02  0.10638036300E+00  0.82038749568E+02  0.47000000000E+01 0.  1.
         11    1    6    6    0    0  0.25226775464E+02 -0.10740560396E+02  0.58266079767E+02  0.64394766009E+02  0.00000000000E+00 0. -1.
        -12    1    6    6    0    0 -0.43715774491E+02 -0.93674487862E+02  0.13257143420E+03  0.16811057010E+03  0.00000000000E+00 0.  1.
</event>
<event>
12    1  0.1046899E+000  0.1957013E+03  0.7818608E-02  0.1154304E+00
         21   -1    0    0  501  502  0.00000000000E+00  0.00000000000E+00  0.21996866856E+03  0.21996866856E+03  0.00000000000E+00 0.  1.
         21   -1    0    0  502  503 -0.00000000000E+00 -0.00000000000E+00 -0.19019208639E+03  0.19019208639E+03  0.00000000000E+00 0.  1.
         -6    2    1    2    0  503 -0.92837699258E+02  0.21534432166E+02  0.80679366987E+02  0.20794773890E+03  0.16628449021E+03 0.  0.
        -24    2    3    3    0    0 -0.12165873715E+03  0.44581652096E+02  0.76260054739E+02  0.17048513231E+03  0.80381666824E+02 0.  0.
          6    2    1    2  501    0  0.92837699258E+02 -0.21534432166E+02 -0.50902784812E+02  0.20221301606E+03  0.17092817260E+03 0.  0.
         24    2    5    5    0    0  0.11324553917E+03 -0.24949250792E+02 -0.83141253132E+02  0.16361833046E+03  0.80071673107E+02 0.  0.
          5    1    5    5  501    0 -0.20407839915E+02  0.34148186264E+01  0.32238468320E+02  0.38594685591E+02  0.47000000000E+01 0. -1.
        -11    1    6    6    0    0 -0.11284643458E+02  0.39118128304E+01 -0.13586268762E+02  0.18089559322E+02  0.00000000000E+00 0.  1.
         12    1    6    6    0    0  0.12453018263E+03 -0.28861063622E+02 -0.69554984371E+02  0.14552877114E+03  0.00000000000E+00 0. -1.
         -5    1    3    3    0  503  0.28821037892E+02 -0.23047219931E+02  0.44193122483E+01  0.37462606589E+02  0.47000000000E+01 0.  1.
         11    1    4    4    0    0 -0.33108230485E+02 -0.23157051472E+02  0.27029806676E+02  0.48610846605E+02  0.00000000000E+00 0. -1.
        -12    1    4    4    0    0 -0.88550506666E+02  0.67738703568E+02  0.49230248063E+02  0.12187428571E+03  0.00000000000E+00 0.  1.
</event>
<event>
12    1  0.1046899E+000  0.2666971E+03  0.7818608E-02  0.1103446E+00
         21   -1    0    0  503  502  0.00000000000E+00  0.00000000000E+00  0.89405432096E+02  0.89405432096E+02  0.00000000000E+00 0. -1.
         21   -1    0    0  501  503 -0.00000000000E+00 -0.00000000000E+00 -0.80463302644E+03  0.80463302644E+03  0.00000000000E+00 0. -1.
          6    2    1    2  501    0 -0.18364697897E+03  0.86461216712E+02 -0.41624644176E+03  0.49339266971E+03  0.17021595510E+03 0.  0.
         24    2    3    3    0    0 -0.11347304314E+03  0.12201936061E+03 -0.30754760927E+03  0.35913065330E+03  0.81390652331E+02 0.  0.
         -6    2    1    2    0  502  0.18364697897E+03 -0.86461216712E+02 -0.29898115259E+03  0.40064578883E+03  0.17299006799E+03 0.  0.
        -24    2    5    5    0    0  0.28450037828E+02 -0.68107537621E+02 -0.14664974784E+03  0.18235722993E+03  0.79372346762E+02 0.  0.
          5    1    3    3  501    0 -0.70173935828E+02 -0.35558143900E+02 -0.10869883249E+03  0.13426201642E+03  0.47000000000E+01 0. -1.
        -11    1    4    4    0    0 -0.75474490502E+02  0.88170382868E+02 -0.27560900619E+03  0.29904972734E+03  0.00000000000E+00 0.  1.
         12    1    4    4    0    0 -0.37998552638E+02  0.33848977745E+02 -0.31938603084E+02  0.60080925958E+02  0.00000000000E+00 0. -1.
         -5    1    5    5    0  502  0.15519694114E+03 -0.18353679091E+02 -0.15233140474E+03  0.21828855890E+03  0.47000000000E+01 0.  1.
         13    1    6    6    0    0  0.65305549861E+01  0.88600857709E+01 -0.72263770805E+02  0.73097208149E+02  0.00000000000E+00 0. -1.
        -14    1    6    6    0    0  0.21919482842E+02 -0.76967623392E+02 -0.74385977039E+02  0.10926002178E+03  0.00000000000E+00 0.  1.
</event>
<event>
12    1  0.1046899E+000  0.2365048E+03  0.7818608E-02  0.1122167E+00
         21   -1    0    0  503  502  0.00000000000E+00  0.00000000000E+00  0.16131731574E+03  0.16131731574E+03  0.00000000000E+00 0. -1.
         21   -1    0    0  501  503 -0.00000000000E+00 -0.00000000000E+00 -0.34994579768E+03  0.34994579768E+03  0.00000000000E+00 0. -1.
          6    2    1    2  501    0  0.51970074607E+02 -0.15356887847E+03 -0.11954677657E+03  0.26487556385E+03  0.17199809141E+03 0.  0.
         24    2    3    3    0    0  0.99342375983E+02 -0.13330886378E+03 -0.92181410678E+02  0.20634731099E+03  0.80259824620E+02 0.  0.
         -6    2    1    2    0  502 -0.51970074607E+02  0.15356887847E+03 -0.69081705362E+02  0.24638754957E+03  0.17219248962E+03 0.  0.
        -24    2    5    5    0    0 -0.10115026779E+03  0.12271686353E+03 -0.47804265196E+02  0.18437660145E+03  0.80116653223E+02 0.  0.
          5    1    3    3  501    0 -0.47372301376E+02 -0.20260014686E+02 -0.27365365895E+02  0.58528252864E+02  0.47000000000E+01 0. -1.
        -11    1    4    4    0    0  0.25506574831E+02 -0.81974951760E+02 -0.13596116380E+02  0.86921415407E+02  0.00000000000E+00 0.  1.
         12    1    4    4    0    0  0.73835801152E+02 -0.51333912022E+02 -0.78585294298E+02  0.11942589558E+03  0.00000000000E+00 0. -1.
         -5    1    5    5    0  502  0.49180193180E+02  0.30852014935E+02 -0.21277440166E+02  0.62010948120E+02  0.47000000000E+01 0.  1.
         13    1    6    6    0    0 -0.71375464674E+02  0.63661658215E+02  0.10491553601E+02  0.96215052778E+02  0.00000000000E+00 0. -1.
        -14    1    6    6    0    0 -0.29774803113E+02  0.59055205318E+02 -0.58295818797E+02  0.88161548675E+02  0.00000000000E+00 0.  1.
</event>
<event>
12    1  0.1046899E+000  0.3251774E+03  0.7818608E-02  0.1073329E+00
         21   -1    0    0  501  502  0.00000000000E+00  0.00000000000E+00  0.98295061815E+02  0.98295061815E+02  0.00000000000E+00 0. -1.
         21   -1    0    0  502  503 -0.00000000000E+00 -0.00000000000E+00 -0.11144613288E+04  0.11144613288E+04  0.00000000000E+00 0. -1.
         -6    2    1    2    0  503  0.23674228758E+03  0.14128223360E+03 -0.62298891991E+03  0.70274857579E+03  0.17243197552E+03 0.  0.
        -24    2    3    3    0    0  0.15991444839E+03  0.21315603350E+02 -0.29464360577E+03  0.34479991387E+03  0.77750501194E+02 0.  0.
          6    2    1    2  501    0 -0.23674228758E+03 -0.14128223360E+03 -0.39317734707E+03  0.51000781482E+03  0.17179046734E+03 0.  0.
         24    2    5    5    0    0 -0.21310242975E+03 -0.14544635730E+03 -0.26127852622E+03  0.37586024031E+03  0.80231936093E+02 0.  0.
          5    1    5    5  501    0 -0.23639857828E+02  0.41641236953E+01 -0.13189882085E+03  0.13414757451E+03  0.47000000000E+01 0. -1.
        -13    1    6    6    0    0 -0.11012306697E+03 -0.27280758978E+02 -0.10954484494E+03  0.15770669847E+03  0.00000000000E+00 0.  1.
         14    1    6    6    0    0 -0.10297936278E+03 -0.11816559832E+03 -0.15173368128E+03  0.21815354185E+03  0.00000000000E+00 0. -1.
         -5    1    3    3    0  503  0.76827839191E+02  0.11996663025E+03 -0.32834531414E+03  0.35794866191E+03  0.47000000000E+01 0.  1.
         13    1    4    4    0    0  0.46491415358E+02  0.19961148129E+02 -0.16477955929E+03  0.17237227822E+03  0.00000000000E+00 0. -1.
        -14    1    4    4    0    0  0.11342303303E+03  0.13544552212E+01 -0.12986404648E+03  0.17242763566E+03  0.00000000000E+00 0.  1.
</event>
<event>
12    1  0.1046899E+000  0.1834155E+03  0.7818608E-02  0.1164762E+00
         21   -1    0    0  503  502  0.00000000000E+00  0.00000000000E+00  0.73943247669E+03  0.73943247669E+03  0.00000000000E+00 0. -1.
         21   -1    0    0  501  503 -0.00000000000E+00 -0.00000000000E+00 -0.54764982228E+02  0.54764982228E+02  0.00000000000E+00 0. -1.
          6    2    1    2  501    0 -0.39711772871E+02  0.47962212293E+02  0.50702397346E+03  0.53885753027E+03  0.17151305945E+03 0.  0.
         24    2    3    3    0    0  0.21444272543E+02  0.74144891528E+02  0.24895651528E+03  0.27231204156E+03  0.78849094581E+02 0.  0.
         -6    2    1    2    0  502  0.39711772871E+02 -0.47962212293E+02  0.17764352101E+03  0.25533992864E+03  0.17252205625E+03 0.  0.
        -24    2    5    5    0    0 -0.12273517334E+02  0.25175558163E+02  0.12799752409E+03  0.15268312724E+03  0.78385733480E+02 0.  0.
          5    1    3    3  501    0 -0.61156045414E+02 -0.26182679234E+02  0.25806745818E+03  0.26654548871E+03  0.47000000000E+01 0. -1.
        -13    1    4    4    0    0  0.40166713202E+02  0.72747746535E+02  0.23397106087E+03  0.24829026723E+03  0.00000000000E+00 0.  1.
         14    1    4    4    0    0 -0.18722440660E+02  0.13971449926E+01  0.14985454408E+02  0.24021774335E+02  0.00000000000E+00 0. -1.
         -5    1    5    5    0  502  0.51985290205E+02 -0.73137770456E+02  0.49645996916E+02  0.10265680141E+03  0.47000000000E+01 0.  1.
         11    1    6    6    0    0  0.24904806462E+02  0.36464759485E+02  0.62445886911E+02  0.76481480512E+02  0.00000000000E+00 0. -1.
        -12    1    6    6    0    0 -0.37178323796E+02 -0.11289201323E+02  0.65551637182E+02  0.76201646727E+02  0.00000000000E+00 0.  1.
</event>
<event>
12    1  0.1046899E+000  0.4004209E+03  0.7818608E-02  0.1043669E+00
         21   -1    0    0  503  502  0.00000000000E+00  0.00000000000E+00  0.26966223810E+03  0.26966223810E+03  0.00000000000E+00 0.  1.
         21   -1    0    0  501  503 -0.00000000000E+00 -0.00000000000E+00 -0.13478733418E+04  0.13478733418E+04  0.00000000000E+00 0. -1.
          6    2    1    2  501    0 -0.36139338401E+03  0.54611606014E+01 -0.11438423017E+04  0.12117716581E+04  0.17140693662E+03 0.  0.
         24    2    3    3    0    0 -0.24872184622E+03  0.28450995222E+02 -0.57930415799E+03  0.63562166579E+03  0.75825976069E+02 0.  0.
         -6    2    1    2    0  502  0.36139338401E+03 -0.54611606014E+01  0.65631197941E+02  0.40576392187E+03  0.17234240300E+03 0.  0.
        -24    2    5    5    0    0  0.28806326927E+03  0.34647538017E+02  0.96583136477E+02  0.31651076545E+03  0.81669231670E+02 0.  0.
          5    1    3    3  501    0 -0.11267153778E+03 -0.22989834621E+02 -0.56453814367E+03  0.57614999226E+03  0.47000000000E+01 0. -1.
        -13    1    4    4    0    0 -0.18013918989E+03  0.15111318928E+02 -0.48968016149E+03  0.52198193480E+03  0.00000000000E+00 0.  1.
         14    1    4    4    0    0 -0.68582656334E+02  0.13339676294E+02 -0.89623996493E+02  0.11363973100E+03  0.00000000000E+00 0. -1.
         -5    1    5    5    0  502  0.73330114739E+02 -0.40108698618E+02 -0.30951938536E+02  0.89253156424E+02  0.47000000000E+01 0.  1.
         11    1    6    6    0    0  0.99632187579E+02 -0.21353755063E+02  0.12325746244E+02  0.10263761337E+03  0.00000000000E+00 0. -1.
        -12    1    6    6    0    0  0.18843108169E+03  0.56001293079E+02  0.84257390233E+02  0.21387315208E+03  0.00000000000E+00 0.  1.
</event>
<event>
12    1  0.1046899E+000  0.2893408E+03  0.7818608E-02  0.1090755E+00
         21   -1    0    0  501  502  0.00000000000E+00  0.00000000000E+00  0.38822156233E+03  0.38822156233E+03  0.00000000000E+00 0. -1.
         21   -1    0    0  502  503 -0.00000000000E+00 -0.00000000000E+00 -0.22025313903E+03  0.22025313903E+03  0.00000000000E+00 0. -1.
         -6    2    1    2    0  503 -0.14992165512E+03 -0.17763275405E+03  0.12956453295E+03  0.31659638113E+03  0.17151210558E+03 0.  0.
        -24    2    3    3    0    0 -0.12245533711E+03 -0.20346613636E+03  0.11268343396E+03  0.27501725452E+03  0.80889775400E+02 0.  0.
          6    2    1    2  501    0  0.14992165512E+03  0.17763275405E+03  0.38403890342E+02  0.29187832023E+03  0.17230263214E+03 0.  0.
         24    2    5    5    0    0  0.96098566024E+01  0.72559786641E+02  0.48185325177E+02  0.11624946226E+03  0.76386123957E+02 0.  0.
          5    1    5    5  501    0  0.14031179852E+03  0.10507296741E+03 -0.97814348343E+01  0.17562885797E+03  0.47000000000E+01 0. -1.
        -11    1    6    6    0    0  0.33430697549E+02  0.52568395102E+02  0.56452822649E+02  0.84071213190E+02  0.00000000000E+00 0.  1.
         12    1    6    6    0    0 -0.23820840947E+02  0.19991391539E+02 -0.82674974722E+01  0.32178249075E+02  0.00000000000E+00 0. -1.
         -5    1    3    3    0  503 -0.27466318013E+02  0.25833382305E+02  0.16881098992E+02  0.41579126610E+02  0.47000000000E+01 0.  1.
         11    1    4    4    0    0 -0.19234804790E+02 -0.10181399179E+03  0.65827694392E+02  0.12275728895E+03  0.00000000000E+00 0. -1.
        -12    1    4    4    0    0 -0.10322053232E+03 -0.10165214456E+03  0.46855739570E+02  0.15225996557E+03  0.00000000000E+00 0.  1.
</event>
<event>
12    1  0.1046899E+000  0.1979394E+03  0.7818608E-02  0.1151590E+00
         21   -1    0    0  501  502  0.00000000000E+00  0.00000000000E+00  0.43938231142E+02  0.43938231142E+02  0.00000000000E+00 0. -1.
         21   -1    0    0  502  503 -0.00000000000E+00 -0.00000000000E+00 -0.93719226484E+03  0.93719226484E+03  0.00000000000E+00 0. -1.
         -6    2    1    2    0  503  0.44486848954E+02  0.86914443289E+02 -0.33656808249E+03  0.39045880474E+03  0.17218247260E+03 0.  0.
        -24    2    3    3    0    0  0.24753768583E+02  0.38915597787E+01 -0.26823433430E+03  0.28103401418E+03  0.80016034240E+02 0.  0.
          6    2    1    2  501    0 -0.44486848954E+02 -0.86914443289E+02 -0.55668595121E+03  0.59067169124E+03  0.17164089947E+03 0.  0.
         24    2    5    5    0    0 -0.16990562323E+02 -0.14911689114E+02 -0.45937006549E+03  0.46644241127E+03  0.77695741738E+02 0.  0.
          5    1    5    5  501    0 -0.27496286631E+02 -0.72002754175E+02 -0.97315885721E+02  0.12422927997E+03  0.47000000000E+01 0. -1.
        -11    1    6    6    0    0 -0.46683905632E+02 -0.16329169300E+02 -0.33105167892E+03  0.33472562336E+03  0.00000000000E+00 0.  1.
         12    1    6    6    0    0  0.29693343309E+02  0.14174801861E+01 -0.12831838657E+03  0.13171678791E+03  0.00000000000E+00 0. -1.
         -5    1    3    3    0  503  0.19733080371E+02  0.83022883510E+02 -0.68333748187E+02  0.10942479056E+03  0.47000000000E+01 0.  1.
         11    1    4    4    0    0 -0.14123844423E+02 -0.28496281027E+01 -0.56099798781E+01  0.15462057943E+02  0.00000000000E+00 0. -1.
        -12    1    4    4    0    0  0.38877613006E+02  0.67411878814E+01 -0.26262435442E+03  0.26557195624E+03  0.00000000000E+00 0.  1.
</event>
<event>
12    1  0.1046899E+000  0.1834164E+03  0.7818608E-02  0.1165247E+00
         21   -1    0    0  503  502  0.00000000000E+00  0.00000000000E+00  0.17592028275E+03  0.17592028275E+03  0.00000000000E+00 0. -1.
         21   -1    0    0  501  503 -0.00000000000E+00 -0.00000000000E+00 -0.18898009715E+03  0.18898009715E+03  0.00000000000E+00 0. -1.
          6    2    1    2  501    0  0.34673263959E+02  0.41029905159E+02 -0.18668734765E+02  0.18139820306E+03  0.17225300597E+03 0.  0.
         24    2    3    3    0    0 -0.39681340051E+02  0.53679545016E+02 -0.14679771603E+01  0.10389609607E+03  0.79599883921E+02 0.  0.
         -6    2    1    2    0  502 -0.34673263959E+02 -0.41029905159E+02  0.56089203580E+01  0.18350217684E+03  0.17537360282E+03 0.  0.
        -24    2    5    5    0    0  0.15037984107E+02  0.22265754360E+02 -0.37532107326E+02  0.92064837811E+02  0.79657833875E+02 0.  0.
          5    1    3    3  501    0  0.74354604010E+02 -0.12649639857E+02 -0.17200757604E+02  0.77502106992E+02  0.47000000000E+01 0. -1.
        -13    1    4    4    0    0 -0.38222712900E+02  0.24489347948E+02  0.34885299890E+02  0.57251096870E+02  0.00000000000E+00 0.  1.
         14    1    4    4    0    0 -0.14586271512E+01  0.29190197068E+02 -0.36353277051E+02  0.46644999200E+02  0.00000000000E+00 0. -1.
         -5    1    5    5    0  502 -0.49711248066E+02 -0.63295659519E+02  0.43141027684E+02  0.91437339025E+02  0.47000000000E+01 0.  1.
         11    1    6    6    0    0 -0.59963303391E+01  0.39640041288E+02  0.61530725574E+01  0.40560438272E+02  0.00000000000E+00 0. -1.
        -12    1    6    6    0    0  0.21034314446E+02 -0.17374286928E+02 -0.43685179884E+02  0.51504399540E+02  0.00000000000E+00 0.  1.
</event>
<event>
12    1  0.1046899E+000  0.1960560E+03  0.7818608E-02  0.1153487E+00
         21   -1    0    0  503  502  0.00000000000E+00  0.00000000000E+00  0.13759759709E+03  0.13759759709E+03  0.00000000000E+00 0.  1.
         21   -1    0    0  501  503 -0.00000000000E+00 -0.00000000000E+00 -0.47699914139E+03  0.47699914139E+03  0.00000000000E+00 0.  1.
          6    2    1    2  501    0  0.50820873132E+02 -0.74103861708E+02  0.28900545907E+02  0.19817467417E+03  0.17425216343E+03 0.  0.
         24    2    3    3    0    0 -0.28813286139E+02  0.42748780585E+00  0.54037591744E+01  0.86502339321E+02  0.81382220975E+02 0.  0.
         -6    2    1    2    0  502 -0.50820873132E+02  0.74103861708E+02 -0.36830209021E+03  0.41642206431E+03  0.17229846930E+03 0.  0.
        -24    2    5    5    0    0 -0.34368030814E+02 -0.57642498772E+01 -0.29146296311E+03  0.30427950895E+03  0.80130971447E+02 0.  0.
          5    1    3    3  501    0  0.79634159271E+02 -0.74531349514E+02  0.23496786733E+02  0.11167233485E+03  0.47000000000E+01 0. -1.
        -13    1    4    4    0    0 -0.17385496787E+02  0.26278780979E+02 -0.28413769802E+02  0.42428435543E+02  0.00000000000E+00 0.  1.
         14    1    4    4    0    0 -0.11427789352E+02 -0.25851293173E+02  0.33817528976E+02  0.44073903778E+02  0.00000000000E+00 0. -1.
         -5    1    5    5    0  502 -0.16452842318E+02  0.79868111586E+02 -0.76839127106E+02  0.11214255536E+03  0.47000000000E+01 0.  1.
         11    1    6    6    0    0  0.49158530529E+01  0.17084546069E+02 -0.12728622398E+02  0.21864701090E+02  0.00000000000E+00 0. -1.
        -12    1    6    6    0    0 -0.39283883867E+02 -0.22848795946E+02 -0.27873434071E+03  0.28241480786E+03  0.00000000000E+00 0.  1.
</event>
<event>
12    1  0.1046899E+000  0.4042277E+03  0.7818608E-02  0.1042329E+00
         21   -1    0    0  503  502  0.00000000000E+00  0.00000000000E+00  0.65330985074E+03  0.65330985074E+03  0.00000000000E+00 0.  1.
         21   -1    0    0  501  503 -0.00000000000E+00 -0.00000000000E+00 -0.27804985812E+03  0.27804985812E+03  0.00000000000E+00 0.  1.
          6    2    1    2  501    0 -0.27651965662E+03  0.23905853608E+03  0.33529550519E+03  0.52516124825E+03  0.17250842499E+03 0.  0.
         24    2    3    3    0    0 -0.19586246652E+03  0.23657996887E+03  0.29992952525E+03  0.43693104850E+03  0.81356214038E+02 0.  0.
         -6    2    1    2    0  502  0.27651965662E+03 -0.23905853608E+03  0.39964487431E+02  0.40619846062E+03  0.17259178712E+03 0.  0.
        -24    2    5    5    0    0  0.17105086774E+03 -0.72943080993E+02  0.52331368806E+02  0.20898527749E+03  0.79731936042E+02 0.  0.
          5    1    3    3  501    0 -0.80657190103E+02  0.24785672049E+01  0.35365979939E+02  0.88230199749E+02  0.47000000000E+01 0. -1.
        -13    1    4    4    0    0 -0.83846214915E+02  0.16265098110E+03  0.16055199396E+03  0.24343884689E+03  0.00000000000E+00 0.  1.
         14    1    4    4    0    0 -0.11201625160E+03  0.73928987770E+02  0.13937753129E+03  0.19349220161E+03  0.00000000000E+00 0. -1.
         -5    1    5    5    0  502  0.10546878888E+03 -0.16611545508E+03 -0.12366881375E+02  0.19721318313E+03  0.47000000000E+01 0.  1.
         11    1    6    6    0    0  0.10732979651E+03 -0.82782913136E+02  0.20526675919E+02  0.13709135768E+03  0.00000000000E+00 0. -1.
        -12    1    6    6    0    0  0.63721071234E+02  0.98398321430E+01  0.31804692887E+02  0.71893919809E+02  0.00000000000E+00 0.  1.
</event>
<event>
12    1  0.1046899E+000  0.2060565E+03  0.7818608E-02  0.1144976E+00
         21   -1    0    0  501  502  0.00000000000E+00  0.00000000000E+00  0.60037266694E+02  0.60037266694E+02  0.00000000000E+00 0.  1.
         21   -1    0    0  502  503 -0.00000000000E+00 -0.00000000000E+00 -0.10055126137E+04  0.10055126137E+04  0.00000000000E+00 0.  1.
         -6    2    1    2    0  503 -0.50983907343E+02  0.99161351829E+02 -0.76396936502E+03  0.79095253414E+03  0.17182662213E+03 0.  0.
        -24    2    3    3    0    0 -0.46853528259E+02  0.12946569809E+03 -0.71850311995E+03  0.73595541718E+03  0.80168713369E+02 0.  0.
          6    2    1    2  501    0  0.50983907343E+02 -0.99161351829E+02 -0.18150598201E+03  0.27459734628E+03  0.17328285712E+03 0.  0.
         24    2    5    5    0    0  0.30021399437E+02 -0.63507593000E+02 -0.20282295062E+02  0.10808673253E+03  0.79604468865E+02 0.  0.
          5    1    5    5  501    0  0.20962507906E+02 -0.35653758828E+02 -0.16122368695E+03  0.16651061375E+03  0.47000000000E+01 0. -1.
        -11    1    6    6    0    0  0.17700316521E+02 -0.86160464732E+01 -0.43096194541E+02  0.47379525595E+02  0.00000000000E+00 0.  1.
         12    1    6    6    0    0  0.12321082916E+02 -0.54891546527E+02  0.22813899479E+02  0.60707206935E+02  0.00000000000E+00 0. -1.
         -5    1    3    3    0  503 -0.41303790842E+01 -0.30304346259E+02 -0.45466245063E+02  0.54997116958E+02  0.47000000000E+01 0.  1.
         13    1    4    4    0    0 -0.45110001399E+02  0.10144505167E+03 -0.67574205733E+03  0.68480167842E+03  0.00000000000E+00 0. -1.
        -14    1    4    4    0    0 -0.17435268593E+01  0.28020646420E+02 -0.42761062628E+02  0.51153738757E+02  0.00000000000E+00 0.  1.
</event>
<event>
12    1  0.1046899E+000  0.1816467E+03  0.7818608E-02  0.1167251E+00
         21   -1    0    0  501  502  0.00000000000E+00  0.00000000000E+00  0.22931107465E+03  0.22931107465E+03  0.00000000000E+00 0. -1.
         21   -1    0    0  502  503 -0.00000000000E+00 -0.00000000000E+00 -0.14173129013E+03  0.14173129013E+03  0.00000000000E+00 0. -1.
         -6    2    1    2    0  503  0.89063462942E+01  0.49646294937E+02  0.60321472630E+02  0.18736181020E+03  0.17006378290E+03 0.  0.
        -24    2    3    3    0    0  0.22732042071E+02 -0.36611462166E+02  0.21925730622E+02  0.91821904774E+02  0.78060102705E+02 0.  0.
          6    2    1    2  501    0 -0.89063462942E+01 -0.49646294937E+02  0.27258311890E+02  0.18368055459E+03  0.17450344685E+03 0.  0.
         24    2    5    5    0    0 -0.27075046398E+02 -0.49596074820E+02 -0.46185480436E+02  0.10787696090E+03  0.79445020701E+02 0.  0.
          5    1    5    5  501    0  0.18168700103E+02 -0.50220116160E-01  0.73443792325E+02  0.75803593692E+02  0.47000000000E+01 0. -1.
        -13    1    6    6    0    0 -0.46233414008E+02 -0.97174110489E+01 -0.42388497669E+02  0.63472367082E+02  0.00000000000E+00 0.  1.
         14    1    6    6    0    0  0.19158367610E+02 -0.39878663771E+02 -0.37969827665E+01  0.44404593814E+02  0.00000000000E+00 0. -1.
         -5    1    3    3    0  503 -0.13825695777E+02  0.86257757102E+02  0.38395742008E+02  0.95539905424E+02  0.47000000000E+01 0.  1.
         13    1    4    4    0    0 -0.10038505033E+02  0.20116898808E+02  0.12233665438E+02  0.25595385736E+02  0.00000000000E+00 0. -1.
        -14    1    4    4    0    0  0.32770547104E+02 -0.56728360974E+02  0.96920651837E+01  0.66226519037E+02  0.00000000000E+00 0.  1.
</event>
<event>
12    1  0.1046899E+000  0.1855462E+03  0.7818608E-02  0.1163885E+00
         21   -1    0    0  501  502  0.00000000000E+00  0.00000000000E+00  0.10634198242E+03  0.10634198242E+03  0.00000000000E+00 0. -1.
         21   -1    0    0  502  503 -0.00000000000E+00 -0.00000000000E+00 -0.44931302080E+03  0.44931302080E+03  0.00000000000E+00 0. -1.
         -6    2    1    2    0  503  0.68179480695E+02 -0.32427198015E+02 -0.20840690319E+02  0.18671292380E+03  0.16949164222E+03 0.  0.
        -24    2    3    3    0    0  0.31559547456E+02 -0.41430988157E+02 -0.74232447807E+02  0.12117776136E+03  0.80380729821E+02 0.  0.
          6    2    1    2  501    0 -0.68179480695E+02  0.32427198015E+02 -0.32213034807E+03  0.36894207942E+03  0.16324929422E+03 0.  0.
         24    2    5    5    0    0 -0.38066264126E+02  0.16446322084E+02 -0.32284917228E+03  0.33452114225E+03  0.77157531010E+02 0.  0.
          5    1    5    5  501    0 -0.30113216570E+02  0.15980875932E+02  0.71882421521E+00  0.34420937174E+02  0.47000000000E+01 0. -1.
        -13    1    6    6    0    0 -0.22126646884E+02  0.43756095821E+02 -0.12701773431E+03  0.13615318304E+03  0.00000000000E+00 0.  1.
         14    1    6    6    0    0 -0.15939617242E+02 -0.27309773737E+02 -0.19583143798E+03  0.19836795921E+03  0.00000000000E+00 0. -1.
         -5    1    3    3    0  503  0.36619933239E+02  0.90037901414E+01  0.53391757489E+02  0.65535162433E+02  0.47000000000E+01 0.  1.
         13    1    4    4    0    0 -0.22699560886E+02 -0.16901110487E+02 -0.48832323872E+02  0.56440353071E+02  0.00000000000E+00 0. -1.
        -14    1    4    4    0    0  0.54259108342E+02 -0.24529877670E+02 -0.25400123936E+02  0.64737408293E+02  0.00000000000E+00 0.  1.
</event>
<event>
12    1  0.1046899E+000  0.3798493E+03  0.7818608E-02  0.1051008E+00
         21   -1    0    0  503  502  0.00000000000E+00  0.00000000000E+00  0.10197430966E+04  0.10197430966E+04  0.00000000000E+00 0. -1.
         21   -1    0    0  501  503 -0.00000000000E+00 -0.00000000000E+00 -0.14354359629E+03  0.14354359629E+03  0.00000000000E+00 0. -1.
          6    2    1    2  501    0  0.33340581505E+03 -0.59843810047E+02  0.50897658263E+03  0.63509263786E+03  0.17188594444E+03 0.  0.
         24    2    3    3    0    0  0.14225414777E+03  0.24008511551E+02  0.25423070987E+03  0.30571789471E+03  0.89540639492E+02 0.  0.
         -6    2    1    2    0  502 -0.33340581505E+03  0.59843810047E+02  0.36722291769E+03  0.52819405503E+03  0.17145136159E+03 0.  0.
        -24    2    5    5    0    0 -0.32176060071E+03  0.14595596074E+02  0.33355272113E+03  0.47041184306E+03  0.79290407485E+02 0.  0.
          5    1    3    3  501    0  0.19115166727E+03 -0.83852321598E+02  0.25474587276E+03  0.32937474315E+03  0.47000000000E+01 0. -1.
        -11    1    4    4    0    0  0.78562220468E+02 -0.32009851816E+02  0.13332417292E+03  0.15802527704E+03  0.00000000000E+00 0.  1.
         12    1    4    4    0    0  0.63691927306E+02  0.56018363368E+02  0.12090653695E+03  0.14769261768E+03  0.00000000000E+00 0. -1.
         -5    1    5    5    0  502 -0.11645214332E+02  0.45248213973E+02  0.33670196558E+02  0.57782211976E+02  0.47000000000E+01 0.  1.
         11    1    6    6    0    0 -0.28631435250E+02  0.21449273317E+02  0.57374107400E+02  0.67613745720E+02  0.00000000000E+00 0. -1.
        -12    1    6    6    0    0 -0.29312916546E+03 -0.68536772429E+01  0.27617861373E+03  0.40279809734E+03  0.00000000000E+00 0.  1.
</event>
<event>
12    1  0.1046899E+000  0.1953970E+03  0.7818608E-02  0.1153702E+00
         21   -1    0    0  501  502  0.00000000000E+00  0.00000000000E+00  0.40506334041E+03  0.40506334041E+03  0.00000000000E+00 0. -1.
         21   -1    0    0  502  503 -0.00000000000E+00 -0.00000000000E+00 -0.18150850580E+03  0.18150850580E+03  0.00000000000E+00 0.  1.
         -6    2    1    2    0  503 -0.45961316280E+02 -0.83150998948E+02 -0.91632835895E+02  0.21573057187E+03  0.17063578700E+03 0.  0.
        -24    2    3    3    0    0  0.29636649730E+02 -0.77482351595E+02 -0.30072414148E+02  0.11796062990E+03  0.78284828014E+02 0.  0.
          6    2    1    2  501    0  0.45961316280E+02  0.83150998948E+02  0.31518767050E+03  0.37084127435E+03  0.17074381951E+03 0.  0.
         24    2    5    5    0    0 -0.55257406475E+01  0.22188002556E+02  0.26144292418E+03  0.27451894196E+03  0.80532016117E+02 0.  0.
          5    1    5    5  501    0  0.51487056928E+02  0.60962996391E+02  0.53744746319E+02  0.96322332390E+02  0.47000000000E+01 0. -1.
        -13    1    6    6    0    0 -0.60676745836E+01  0.36781647283E+02  0.48970499226E+02  0.61545235771E+02  0.00000000000E+00 0.  1.
         14    1    6    6    0    0  0.54193393611E+00 -0.14593644726E+02  0.21247242496E+03  0.21297370619E+03  0.00000000000E+00 0. -1.
         -5    1    3    3    0  503 -0.75597966011E+02 -0.56686473524E+01 -0.61560421747E+02  0.97769941973E+02  0.47000000000E+01 0.  1.
         13    1    4    4    0    0 -0.23118688728E+02 -0.19676425067E+02 -0.25362787535E+02  0.39558898664E+02  0.00000000000E+00 0. -1.
        -14    1    4    4    0    0  0.52755338459E+02 -0.57805926528E+02 -0.47096266126E+01  0.78401731234E+02  0.00000000000E+00 0.  1.
</event>
<event>
12    1  0.1046899E+000  0.5832955E+03  0.7818608E-02  0.9941034E-01
         21   -1    0    0  503  502  0.00000000000E+00  0.00000000000E+00  0.89221414629E+03  0.89221414629E+03  0.00000000000E+00 0.  1.
         21   -1    0    0  501  503 -0.00000000000E+00 -0.00000000000E+00 -0.38808533135E+03  0.38808533135E+03  0.00000000000E+00 0.  1.
          6    2    1    2  501    0  0.16073675108E+03 -0.53292976856E+03  0.33926215970E+03  0.67478324768E+03  0.17430770774E+03 0.  0.
         24    2    3    3    0    0  0.12348967407E+03 -0.42137016530E+03  0.19078561554E+03  0.48530959782E+03  0.79521939310E+02 0.  0.
         -6    2    1    2    0  502 -0.16073675108E+03  0.53292976856E+03  0.16486665525E+03  0.60551622997E+03  0.17210011440E+03 0.  0.
        -24    2    5    5    0    0 -0.95591697713E+02  0.15893739404E+03  0.43123237307E+02  0.20682120368E+03  0.80725019660E+02 0.  0.
          5    1    3    3  501    0  0.37247077017E+02 -0.11155960326E+03  0.14847654416E+03  0.18947364985E+03  0.47000000000E+01 0. -1.
        -13    1    4    4    0    0  0.17118856356E+02 -0.13614506774E+02  0.22981937975E+02  0.31726637243E+02  0.00000000000E+00 0.  1.
         14    1    4    4    0    0  0.10637081771E+03 -0.40775565853E+03  0.16780367757E+03  0.45358296058E+03  0.00000000000E+00 0. -1.
         -5    1    5    5    0  502 -0.65145053371E+02  0.37399237452E+03  0.12174341794E+03  0.39869502629E+03  0.47000000000E+01 0.  1.
         13    1    6    6    0    0 -0.19146720882E+02  0.10440447876E+03  0.75760294195E+01  0.10641563949E+03  0.00000000000E+00 0. -1.
        -14    1    6    6    0    0 -0.76444976832E+02  0.54532915278E+02  0.35547207888E+02  0.10040556419E+03  0.00000000000E+00 0.  1.
</event>
<event>
12    1  0.1046899E+000  0.1995947E+03  0.7818608E-02  0.1150262E+00
         21   -1    0    0  501  502  0.00000000000E+00  0.00000000000E+00  0.15756190406E+03  0.15756190406E+03  0.00000000000E+00 0. -1.
         21   -1    0    0  502  503 -0.00000000000E+00 -0.00000000000E+00 -0.27622246318E+03  0.27622246318E+03  0.00000000000E+00 0. -1.
         -6    2    1    2    0  503 -0.63778836919E+02  0.77637901154E+02  0.53299074606E+01  0.19881266694E+03  0.17147211111E+03 0.  0.
        -24    2    3    3    0    0 -0.54334193111E+02  0.11206386482E+03  0.35866765135E+02  0.15160103757E+03  0.78650717795E+02 0.  0.
          6    2    1    2  501    0  0.63778836919E+02 -0.77637901154E+02 -0.12399046658E+03  0.23497170031E+03  0.17246066336E+03 0.  0.
         24    2    5    5    0    0  0.80778119611E+02 -0.11244376344E+03 -0.98631002945E+02  0.18843552022E+03  0.81309076951E+02 0.  0.
          5    1    5    5  501    0 -0.16999282692E+02  0.34805862283E+02 -0.25359463638E+02  0.46536180089E+02  0.47000000000E+01 0. -1.
        -11    1    6    6    0    0  0.59688250700E+02 -0.11546131711E+03 -0.57527335135E+02  0.14213865522E+03  0.00000000000E+00 0.  1.
         12    1    6    6    0    0  0.21089868910E+02  0.30175536775E+01 -0.41103667810E+02  0.46296864994E+02  0.00000000000E+00 0. -1.
         -5    1    3    3    0  503 -0.94446438077E+01 -0.34425963671E+02 -0.30536857675E+02  0.47211629372E+02  0.47000000000E+01 0.  1.
         11    1    4    4    0    0 -0.68103062746E+02  0.11129293306E+03  0.22512806972E+02  0.13240457160E+03  0.00000000000E+00 0. -1.
        -12    1    4    4    0    0  0.13768869635E+02  0.77093176707E+00  0.13353958164E+02  0.19196465963E+02  0.00000000000E+00 0.  1.
</event>
<event>
12    1  0.1046899E+000  0.2691264E+03  0.7818608E-02  0.1102305E+00
         21   -1    0    0  501  502  0.00000000000E+00  0.00000000000E+00  0.15798270403E+04  0.15798270403E+04  0.00000000000E+00 0.  1.
         21   -1    0    0  502  503 -0.00000000000E+00 -0.00000000000E+00 -0.70729689569E+02  0.70729689569E+02  0.00000000000E+00 0.  1.
         -6    2    1    2    0  503  0.60510749973E+02 -0.19825713694E+03  0.12533218088E+04  0.12818910162E+04  0.17164375264E+03 0.  0.
        -24    2    3    3    0    0  0.10097366277E+03 -0.11113323499E+03  0.71064948604E+03  0.73076202814E+03  0.80275608177E+02 0.  0.
          6    2    1    2  501    0 -0.60510749973E+02  0.19825713694E+03  0.25577554189E+03  0.36866571362E+03  0.16590912379E+03 0.  0.
         24    2    5    5    0    0 -0.12457256595E+02  0.17496454458E+03  0.24812534343E+03  0.31451501075E+03  0.81152515855E+02 0.  0.
          5    1    5    5  501    0 -0.48053493378E+02  0.23292592363E+02  0.76501984572E+01  0.54150702869E+02  0.47000000000E+01 0. -1.
        -13    1    6    6    0    0  0.17828949969E+02  0.76925950912E+02  0.56333571030E+02  0.96999714462E+02  0.00000000000E+00 0.  1.
         14    1    6    6    0    0 -0.30286206564E+02  0.98038593668E+02  0.19179177240E+03  0.21751529629E+03  0.00000000000E+00 0. -1.
         -5    1    3    3    0  503 -0.40462912802E+02 -0.87123901948E+02  0.54267232277E+03  0.55112898808E+03  0.47000000000E+01 0.  1.
         11    1    4    4    0    0  0.54491548595E+02 -0.93824035530E+01  0.30495870380E+03  0.30993091067E+03  0.00000000000E+00 0. -1.
        -12    1    4    4    0    0  0.46482114180E+02 -0.10175083144E+03  0.40569078224E+03  0.42083111747E+03  0.00000000000E+00 0.  1.
</event>
<event>
12    1  0.1046899E+000  0.2137868E+03  0.7818608E-02  0.1138712E+00
         21   -1    0    0  501  502  0.00000000000E+00  0.00000000000E+00  0.20022262642E+03  0.20022262642E+03  0.00000000000E+00 0.  1.
         21   -1    0    0  502  503 -0.00000000000E+00 -0.00000000000E+00 -0.23048537174E+03  0.23048537174E+03  0.00000000000E+00 0.  1.
         -6    2    1    2    0  503  0.12516422541E+03  0.18009758756E+02  0.86896327353E+01  0.21396334583E+03  0.17237856279E+03 0.  0.
        -24    2    3    3    0    0  0.12322678878E+03 -0.43978033970E+02  0.85564489941E+01  0.15176730218E+03  0.76427692921E+02 0.  0.
          6    2    1    2  501    0 -0.12516422541E+03 -0.18009758756E+02 -0.38952378059E+02  0.21674465233E+03  0.17166980464E+03 0.  0.
         24    2    5    5    0    0 -0.91882954374E+02 -0.21236789318E+02  0.41612188680E+02  0.12939022404E+03  0.78209828700E+02 0.  0.
          5    1    5    5  501    0 -0.33281271031E+02  0.32270305623E+01 -0.80564566739E+02  0.87354428288E+02  0.47000000000E+01 0. -1.
        -13    1    6    6    0    0 -0.61181377362E+02 -0.50331218527E+02  0.34872794452E+02  0.86559253043E+02  0.00000000000E+00 0.  1.
         14    1    6    6    0    0 -0.30701577012E+02  0.29094429209E+02  0.67393942274E+01  0.42830970997E+02  0.00000000000E+00 0. -1.
         -5    1    3    3    0  503  0.19374366205E+01  0.61987792726E+02  0.13318374116E+00  0.62196043649E+02  0.47000000000E+01 0.  1.
         13    1    4    4    0    0  0.66130117715E+02  0.10194141118E+02  0.24878349793E+02  0.71386590272E+02  0.00000000000E+00 0. -1.
        -14    1    4    4    0    0  0.57096671069E+02 -0.54172175088E+02 -0.16321900799E+02  0.80380711907E+02  0.00000000000E+00 0.  1.
</event>
<event>
12    1  0.1046899E+000  0.3611556E+03  0.7818608E-02  0.1058167E+00
         21   -1    0    0  501  502  0.00000000000E+00  0.00000000000E+00  0.21119982891E+03  0.21119982891E+03  0.00000000000E+00 0. -1.
         21   -1    0    0  502  503 -0.00000000000E+00 -0.00000000000E+00 -0.63214924734E+03  0.63214924734E+03  0.00000000000E+00 0. -1.
         -6    2    1    2    0  503  0.18967679251E+03 -0.25535511835E+03 -0.14506794741E+03  0.38920187751E+03  0.17102593372E+03 0.  0.
        -24    2    3    3    0    0  0.20319027082E+03 -0.20205762973E+03 -0.87901079313E+02  0.30974511444E+03  0.78114430702E+02 0.  0.
          6    2    1    2  501    0 -0.18967679251E+03  0.25535511835E+03 -0.27588147102E+03  0.45414719874E+03  0.17016336263E+03 0.  0.
         24    2    5    5    0    0 -0.20860726083E+03  0.23952592709E+03 -0.22488845473E+03  0.39730264195E+03  0.79905651905E+02 0.  0.
          5    1    5    5  501    0  0.18930468314E+02  0.15829191259E+02 -0.50993016294E+02  0.56844556796E+02  0.47000000000E+01 0. -1.
        -13    1    6    6    0    0 -0.74354183301E+02  0.13726707399E+03 -0.13335537751E+03  0.20531549110E+03  0.00000000000E+00 0.  1.
         14    1    6    6    0    0 -0.13425307752E+03  0.10225885311E+03 -0.91533077216E+02  0.19198715084E+03  0.00000000000E+00 0. -1.
         -5    1    3    3    0  503 -0.13513478313E+02 -0.53297488623E+02 -0.57166868098E+02  0.79456763071E+02  0.47000000000E+01 0.  1.
         13    1    4    4    0    0 -0.38754015036E+01  0.31379140887E+01 -0.40092289840E+01  0.63983715654E+01  0.00000000000E+00 0. -1.
        -14    1    4    4    0    0  0.20706567233E+03 -0.20519554382E+03 -0.83891850329E+02  0.30334674287E+03  0.00000000000E+00 0.  1.
</event>
<event>
12    1  0.1046899E+000  0.2059855E+03  0.7818608E-02  0.1146094E+00
         21   -1    0    0  503  502  0.00000000000E+00  0.00000000000E+00  0.10756500611E+03  0.10756500611E+03  0.00000000000E+00 0.  1.
         21   -1    0    0  501  503 -0.00000000000E+00 -0.00000000000E+00 -0.66015513440E+03  0.66015513440E+03  0.00000000000E+00 0.  1.
          6    2    1    2  501    0 -0.48185789601E+02  0.10161963670E+03 -0.24824171532E+02  0.20118071090E+03  0.16495156278E+03 0.  0.
         24    2    3    3    0    0 -0.41673627704E+02  0.51649088880E+02  0.45473071160E+02  0.11455937270E+03  0.81558139042E+02 0.  0.
         -6    2    1    2    0  502  0.48185789601E+02 -0.10161963670E+03 -0.52776595677E+03  0.56653942961E+03  0.17257346058E+03 0.  0.
        -24    2    5    5    0    0 -0.22863711791E+02 -0.48574426201E+02 -0.39640173088E+03  0.40798194524E+03  0.80204184450E+02 0.  0.
          5    1    3    3  501    0 -0.65121618967E+01  0.49970547823E+02 -0.70297242692E+02  0.86621338205E+02  0.47000000000E+01 0. -1.
        -11    1    4    4    0    0 -0.13479485895E+02 -0.19067495640E+02  0.27983522153E+02  0.36446446220E+02  0.00000000000E+00 0.  1.
         12    1    4    4    0    0 -0.28194141809E+02  0.70716584520E+02  0.17489549007E+02  0.78112926478E+02  0.00000000000E+00 0. -1.
         -5    1    5    5    0  502  0.71049501392E+02 -0.53045210503E+02 -0.13136422589E+03  0.15855748437E+03  0.47000000000E+01 0.  1.
         13    1    6    6    0    0 -0.24411774385E+02 -0.69273049029E+02 -0.26666102476E+03  0.27659138124E+03  0.00000000000E+00 0. -1.
        -14    1    6    6    0    0  0.15480625938E+01  0.20698622829E+02 -0.12974070612E+03  0.13139056400E+03  0.00000000000E+00 0.  1.
</event>
<event>
12    1  0.1046899E+000  0.2141050E+03  0.7818608E-02  0.1138546E+00
         21   -1    0    0  503  502  0.00000000000E+00  0.00000000000E+00  0.66047047105E+03  0.66047047105E+03  0.00000000000E+00 0. -1.
         21   -1    0    0  501  503 -0.00000000000E+00 -0.00000000000E+00 -0.81209231333E+02  0.81209231333E+02  0.00000000000E+00 0. -1.
          6    2    1    2  501    0 -0.10675940201E+02  0.12526029512E+03  0.14579353354E+03  0.25821802903E+03  0.17209497047E+03 0.  0.
         24    2    3    3    0    0  0.25546260661E+02  0.80582711378E+02  0.16096436300E+03  0.19854912263E+03  0.79787487332E+02 0.  0.
         -6    2    1    2    0  502  0.10675940201E+02 -0.12526029512E+03  0.43346770617E+03  0.48346167335E+03  0.17331133854E+03 0.  0.
        -24    2    5    5    0    0 -0.32136166972E+02 -0.49904810201E+02  0.88640864929E+02  0.12787910056E+03  0.70516934956E+02 0.  0.
          5    1    3    3  501    0 -0.36222200862E+02  0.44677583741E+02 -0.15170829463E+02  0.59668906399E+02  0.47000000000E+01 0. -1.
        -11    1    4    4    0    0 -0.10651120226E+02  0.70060237040E+02  0.67917154935E+02  0.98156116012E+02  0.00000000000E+00 0.  1.
         12    1    4    4    0    0  0.36197380887E+02  0.10522474338E+02  0.93047208068E+02  0.10039300662E+03  0.00000000000E+00 0. -1.
         -5    1    5    5    0  502  0.42812107174E+02 -0.75355484918E+02  0.34482684124E+03  0.35558257279E+03  0.47000000000E+01 0.  1.
         13    1    6    6    0    0 -0.25996066042E+02  0.96753155472E+01  0.11046728436E+02  0.29856948768E+02  0.00000000000E+00 0. -1.
        -14    1    6    6    0    0 -0.61401009302E+01 -0.59580125749E+02  0.77594136493E+02  0.98022151791E+02  0.00000000000E+00 0.  1.
</event>
<event>
12    1  0.1046899E+000  0.2839506E+03  0.7818608E-02  0.1093676E+00
         21   -1    0    0  503  502  0.00000000000E+00  0.00000000000E+00  0.16921379686E+04  0.16921379686E+04  0.00000000000E+00 0. -1.
         21   -1    0    0  501  503 -0.00000000000E+00 -0.00000000000E+00 -0.51006709069E+02  0.51006709069E+02  0.00000000000E+00 0. -1.
          6    2    1    2  501    0 -0.22048605063E+03  0.51774379233E+02  0.10480827775E+04  0.10856232167E+04  0.16972205288E+03 0.  0.
         24    2    3    3    0    0 -0.19574347922E+03  0.49524330241E+02  0.10343123614E+04  0.10568313442E+04  0.79512642366E+02 0.  0.
         -6    2    1    2    0  502  0.22048605063E+03 -0.51774379233E+02  0.59304848200E+03  0.65752146095E+03  0.17126962589E+03 0.  0.
        -24    2    5    5    0    0  0.10002491913E+03 -0.29315162284E+02  0.45232878061E+03  0.47086823975E+03  0.79064595440E+02 0.  0.
          5    1    3    3  501    0 -0.24742571406E+02  0.22500489929E+01  0.13770416160E+02  0.28791872490E+02  0.47000000000E+01 0. -1.
        -13    1    4    4    0    0 -0.16998343512E+03  0.10617233784E+02  0.81860515061E+03  0.83613484946E+03  0.00000000000E+00 0.  1.
         14    1    4    4    0    0 -0.25760044100E+02  0.38907096456E+02  0.21570721078E+03  0.22069649478E+03  0.00000000000E+00 0. -1.
         -5    1    5    5    0  502  0.12046113150E+03 -0.22459216949E+02  0.14071970139E+03  0.18665322120E+03  0.47000000000E+01 0.  1.
         11    1    6    6    0    0  0.10323942459E+03 -0.14268101014E+02  0.43659260784E+03  0.44885973613E+03  0.00000000000E+00 0. -1.
        -12    1    6    6    0    0 -0.32145054637E+01 -0.15047061270E+02  0.15736172767E+02  0.22008503621E+02  0.00000000000E+00 0.  1.
</event>
<event>
12    1  0.1046899E+000  0.2127033E+03  0.7818608E-02  0.1139634E+00
         21   -1    0    0  501  502  0.00000000000E+00  0.00000000000E+00  0.16160545193E+03  0.16160545193E+03  0.00000000000E+00 0. -1.
         21   -1    0    0  502  503 -0.00000000000E+00 -0.00000000000E+00 -0.43185791884E+03  0.43185791884E+03  0.00000000000E+00 0. -1.
         -6    2    1    2    0  503 -0.93861301195E+02 -0.80182330734E+02  0.41802653556E+02  0.21581126803E+03  0.17201131225E+03 0.  0.
        -24    2    3    3    0    0 -0.59868998578E+02 -0.93440655762E+02 -0.16907090898E+02  0.14652790846E+03  0.94176032490E+02 0.  0.
          6    2    1    2  501    0  0.93861301195E+02  0.80182330734E+02 -0.31205512047E+03  0.37765210275E+03  0.17321536443E+03 0.  0.
         24    2    5    5    0    0  0.98647601700E+02  0.69999414296E+02 -0.12853013481E+03  0.19372246723E+03  0.79856943553E+02 0.  0.
          5    1    5    5  501    0 -0.47863005057E+01  0.10182916438E+02 -0.18352498565E+03  0.18392963551E+03  0.47000000000E+01 0. -1.
        -11    1    6    6    0    0  0.30992529826E+02  0.70747245466E+02 -0.70933167749E+02  0.10486764960E+03  0.00000000000E+00 0.  1.
         12    1    6    6    0    0  0.67655071874E+02 -0.74783116979E+00 -0.57596967063E+02  0.88854817633E+02  0.00000000000E+00 0. -1.
         -5    1    3    3    0  503 -0.33992302617E+02  0.13258325028E+02  0.58709744454E+02  0.69283359572E+02  0.47000000000E+01 0.  1.
         11    1    4    4    0    0  0.24515887615E+02 -0.24854114444E+02 -0.14379335493E+02  0.37756072883E+02  0.00000000000E+00 0. -1.
        -12    1    4    4    0    0 -0.84384886193E+02 -0.68586541318E+02 -0.25277554048E+01  0.10877183558E+03  0.00000000000E+00 0.  1.
</event>
<event>
12    1  0.1046899E+000  0.3084514E+03  0.7818608E-02  0.1081118E+00
         21   -1    0    0  501  502  0.00000000000E+00  0.00000000000E+00  0.17350048218E+03  0.17350048218E+03  0.00000000000E+00 0. -1.
         21   -1    0    0  502  503 -0.00000000000E+00 -0.00000000000E+00 -0.59221894250E+03  0.59221894250E+03  0.00000000000E+00 0. -1.
         -6    2    1    2    0  503 -0.25305329197E+03  0.39202429461E+02 -0.10463765865E+03  0.32550470692E+03  0.17155604206E+03 0.  0.
        -24    2    3    3    0    0 -0.72218893372E+02  0.58182635531E+02 -0.30790586967E+02  0.12919676532E+03  0.84516012010E+02 0.  0.
          6    2    1    2  501    0  0.25305329197E+03 -0.39202429461E+02 -0.31408080167E+03  0.44021471777E+03  0.17195769452E+03 0.  0.
         24    2    5    5    0    0  0.53360352797E+02 -0.43802385345E+02 -0.14056911068E+03  0.17558889427E+03  0.79409122279E+02 0.  0.
          5    1    5    5  501    0  0.19969293917E+03  0.45999558834E+01 -0.17351169100E+03  0.26462582350E+03  0.47000000000E+01 0. -1.
        -11    1    6    6    0    0  0.50157669430E+02 -0.66381892864E+00 -0.11469336615E+03  0.12518306873E+03  0.00000000000E+00 0.  1.
         12    1    6    6    0    0  0.32026833674E+01 -0.43138566416E+02 -0.25875744527E+02  0.50405825536E+02  0.00000000000E+00 0. -1.
         -5    1    3    3    0  503 -0.18083439860E+03 -0.18980206070E+02 -0.73847071683E+02  0.19630794160E+03  0.47000000000E+01 0.  1.
         11    1    4    4    0    0  0.13007990766E+02  0.18130330457E+01 -0.23292398698E+02  0.26740058895E+02  0.00000000000E+00 0. -1.
        -12    1    4    4    0    0 -0.85226884137E+02  0.56369602486E+02 -0.74981882686E+01  0.10245670643E+03  0.00000000000E+00 0.  1.
</event>
<event>
12    1  0.1046899E+000  0.2382918E+03  0.7818608E-02  0.1121206E+00
         21   -1    0    0  501  502  0.00000000000E+00  0.00000000000E+00  0.13494202485E+03  0.13494202485E+03  0.00000000000E+00 0. -1.
         21   -1    0    0  502  503 -0.00000000000E+00 -0.00000000000E+00 -0.74774251087E+03  0.74774251087E+03  0.00000000000E+00 0. -1.
         -6    2    1    2    0  503 -0.11038992784E+03  0.11872962882E+03 -0.13885663756E+02  0.23869598816E+03  0.17464335709E+03 0.  0.
        -24    2    3    3    0    0 -0.84907113733E+02  0.14518486063E+03 -0.43052106117E+02  0.19155763366E+03  0.80950487678E+02 0.  0.
          6    2    1    2  501    0  0.11038992784E+03 -0.11872962882E+03 -0.59891482226E+03  0.64398854756E+03  0.17245180236E+03 0.  0.
         24    2    5    5    0    0  0.10883445933E+03 -0.13606535289E+03 -0.39258861762E+03  0.43687616374E+03  0.79851361671E+02 0.  0.
          5    1    5    5  501    0  0.15554685051E+01  0.17335724071E+02 -0.20632620464E+03  0.20711238382E+03  0.47000000000E+01 0. -1.
        -13    1    6    6    0    0  0.14995525041E+02 -0.69759956021E+02 -0.20313718507E+03  0.21530451271E+03  0.00000000000E+00 0.  1.
         14    1    6    6    0    0  0.93838934293E+02 -0.66305396869E+02 -0.18945143255E+03  0.22157165103E+03  0.00000000000E+00 0. -1.
         -5    1    3    3    0  503 -0.25482814106E+02 -0.26455231807E+02  0.29166442361E+02  0.47138354498E+02  0.47000000000E+01 0.  1.
         11    1    4    4    0    0 -0.21364375981E+01  0.13972283270E+01 -0.24479342511E+02  0.24612086917E+02  0.00000000000E+00 0. -1.
        -12    1    4    4    0    0 -0.82770676135E+02  0.14378763230E+03 -0.18572763606E+02  0.16694554674E+03  0.00000000000E+00 0.  1.
</event>
<event>
12    1  0.1046899E+000  0.1901494E+03  0.7818608E-02  0.1158356E+00
         21   -1    0    0  501  502  0.00000000000E+00  0.00000000000E+00  0.13030736520E+03  0.13030736520E+03  0.00000000000E+00 0. -1.
         21   -1    0    0  502  503 -0.00000000000E+00 -0.00000000000E+00 -0.30865642807E+03  0.30865642807E+03  0.00000000000E+00 0. -1.
         -6    2    1    2    0  503 -0.67390869766E+02 -0.43953898813E+02 -0.15917954378E+03  0.24798171530E+03  0.17228850634E+03 0.  0.
        -24    2    3    3    0    0  0.22786827740E+02 -0.92345703454E+01 -0.35363241276E+02  0.90851146462E+02  0.79992844506E+02 0.  0.
          6    2    1    2  501    0  0.67390869766E+02  0.43953898813E+02 -0.19169519089E+02  0.19098207797E+03  0.17214299026E+03 0.  0.
         24    2    5    5    0    0  0.52372251892E+02 -0.39841567741E+02 -0.24630513659E+01  0.10410034709E+03  0.80626375051E+02 0.  0.
          5    1    5    5  501    0  0.15018617874E+02  0.83795466553E+02 -0.16706467723E+02  0.86881730885E+02  0.47000000000E+01 0. -1.
        -13    1    6    6    0    0  0.16491072714E+02  0.15865600747E+02 -0.25205052773E+02  0.34043611024E+02  0.00000000000E+00 0.  1.
         14    1    6    6    0    0  0.35881179178E+02 -0.55707168487E+02  0.22742001407E+02  0.70056736065E+02  0.00000000000E+00 0. -1.
         -5    1    3    3    0  503 -0.90177697506E+02 -0.34719328467E+02 -0.12381630251E+03  0.15713056884E+03  0.47000000000E+01 0.  1.
         13    1    4    4    0    0  0.26493701477E+02 -0.41063177904E+02 -0.32480940374E+02  0.58678039206E+02  0.00000000000E+00 0. -1.
        -14    1    4    4    0    0 -0.37068737367E+01  0.31828607559E+02 -0.28823009017E+01  0.32173107256E+02  0.00000000000E+00 0.  1.
</event>
<event>
12    1  0.1046899E+000  0.2094544E+03  0.7818608E-02  0.1142045E+00
         21   -1    0    0  501  502  0.00000000000E+00  0.00000000000E+00  0.16594737079E+03  0.16594737079E+03  0.00000000000E+00 0.  1.
         21   -1    0    0  502  503 -0.00000000000E+00 -0.00000000000E+00 -0.26715552453E+03  0.26715552453E+03  0.00000000000E+00 0.  1.
         -6    2    1    2    0  503 -0.10592300860E+03 -0.54892796194E+02 -0.27375112643E+02  0.21123570180E+03  0.17215755022E+03 0.  0.
        -24    2    3    3    0    0 -0.99910879573E+02 -0.37070284881E+02  0.41731423640E+02  0.13946111743E+03  0.79696309060E+02 0.  0.
          6    2    1    2  501    0  0.10592300860E+03  0.54892796194E+02 -0.73833041097E+02  0.22186719352E+03  0.17187446227E+03 0.  0.
         24    2    5    5    0    0  0.23047376242E+02 -0.29358329284E+02 -0.23843722241E+02  0.93462970139E+02  0.82302555531E+02 0.  0.
          5    1    5    5  501    0  0.82875632358E+02  0.84251125479E+02 -0.49989318856E+02  0.12840422338E+03  0.47000000000E+01 0. -1.
        -13    1    6    6    0    0 -0.29958518844E+02 -0.17478559215E+02 -0.14721455966E+01  0.34715703885E+02  0.00000000000E+00 0.  1.
         14    1    6    6    0    0  0.53005895086E+02 -0.11879770069E+02 -0.22371576644E+02  0.58747266254E+02  0.00000000000E+00 0. -1.
         -5    1    3    3    0  503 -0.60121290274E+01 -0.17822511314E+02 -0.69106536283E+02  0.71774584374E+02  0.47000000000E+01 0.  1.
         11    1    4    4    0    0 -0.58666879695E+02 -0.31982641317E+02 -0.15636023842E+02  0.68623446142E+02  0.00000000000E+00 0. -1.
        -12    1    4    4    0    0 -0.41243999878E+02 -0.50876435638E+01  0.57367447483E+02  0.70837671289E+02  0.00000000000E+00 0.  1.
</event>
<event>
12    1  0.1046899E+000  0.1899179E+03  0.7818608E-02  0.1159212E+00
         21   -1    0    0  501  502  0.00000000000E+00  0.00000000000E+00  0.77807986556E+03  0.77807986556E+03  0.00000000000E+00 0.  1.
         21   -1    0    0  502  503 -0.00000000000E+00 -0.00000000000E+00 -0.29460065352E+03  0.29460065352E+03  0.00000000000E+00 0.  1.
         -6    2    1    2    0  503  0.45255945893E+01 -0.71992718046E+02 -0.25101690565E+03  0.31476703282E+03  0.17568541649E+03 0.  0.
        -24    2    3    3    0    0  0.39311519032E+02 -0.48076976989E+02 -0.25219431543E+03  0.27227586311E+03  0.81703008806E+02 0.  0.
          6    2    1    2  501    0 -0.45255945893E+01  0.71992718046E+02  0.73449611769E+03  0.75791348627E+03  0.17246702091E+03 0.  0.
         24    2    5    5    0    0  0.40293531042E+02 -0.13137890513E+02  0.39575875450E+03  0.40574723893E+03  0.78801378982E+02 0.  0.
          5    1    5    5  501    0 -0.44819125631E+02  0.85130608560E+02  0.33873736320E+03  0.35216624733E+03  0.47000000000E+01 0. -1.
        -11    1    6    6    0    0  0.46308969694E+02 -0.74507957330E+01  0.39461220476E+03  0.39739001897E+03  0.00000000000E+00 0.  1.
         12    1    6    6    0    0 -0.60154386518E+01 -0.56870947805E+01  0.11465497375E+01  0.83572199634E+01  0.00000000000E+00 0. -1.
         -5    1    3    3    0  503 -0.34785924443E+02 -0.23915741057E+02  0.11774097812E+01  0.42491169712E+02  0.47000000000E+01 0.  1.
         11    1    4    4    0    0  0.51482501111E+02 -0.33146829874E+02 -0.89473790726E+02  0.10841918409E+03  0.00000000000E+00 0. -1.
        -12    1    4    4    0    0 -0.12170982079E+02 -0.14930147115E+02 -0.16272052471E+03  0.16385667902E+03  0.00000000000E+00 0.  1.
</event>
<event>
12    1  0.1046899E+000  0.1923680E+03  0.7818608E-02  0.1156454E+00
         21   -1    0    0  501  502  0.00000000000E+00  0.00000000000E+00  0.10795561534E+03  0.10795561534E+03  0.00000000000E+00 0.  1.
         21   -1    0    0  502  503 -0.00000000000E+00 -0.00000000000E+00 -0.34211290813E+03  0.34211290813E+03  0.00000000000E+00 0. -1.
         -6    2    1    2    0  503 -0.87225572905E+02  0.92786896680E+01 -0.11152791786E+03  0.22235988585E+03  0.17120469539E+03 0.  0.
        -24    2    3    3    0    0 -0.46351442131E+02  0.22499938718E+02  0.96924939331E+01  0.93666551803E+02  0.77619424489E+02 0.  0.
          6    2    1    2  501    0  0.87225572905E+02 -0.92786896680E+01 -0.12262937494E+03  0.22770863762E+03  0.17064250759E+03 0.  0.
         24    2    5    5    0    0  0.37425298674E+02 -0.23432216534E+02  0.42717015320E+01  0.90572344663E+02  0.78964425099E+02 0.  0.
          5    1    5    5  501    0  0.49800274230E+02  0.14153526866E+02 -0.12690107647E+03  0.13713629295E+03  0.47000000000E+01 0. -1.
        -13    1    6    6    0    0 -0.23454989784E+02 -0.18445815771E+00 -0.69091976040E+01  0.24452148824E+02  0.00000000000E+00 0.  1.
         14    1    6    6    0    0  0.60880288459E+02 -0.23247758376E+02  0.11180899136E+02  0.66120195839E+02  0.00000000000E+00 0. -1.
         -5    1    3    3    0  503 -0.40874130774E+02 -0.13221249050E+02 -0.12122041179E+03  0.12869333405E+03  0.47000000000E+01 0.  1.
         13    1    4    4    0    0 -0.58534309040E+02  0.64340645603E+01 -0.15985977855E+02  0.61018144920E+02  0.00000000000E+00 0. -1.
        -14    1    4    4    0    0  0.12182866909E+02  0.16065874158E+02  0.25678471788E+02  0.32648406882E+02  0.00000000000E+00 0.  1.
</event>
<event>
12    1  0.1046899E+000  0.1926075E+03  0.7818608E-02  0.1157503E+00
         21   -1    0    0  501  502  0.00000000000E+00  0.00000000000E+00  0.23881870600E+04  0.23881870600E+04  0.00000000000E+00 0.  1.
         21   -1    0    0  502  503 -0.00000000000E+00 -0.00000000000E+00 -0.15814441002E+02  0.15814441002E+02  0.00000000000E+00 0.  1.
         -6    2    1    2    0  503  0.70931429545E+02 -0.50628305106E+02  0.14328919430E+04  0.14449803457E+04  0.16490720484E+03 0.  0.
        -24    2    3    3    0    0  0.29678082972E+02 -0.90540853075E+02  0.10764313137E+04  0.10838970862E+04  0.83964787777E+02 0.  0.
          6    2    1    2  501    0 -0.70931429545E+02  0.50628305106E+02  0.93948067601E+03  0.95902115530E+03  0.17176478901E+03 0.  0.
         24    2    5    5    0    0 -0.22057775169E+02  0.48047765757E+02  0.23799820633E+03  0.25581774338E+03  0.77488311180E+02 0.  0.
          5    1    5    5  501    0 -0.48873654376E+02  0.25805393494E+01  0.70148246968E+03  0.70320341193E+03  0.47000000000E+01 0. -1.
        -11    1    6    6    0    0 -0.25198483521E+02 -0.13465010145E+02  0.11177348222E+03  0.11536715910E+03  0.00000000000E+00 0.  1.
         12    1    6    6    0    0  0.31407083520E+01  0.61512775902E+02  0.12622472411E+03  0.14045058428E+03  0.00000000000E+00 0. -1.
         -5    1    3    3    0  503  0.41253346573E+02  0.39912547969E+02  0.35646062925E+03  0.36108325951E+03  0.47000000000E+01 0.  1.
         13    1    4    4    0    0 -0.18009248710E+02 -0.66879832207E+02  0.74559772020E+03  0.74880785610E+03  0.00000000000E+00 0. -1.
        -14    1    4    4    0    0  0.47687331682E+02 -0.23661020868E+02  0.33083359355E+03  0.33508923011E+03  0.00000000000E+00 0.  1.
</event>
<event>
12    1  0.1046899E+000  0.1929481E+03  0.7818608E-02  0.1155993E+00
         21   -1    0    0  503  502  0.00000000000E+00  0.00000000000E+00  0.98399677449E+03  0.98399677449E+03  0.00000000000E+00 0.  1.
         21   -1    0    0  501  503 -0.00000000000E+00 -0.00000000000E+00 -0.51549102599E+02  0.51549102599E+02  0.00000000000E+00 0.  1.
          6    2    1    2  501    0  0.66564345267E+02 -0.56412360673E+02  0.19840159851E+03  0.27675290190E+03  0.17209244005E+03 0.  0.
         24    2    3    3    0    0  0.64256710162E+02 -0.75508928553E+01  0.20289834755E+03  0.22740638258E+03  0.79749499163E+02 0.  0.
         -6    2    1    2    0  502 -0.66564345267E+02  0.56412360673E+02  0.73404607338E+03  0.75879297519E+03  0.17125996278E+03 0.  0.
        -24    2    5    5    0    0 -0.78681297266E+02  0.59301097587E+01  0.65071070367E+03  0.66049672893E+03  0.81274819711E+02 0.  0.
          5    1    3    3  501    0  0.23076351049E+01 -0.48861467818E+02 -0.44967490384E+01  0.49346519320E+02  0.47000000000E+01 0. -1.
        -11    1    4    4    0    0  0.25088687130E+01 -0.27981660682E+02  0.11304548415E+03  0.11648411584E+03  0.00000000000E+00 0.  1.
         12    1    4    4    0    0  0.61747841449E+02  0.20430767827E+02  0.89852863399E+02  0.11092226674E+03  0.00000000000E+00 0. -1.
         -5    1    5    5    0  502  0.12116951999E+02  0.50482250915E+02  0.83335369714E+02  0.98296246258E+02  0.47000000000E+01 0.  1.
         13    1    6    6    0    0 -0.21120564037E+02  0.38380330826E+02  0.34193830223E+03  0.34473312947E+03  0.00000000000E+00 0. -1.
        -14    1    6    6    0    0 -0.57560733229E+02 -0.32450221067E+02  0.30877240144E+03  0.31576359946E+03  0.00000000000E+00 0.  1.
</event>
<event>
12    1  0.1046899E+000  0.5033427E+03  0.7818608E-02  0.1013026E+00
         21   -1    0    0  503  502  0.00000000000E+00  0.00000000000E+00  0.16843718662E+04  0.16843718662E+04  0.00000000000E+00 0. -1.
         21   -1    0    0  501  503 -0.00000000000E+00 -0.00000000000E+00 -0.15358050354E+03  0.15358050354E+03  0.00000000000E+00 0. -1.
          6    2    1    2  501    0 -0.31461469518E+03  0.35111287694E+03  0.90938122773E+03  0.10393883461E+04  0.17632713288E+03 0.  0.
         24    2    3    3    0    0 -0.20771361667E+03  0.14668687475E+03  0.42501316964E+03  0.50286962629E+03  0.87061362870E+02 0.  0.
         -6    2    1    2    0  502  0.31461469518E+03 -0.35111287694E+03  0.62141013494E+03  0.79856402369E+03  0.17114697002E+03 0.  0.
        -24    2    5    5    0    0  0.20136833708E+03 -0.29553786582E+03  0.39083894085E+03  0.53569811675E+03  0.79533372226E+02 0.  0.
          5    1    3    3  501    0 -0.10690107851E+03  0.20442600219E+03  0.48436805808E+03  0.53651871976E+03  0.47000000000E+01 0. -1.
        -13    1    4    4    0    0 -0.16857195901E+03  0.15464107010E+03  0.36606243101E+03  0.43166198504E+03  0.00000000000E+00 0.  1.
         14    1    4    4    0    0 -0.39141657664E+02 -0.79541953552E+01  0.58950738632E+02  0.71207641259E+02  0.00000000000E+00 0. -1.
         -5    1    5    5    0  502  0.11324635811E+03 -0.55575011119E+02  0.23057119410E+03  0.26286590694E+03  0.47000000000E+01 0.  1.
         13    1    6    6    0    0  0.11852484987E+03 -0.17190583146E+03  0.16931462127E+03  0.26882558640E+03  0.00000000000E+00 0. -1.
        -14    1    6    6    0    0  0.82843487207E+02 -0.12363203436E+03  0.22152431958E+03  0.26687253036E+03  0.00000000000E+00 0.  1.
</event>
<event>
12    1  0.1046899E+000  0.2031144E+03  0.7818608E-02  0.1147253E+00
         21   -1    0    0  501  502  0.00000000000E+00  0.00000000000E+00  0.33422319332E+03  0.33422319332E+03  0.00000000000E+00 0.  1.
         21   -1    0    0  502  503 -0.00000000000E+00 -0.00000000000E+00 -0.12925182729E+03  0.12925182729E+03  0.00000000000E+00 0.  1.
         -6    2    1    2    0  503 -0.77456681665E+02  0.73669471859E+02  0.15317771128E+03  0.25439903282E+03  0.17270995353E+03 0.  0.
        -24    2    3    3    0    0 -0.88373632773E+02  0.11579673163E+03  0.11526026457E+03  0.19648781972E+03  0.64060539214E+02 0.  0.
          6    2    1    2  501    0  0.77456681665E+02 -0.73669471859E+02  0.51793654747E+02  0.20907598779E+03  0.17205655285E+03 0.  0.
         24    2    5    5    0    0  0.25649219432E+02  0.50815539890E+01  0.74776430491E+02  0.11193673107E+03  0.79086108497E+02 0.  0.
          5    1    5    5  501    0  0.51807462233E+02 -0.78751025848E+02 -0.22982775744E+02  0.97139256720E+02  0.47000000000E+01 0. -1.
        -13    1    6    6    0    0 -0.26691280182E+02  0.28115423917E+01  0.42923532476E+02  0.50623698488E+02  0.00000000000E+00 0.  1.
         14    1    6    6    0    0  0.52340499614E+02  0.22700115973E+01  0.31852898015E+02  0.61313032582E+02  0.00000000000E+00 0. -1.
         -5    1    3    3    0  503  0.10916951108E+02 -0.42127259774E+02  0.37917446704E+02  0.57911213095E+02  0.47000000000E+01 0.  1.
         13    1    4    4    0    0  0.71422730397E+01  0.21622220577E+02  0.29556027056E+02  0.37310738698E+02  0.00000000000E+00 0. -1.
        -14    1    4    4    0    0 -0.95515905813E+02  0.94174511056E+02  0.85704237516E+02  0.15917708103E+03  0.00000000000E+00 0.  1.
</event>
<event>
12    1  0.1046899E+000  0.2516452E+03  0.7818608E-02  0.1113613E+00
         21   -1    0    0  501  502  0.00000000000E+00  0.00000000000E+00  0.10217609544E+03  0.10217609544E+03  0.00000000000E+00 0.  1.
         21   -1    0    0  502  503 -0.00000000000E+00 -0.00000000000E+00 -0.76120905255E+03  0.76120905255E+03  0.00000000000E+00 0.  1.
         -6    2    1    2    0  503  0.34272046095E+02 -0.18019358955E+03 -0.52423794130E+03  0.57791182783E+03  0.15972588639E+03 0.  0.
        -24    2    3    3    0    0  0.20720277850E+02 -0.20114014253E+03 -0.46082208343E+03  0.50960319343E+03  0.80322694906E+02 0.  0.
          6    2    1    2  501    0 -0.34272046095E+02  0.18019358955E+03 -0.13479501580E+03  0.28547332017E+03  0.17228179644E+03 0.  0.
         24    2    5    5    0    0 -0.77353895539E+02  0.10434169911E+03 -0.12434266200E+03  0.19749095412E+03  0.81674745427E+02 0.  0.
          5    1    5    5  501    0  0.43081849445E+02  0.75851890438E+02 -0.10452353808E+02  0.87982366044E+02  0.47000000000E+01 0. -1.
        -13    1    6    6    0    0 -0.59972048277E+02  0.39778431620E+02 -0.10606660758E+03  0.12817603301E+03  0.00000000000E+00 0.  1.
         14    1    6    6    0    0 -0.17381847262E+02  0.64563267491E+02 -0.18276054420E+02  0.69314921110E+02  0.00000000000E+00 0. -1.
         -5    1    3    3    0  503  0.13551768245E+02  0.20946552985E+02 -0.63415857870E+02  0.68308634402E+02  0.47000000000E+01 0.  1.
         11    1    4    4    0    0  0.27974998335E+02 -0.21453948206E+02 -0.10775990457E+03  0.11338019871E+03  0.00000000000E+00 0. -1.
        -12    1    4    4    0    0 -0.72547204853E+01 -0.17968619433E+03 -0.35306217886E+03  0.39622299472E+03  0.00000000000E+00 0.  1.
</event>
<event>
12    1  0.1046899E+000  0.4447917E+03  0.7818608E-02  0.1029412E+00
         21   -1    0    0  503  502  0.00000000000E+00  0.00000000000E+00  0.33503211089E+03  0.33503211089E+03  0.00000000000E+00 0. -1.
         21   -1    0    0  501  503 -0.00000000000E+00 -0.00000000000E+00 -0.86874895290E+03  0.86874895290E+03  0.00000000000E+00 0. -1.
          6    2    1    2  501    0  0.57262116682E+02 -0.40594065520E+03  0.74772298425E+02  0.45103279561E+03  0.17254831368E+03 0.  0.
         24    2    3    3    0    0  0.92619643993E+02 -0.22445831257E+03  0.77049415101E+02  0.26606449918E+03  0.76770911297E+02 0.  0.
         -6    2    1    2    0  502 -0.57262116682E+02  0.40594065520E+03 -0.60848914044E+03  0.75274826818E+03  0.16823838938E+03 0.  0.
        -24    2    5    5    0    0  0.16704117588E+02  0.16900382291E+03 -0.19842625253E+03  0.27339064766E+03  0.80796960537E+02 0.  0.
          5    1    3    3  501    0 -0.35357527312E+02 -0.18148234263E+03 -0.22771166767E+01  0.18496829643E+03  0.47000000000E+01 0. -1.
        -11    1    4    4    0    0  0.43054827459E+02 -0.18096791676E+03  0.73549767286E+02  0.20003168082E+03  0.00000000000E+00 0.  1.
         12    1    4    4    0    0  0.49564816534E+02 -0.43490395812E+02  0.34996478151E+01  0.66032818361E+02  0.00000000000E+00 0. -1.
         -5    1    5    5    0  502 -0.73966234270E+02  0.23693683229E+03 -0.41006288791E+03  0.47935762052E+03  0.47000000000E+01 0.  1.
         13    1    6    6    0    0  0.19985162348E+02  0.31527525394E+02 -0.92689883158E+02  0.99924001178E+02  0.00000000000E+00 0. -1.
        -14    1    6    6    0    0 -0.32810447593E+01  0.13747629752E+03 -0.10573636937E+03  0.17346664648E+03  0.00000000000E+00 0.  1.
</event>
<event>
12    1  0.1046899E+000  0.1922220E+03  0.7818608E-02  0.1156542E+00
         21   -1    0    0  501  502  0.00000000000E+00  0.00000000000E+00  0.13496686292E+03  0.13496686292E+03  0.00000000000E+00 0. -1.
         21   -1    0    0  502  503 -0.00000000000E+00 -0.00000000000E+00 -0.35835089719E+03  0.35835089719E+03  0.00000000000E+00 0. -1.
         -6    2    1    2    0  503  0.39333345025E+02 -0.77071136516E+02  0.85293905835E+01  0.19209836993E+03  0.17129495355E+03 0.  0.
        -24    2    3    3    0    0 -0.27595924671E+02 -0.17304263822E+00  0.25464955733E+02  0.88649119807E+02  0.80303408831E+02 0.  0.
          6    2    1    2  501    0 -0.39333345025E+02  0.77071136516E+02 -0.23191342485E+03  0.30121939018E+03  0.17164560081E+03 0.  0.
         24    2    5    5    0    0 -0.73150981434E+02  0.11130844566E+02 -0.95055976690E+02  0.14551516495E+03  0.81633710817E+02 0.  0.
          5    1    5    5  501    0  0.33817636408E+02  0.65940291951E+02 -0.13685744816E+03  0.15570422522E+03  0.47000000000E+01 0. -1.
        -11    1    6    6    0    0 -0.37745844575E+02  0.42328235337E+02 -0.27290231643E+02  0.62937945887E+02  0.00000000000E+00 0.  1.
         12    1    6    6    0    0 -0.35405136859E+02 -0.31197390772E+02 -0.67765745048E+02  0.82577219067E+02  0.00000000000E+00 0. -1.
         -5    1    3    3    0  503  0.66929269696E+02 -0.76898093878E+02 -0.16935565150E+02  0.10344925012E+03  0.47000000000E+01 0.  1.
         11    1    4    4    0    0 -0.46783637499E+02 -0.12106067311E+02 -0.72747155587E+01  0.48869081123E+02  0.00000000000E+00 0. -1.
        -12    1    4    4    0    0  0.19187712828E+02  0.11933024673E+02  0.32739671292E+02  0.39780038684E+02  0.00000000000E+00 0.  1.
</event>
<event>
12    1  0.1046899E+000  0.2204948E+03  0.7818608E-02  0.1133561E+00
         21   -1    0    0  503  502  0.00000000000E+00  0.00000000000E+00  0.33391081375E+03  0.33391081375E+03  0.00000000000E+00 0. -1.
         21   -1    0    0  501  503 -0.00000000000E+00 -0.00000000000E+00 -0.20764127697E+03  0.20764127697E+03  0.00000000000E+00 0. -1.
          6    2    1    2  501    0 -0.13432005369E+03  0.32366781718E+02  0.21131311594E+03  0.30522528330E+03  0.17152187969E+03 0.  0.
         24    2    3    3    0    0 -0.12545818719E+03  0.65075659756E+02  0.10496071355E+03  0.19350542439E+03  0.80330564875E+02 0.  0.
         -6    2    1    2    0  502  0.13432005369E+03 -0.32366781718E+02 -0.85043579159E+02  0.23632680743E+03  0.17183848280E+03 0.  0.
        -24    2    5    5    0    0  0.76320475062E+02  0.38280937818E+02 -0.85175008383E+02  0.14479998802E+03  0.80137440468E+02 0.  0.
          5    1    3    3  501    0 -0.88618665010E+01 -0.32708878038E+02  0.10635240239E+03  0.11171985891E+03  0.47000000000E+01 0. -1.
        -11    1    4    4    0    0 -0.17533104155E+02  0.30555566990E+02 -0.50344281933E+01  0.35586484550E+02  0.00000000000E+00 0.  1.
         12    1    4    4    0    0 -0.10792508303E+03  0.34520092766E+02  0.10999514174E+03  0.15791893984E+03  0.00000000000E+00 0. -1.
         -5    1    5    5    0  502  0.57999578628E+02 -0.70647719536E+02  0.13142922362E+00  0.91526819404E+02  0.47000000000E+01 0.  1.
         13    1    6    6    0    0 -0.29276002833E+01  0.26757991929E+01 -0.51453249502E+02  0.51605887542E+02  0.00000000000E+00 0. -1.
        -14    1    6    6    0    0  0.79248075346E+02  0.35605138625E+02 -0.33721758881E+02  0.93194100481E+02  0.00000000000E+00 0.  1.
</event>
<event>
12    1  0.1046899E+000  0.4816616E+03  0.7818608E-02  0.1018696E+00
         21   -1    0    0  503  502  0.00000000000E+00  0.00000000000E+00  0.30053263525E+03  0.30053263525E+03  0.00000000000E+00 0.  1.
         21   -1    0    0  501  503 -0.00000000000E+00 -0.00000000000E+00 -0.92188625726E+03  0.92188625726E+03  0.00000000000E+00 0.  1.
          6    2    1    2  501    0 -0.31870565646E+03 -0.31671000892E+03 -0.55741536855E+03  0.73653207734E+03  0.17288459342E+03 0.  0.
         24    2    3    3    0    0 -0.68665943827E+02 -0.13982058954E+03 -0.19388465681E+03  0.26115181590E+03  0.79650497191E+02 0.  0.
         -6    2    1    2    0  502  0.31870565646E+03  0.31671000892E+03 -0.63938253462E+02  0.48588681517E+03  0.17354933504E+03 0.  0.
        -24    2    5    5    0    0  0.18757812544E+03  0.10001420899E+03 -0.11403608422E+02  0.22717176337E+03  0.79300521088E+02 0.  0.
          5    1    3    3  501    0 -0.25003971264E+03 -0.17688941938E+03 -0.36353071174E+03  0.47538026144E+03  0.47000000000E+01 0. -1.
        -13    1    4    4    0    0 -0.56754946760E+02 -0.72365760848E+02 -0.57309925947E+02  0.10836214716E+03  0.00000000000E+00 0.  1.
         14    1    4    4    0    0 -0.11910997066E+02 -0.67454828691E+02 -0.13657473086E+03  0.15278966874E+03  0.00000000000E+00 0. -1.
         -5    1    5    5    0  502  0.13112753102E+03  0.21669579993E+03 -0.52534645040E+02  0.25871505180E+03  0.47000000000E+01 0.  1.
         13    1    6    6    0    0  0.58951365164E+02  0.68980896967E+02 -0.25101168400E+02  0.94147205248E+02  0.00000000000E+00 0. -1.
        -14    1    6    6    0    0  0.12862676028E+03  0.31033312019E+02  0.13697559978E+02  0.13302455812E+03  0.00000000000E+00 0.  1.
</event>
<event>
12    1  0.1046899E+000  0.1740757E+03  0.7818608E-02  0.1174057E+00
         21   -1    0    0  503  502  0.00000000000E+00  0.00000000000E+00  0.37943899887E+03  0.37943899887E+03  0.00000000000E+00 0. -1.
         21   -1    0    0  501  503 -0.00000000000E+00 -0.00000000000E+00 -0.95776208599E+02  0.95776208599E+02  0.00000000000E+00 0. -1.
          6    2    1    2  501    0  0.10338835412E+02 -0.69092884276E+01  0.24030137649E+03  0.29582021440E+03  0.17207619801E+03 0.  0.
         24    2    3    3    0    0  0.42950832575E+02 -0.60736875332E+02  0.17258818754E+03  0.20325608836E+03  0.77411968948E+02 0.  0.
         -6    2    1    2    0  502 -0.10338835412E+02  0.69092884276E+01  0.43361413780E+02  0.17939499307E+03  0.17363099248E+03 0.  0.
        -24    2    5    5    0    0  0.30203638537E+02 -0.18762533002E+02  0.80297835870E+02  0.11865683466E+03  0.79796049661E+02 0.  0.
          5    1    3    3  501    0 -0.32611997163E+02  0.53827586904E+02  0.67713188957E+02  0.92564126040E+02  0.47000000000E+01 0. -1.
        -11    1    4    4    0    0 -0.49552646497E+01  0.11286078046E+02  0.60122118028E+02  0.61372626485E+02  0.00000000000E+00 0.  1.
         12    1    4    4    0    0  0.47906097224E+02 -0.72022953378E+02  0.11246606951E+03  0.14188346188E+03  0.00000000000E+00 0. -1.
         -5    1    5    5    0  502 -0.40542473949E+02  0.25671821430E+02 -0.36936422090E+02  0.60738158403E+02  0.47000000000E+01 0.  1.
         13    1    6    6    0    0  0.56785971215E+02 -0.10401394465E+02  0.42453847722E+02  0.71660063634E+02  0.00000000000E+00 0. -1.
        -14    1    6    6    0    0 -0.26582332678E+02 -0.83611385376E+01  0.37843988148E+02  0.46996771029E+02  0.00000000000E+00 0.  1.
</event>
<event>
12    1  0.1046899E+000  0.1849422E+03  0.7818608E-02  0.1163842E+00
         21   -1    0    0  503  502  0.00000000000E+00  0.00000000000E+00  0.77903103896E+02  0.77903103896E+02  0.00000000000E+00 0. -1.
         21   -1    0    0  501  503 -0.00000000000E+00 -0.00000000000E+00 -0.44209662685E+03  0.44209662685E+03  0.00000000000E+00 0. -1.
          6    2    1    2  501    0  0.10042961744E+02 -0.63319021362E+02 -0.22054239493E+03  0.28582187087E+03  0.17013240243E+03 0.  0.
         24    2    3    3    0    0  0.21964731050E+02 -0.10700282421E+03 -0.16536522918E+03  0.21428857209E+03  0.81497725769E+02 0.  0.
         -6    2    1    2    0  502 -0.10042961744E+02  0.63319021362E+02 -0.14365112802E+03  0.23417785988E+03  0.17347467807E+03 0.  0.
        -24    2    5    5    0    0 -0.45574325733E+02 -0.20168180303E+02 -0.85786059564E+02  0.12646042018E+03  0.78416931805E+02 0.  0.
          5    1    3    3  501    0 -0.11921769306E+02  0.43683802844E+02 -0.55177165750E+02  0.71533298781E+02  0.47000000000E+01 0. -1.
        -11    1    4    4    0    0 -0.11921029895E+02 -0.73560607903E+02 -0.14392798319E+03  0.16207571790E+03  0.00000000000E+00 0.  1.
         12    1    4    4    0    0  0.33885760945E+02 -0.33442216302E+02 -0.21437245994E+02  0.52212854182E+02  0.00000000000E+00 0. -1.
         -5    1    5    5    0  502  0.35531363988E+02  0.83487201665E+02 -0.57865068461E+02  0.10771743971E+03  0.47000000000E+01 0.  1.
         13    1    6    6    0    0  0.37896281400E+01 -0.95164951623E+01  0.12378888792E+02  0.16067415764E+02  0.00000000000E+00 0. -1.
        -14    1    6    6    0    0 -0.49363953873E+02 -0.10651685141E+02 -0.98164948355E+02  0.11039300442E+03  0.00000000000E+00 0.  1.
</event>
<event>
12    1  0.1046899E+000  0.2405909E+03  0.7818608E-02  0.1120363E+00
         21   -1    0    0  503  502  0.00000000000E+00  0.00000000000E+00  0.10526277946E+04  0.10526277946E+04  0.00000000000E+00 0.  1.
         21   -1    0    0  501  503 -0.00000000000E+00 -0.00000000000E+00 -0.65960487931E+02  0.65960487931E+02  0.00000000000E+00 0.  1.
          6    2    1    2  501    0 -0.94365050973E+02 -0.12024501292E+03  0.24726636052E+03  0.34102943311E+03  0.17831655904E+03 0.  0.
         24    2    3    3    0    0 -0.12394045168E+02 -0.10142679557E+03  0.63336953979E+02  0.13872894451E+03  0.69232529134E+02 0.  0.
         -6    2    1    2    0  502  0.94365050973E+02  0.12024501292E+03  0.73940094611E+03  0.77755884938E+03  0.18579660698E+03 0.  0.
        -24    2    5    5    0    0  0.13600005130E+03  0.12096258626E+03  0.60533132505E+03  0.63709269169E+03  0.79580924179E+02 0.  0.
          5    1    3    3  501    0 -0.81971005805E+02 -0.18818217346E+02  0.18392940655E+03  0.20230048860E+03  0.47000000000E+01 0. -1.
        -13    1    4    4    0    0  0.19371182130E+02 -0.75888902707E+02  0.23587047948E+02  0.81796803618E+02  0.00000000000E+00 0.  1.
         14    1    4    4    0    0 -0.31765227299E+02 -0.25537892866E+02  0.39749906030E+02  0.56932140894E+02  0.00000000000E+00 0. -1.
         -5    1    5    5    0  502 -0.41635000331E+02 -0.71757334151E+00  0.13406962106E+03  0.14046615769E+03  0.47000000000E+01 0.  1.
         13    1    6    6    0    0  0.28267825804E+02  0.76790861628E+02  0.26951972627E+03  0.28166787047E+03  0.00000000000E+00 0. -1.
        -14    1    6    6    0    0  0.10773222550E+03  0.44171724633E+02  0.33581159878E+03  0.35542482122E+03  0.00000000000E+00 0.  1.
</event>
<event>
12    1  0.1046899E+000  0.2794029E+03  0.7818608E-02  0.1096236E+00
         21   -1    0    0  501  502  0.00000000000E+00  0.00000000000E+00  0.17805141993E+03  0.17805141993E+03  0.00000000000E+00 0. -1.
         21   -1    0    0  502  503 -0.00000000000E+00 -0.00000000000E+00 -0.44190329686E+03  0.44190329686E+03  0.00000000000E+00 0. -1.
         -6    2    1    2    0  503 -0.19170362511E+03  0.10258797761E+03 -0.16759412728E+03  0.32443562856E+03  0.17290492344E+03 0.  0.
        -24    2    3    3    0    0 -0.15975439422E+03  0.12110891141E+03 -0.18419526788E+03  0.28367454157E+03  0.79715205133E+02 0.  0.
          6    2    1    2  501    0  0.19170362511E+03 -0.10258797761E+03 -0.96257749654E+02  0.29551908823E+03  0.17547479622E+03 0.  0.
         24    2    5    5    0    0  0.14814221754E+03 -0.10106210618E+03 -0.66201240350E+01  0.19573472854E+03  0.78157481987E+02 0.  0.
          5    1    5    5  501    0  0.43561407575E+02 -0.15258714394E+01 -0.89637625619E+02  0.99784359697E+02  0.47000000000E+01 0. -1.
        -11    1    6    6    0    0  0.14883204677E+03 -0.70139012722E+02 -0.84679569455E+01  0.16474879528E+03  0.00000000000E+00 0.  1.
         12    1    6    6    0    0 -0.68982923346E+00 -0.30923093454E+02  0.18478329105E+01  0.30985933253E+02  0.00000000000E+00 0. -1.
         -5    1    3    3    0  503 -0.31949230892E+02 -0.18520933791E+02  0.16601140607E+02  0.40761086989E+02  0.47000000000E+01 0.  1.
         13    1    4    4    0    0 -0.38988534567E+02  0.81126239367E+01 -0.76704944655E+02  0.86426668508E+02  0.00000000000E+00 0. -1.
        -14    1    4    4    0    0 -0.12076585965E+03  0.11299628747E+03 -0.10749032323E+03  0.19724787306E+03  0.00000000000E+00 0.  1.
</event>
<event>
12    1  0.1046899E+000  0.2439048E+03  0.7818608E-02  0.1117227E+00
         21   -1    0    0  501  502  0.00000000000E+00  0.00000000000E+00  0.27005378033E+03  0.27005378033E+03  0.00000000000E+00 0. -1.
         21   -1    0    0  502  503 -0.00000000000E+00 -0.00000000000E+00 -0.24301873146E+03  0.24301873146E+03  0.00000000000E+00 0. -1.
         -6    2    1    2    0  503 -0.17004525210E+03 -0.33620539645E+02  0.92061054232E+02  0.26070057292E+03  0.17159202360E+03 0.  0.
        -24    2    3    3    0    0 -0.23816513890E+02  0.22406141285E+02  0.33841190499E+02  0.93567466117E+02  0.80872634680E+02 0.  0.
          6    2    1    2  501    0  0.17004525210E+03  0.33620539645E+02 -0.65026005361E+02  0.25237193887E+03  0.17151526377E+03 0.  0.
         24    2    5    5    0    0  0.12823207075E+03  0.79573653091E+02 -0.80726168991E+02  0.18811763233E+03  0.78077519173E+02 0.  0.
          5    1    5    5  501    0  0.41813181356E+02 -0.45953113445E+02  0.15700163630E+02  0.64254306536E+02  0.47000000000E+01 0. -1.
        -13    1    6    6    0    0  0.11643686595E+03  0.91773609940E+02 -0.56756249697E+02  0.15874889327E+03  0.00000000000E+00 0.  1.
         14    1    6    6    0    0  0.11795204797E+02 -0.12199956850E+02 -0.23969919295E+02  0.29368739066E+02  0.00000000000E+00 0. -1.
         -5    1    3    3    0  503 -0.14622873821E+03 -0.56026680930E+02  0.58219863734E+02  0.16713310680E+03  0.47000000000E+01 0.  1.
         13    1    4    4    0    0 -0.19642247237E+02  0.49828919027E+02  0.53885190265E+01  0.53830987221E+02  0.00000000000E+00 0. -1.
        -14    1    4    4    0    0 -0.41742666533E+01 -0.27422777742E+02  0.28452671472E+02  0.39736478896E+02  0.00000000000E+00 0.  1.
</event>
<event>
12    1  0.1046899E+000  0.1955708E+03  0.7818608E-02  0.1153569E+00
         21   -1    0    0  501  502  0.00000000000E+00  0.00000000000E+00  0.80508774761E+02  0.80508774761E+02  0.00000000000E+00 0. -1.
         21   -1    0    0  502  503 -0.00000000000E+00 -0.00000000000E+00 -0.65910556299E+03  0.65910556299E+03  0.00000000000E+00 0. -1.
         -6    2    1    2    0  503 -0.72446464691E+02  0.55591098805E+02 -0.48502872626E+03  0.52297302628E+03  0.17294236150E+03 0.  0.
        -24    2    3    3    0    0 -0.15656282276E+02 -0.25137332281E+02 -0.13718800818E+03  0.16136901695E+03  0.79639220205E+02 0.  0.
          6    2    1    2  501    0  0.72446464691E+02 -0.55591098805E+02 -0.93568061962E+02  0.21664131147E+03  0.17274146897E+03 0.  0.
         24    2    5    5    0    0 -0.25252465296E+02 -0.44303892638E+01 -0.22267030670E+02  0.85231927540E+02  0.78175094914E+02 0.  0.
          5    1    5    5  501    0  0.97698929987E+02 -0.51160709541E+02 -0.71301031293E+02  0.13140938393E+03  0.47000000000E+01 0. -1.
        -11    1    6    6    0    0 -0.38247670274E+02  0.17867742782E+02 -0.36457906431E+02  0.55779202709E+02  0.00000000000E+00 0.  1.
         12    1    6    6    0    0  0.12995204977E+02 -0.22298132046E+02  0.14190875761E+02  0.29452724831E+02  0.00000000000E+00 0. -1.
         -5    1    3    3    0  503 -0.56790182415E+02  0.80728431086E+02 -0.34784071808E+03  0.36160400932E+03  0.47000000000E+01 0.  1.
         13    1    4    4    0    0 -0.44029077558E+02 -0.26746685928E+02 -0.59812046591E+02  0.78939380515E+02  0.00000000000E+00 0. -1.
        -14    1    4    4    0    0  0.28372795282E+02  0.16093536469E+01 -0.77375961591E+02  0.82429636439E+02  0.00000000000E+00 0.  1.
</event>
<event>
12    1  0.1046899E+000  0.1891734E+03  0.7818608E-02  0.1159363E+00
         21   -1    0    0  501  502  0.00000000000E+00  0.00000000000E+00  0.13587197542E+03  0.13587197542E+03  0.00000000000E+00 0. -1.
         21   -1    0    0  502  503 -0.00000000000E+00 -0.00000000000E+00 -0.26506837602E+03  0.26506837602E+03  0.00000000000E+00 0. -1.
         -6    2    1    2    0  503  0.76530551812E+02 -0.14548959465E+02 -0.44515563146E+02  0.19367865245E+03  0.17164261554E+03 0.  0.
        -24    2    3    3    0    0  0.11171284588E+03 -0.42649258170E+02 -0.40927323228E+02  0.14826515149E+03  0.77516386678E+02 0.  0.
          6    2    1    2  501    0 -0.76530551812E+02  0.14548959465E+02 -0.84680837458E+02  0.20726169899E+03  0.17238900793E+03 0.  0.
         24    2    5    5    0    0 -0.10245028929E+03  0.17590634481E+02 -0.20148424608E+02  0.13749346205E+03  0.87709753703E+02 0.  0.
          5    1    5    5  501    0  0.25919737478E+02 -0.30416750154E+01 -0.64532412850E+02  0.69768236943E+02  0.47000000000E+01 0. -1.
        -11    1    6    6    0    0 -0.52305440594E+02  0.53118009886E+02 -0.10377516644E+02  0.75266692114E+02  0.00000000000E+00 0.  1.
         12    1    6    6    0    0 -0.50144848695E+02 -0.35527375406E+02 -0.97709079640E+01  0.62226769933E+02  0.00000000000E+00 0. -1.
         -5    1    3    3    0  503 -0.35182294068E+02  0.28100298704E+02 -0.35882399174E+01  0.45413500954E+02  0.47000000000E+01 0.  1.
         13    1    4    4    0    0 -0.58943885736E+00 -0.25421188393E+02 -0.20862048966E+02  0.32890870231E+02  0.00000000000E+00 0. -1.
        -14    1    4    4    0    0  0.11230228474E+03 -0.17228069776E+02 -0.20065274262E+02  0.11537428126E+03  0.00000000000E+00 0.  1.
</event>
<event>
12    1  0.1046899E+000  0.2028801E+03  0.7818608E-02  0.1148656E+00
         21   -1    0    0  503  502  0.00000000000E+00  0.00000000000E+00  0.70724155990E+03  0.70724155990E+03  0.00000000000E+00 0.  1.
         21   -1    0    0  501  503 -0.00000000000E+00 -0.00000000000E+00 -0.14958058534E+03  0.14958058534E+03  0.00000000000E+00 0.  1.
          6    2    1    2  501    0  0.73834092208E+02 -0.80274361671E+02  0.61858832689E+03  0.65100833467E+03  0.17106983172E+03 0.  0.
         24    2    3    3    0    0  0.57407500432E+02 -0.11218077177E+03  0.34690626858E+03  0.37692607926E+03  0.76479823366E+02 0.  0.
         -6    2    1    2    0  502 -0.73834092208E+02  0.80274361671E+02 -0.60927352336E+02  0.20581381057E+03  0.16355957950E+03 0.  0.
        -24    2    5    5    0    0 -0.10144461486E+03  0.20693751087E+02 -0.36671677553E+02  0.13565244030E+03  0.79608613910E+02 0.  0.
          5    1    3    3  501    0  0.16426591777E+02  0.31906410097E+02  0.27168205831E+03  0.27408225541E+03  0.47000000000E+01 0. -1.
        -11    1    4    4    0    0 -0.18934711938E+02 -0.25839475958E+02  0.81956631561E+02  0.87994836728E+02  0.00000000000E+00 0.  1.
         12    1    4    4    0    0  0.76342212370E+02 -0.86341295809E+02  0.26494963702E+03  0.28893124253E+03  0.00000000000E+00 0. -1.
         -5    1    5    5    0  502  0.27610522648E+02  0.59580610584E+02 -0.24255674783E+02  0.70161370266E+02  0.47000000000E+01 0.  1.
         13    1    6    6    0    0 -0.83165454880E+02 -0.20176923178E+02 -0.20057532523E+02  0.87897131496E+02  0.00000000000E+00 0. -1.
        -14    1    6    6    0    0 -0.18279159976E+02  0.40870674265E+02 -0.16614145030E+02  0.47755308809E+02  0.00000000000E+00 0.  1.
</event>
<event>
12    1  0.1046899E+000  0.1959085E+03  0.7818608E-02  0.1154470E+00
         21   -1    0    0  501  502  0.00000000000E+00  0.00000000000E+00  0.76972404161E+02  0.76972404161E+02  0.00000000000E+00 0. -1.
         21   -1    0    0  502  503 -0.00000000000E+00 -0.00000000000E+00 -0.76134460513E+03  0.76134460513E+03  0.00000000000E+00 0. -1.
         -6    2    1    2    0  503  0.50965920726E+02  0.79926579036E+02 -0.92588490585E+02  0.21668585960E+03  0.17144780561E+03 0.  0.
        -24    2    3    3    0    0  0.92181970710E+02  0.20899137146E+02 -0.62228072099E+02  0.13841168325E+03  0.79694237217E+02 0.  0.
          6    2    1    2  501    0 -0.50965920726E+02 -0.79926579036E+02 -0.59178371038E+03  0.62163114969E+03  0.16501982694E+03 0.  0.
         24    2    5    5    0    0 -0.61682988538E+02 -0.89087524933E-01 -0.42740439540E+03  0.43851498496E+03  0.76263200913E+02 0.  0.
          5    1    5    5  501    0  0.10717067811E+02 -0.79837491511E+02 -0.16437931499E+03  0.18311616474E+03  0.47000000000E+01 0. -1.
        -11    1    6    6    0    0 -0.55705852552E+01 -0.16800859616E+02 -0.19124632635E+02  0.26058623858E+02  0.00000000000E+00 0.  1.
         12    1    6    6    0    0 -0.56112403282E+02  0.16711772091E+02 -0.40827976276E+03  0.41245636110E+03  0.00000000000E+00 0. -1.
         -5    1    3    3    0  503 -0.41216049984E+02  0.59027441890E+02 -0.30360418486E+02  0.78274176348E+02  0.47000000000E+01 0.  1.
         13    1    4    4    0    0  0.38140892853E+02 -0.24144755315E+02 -0.10074880867E+01  0.45152097948E+02  0.00000000000E+00 0. -1.
        -14    1    4    4    0    0  0.54041077857E+02  0.45043892461E+02 -0.61220584012E+02  0.93259585302E+02  0.00000000000E+00 0.  1.
</event>
<event>
12    1  0.1046899E+000  0.1818930E+03  0.7818608E-02  0.1166145E+00
         21   -1    0    0  501  502  0.00000000000E+00  0.00000000000E+00  0.84697645150E+03  0.84697645150E+03  0.00000000000E+00 0. -1.
         21   -1    0    0  502  503 -0.00000000000E+00 -0.00000000000E+00 -0.71291150598E+02  0.71291150598E+02  0.00000000000E+00 0. -1.
         -6    2    1    2    0  503  0.56723350477E+02  0.23948790491E+02  0.69684488919E+03  0.72002310085E+03  0.17043879580E+03 0.  0.
        -24    2    3    3    0    0  0.89669718493E+02  0.32783494237E+02  0.34868842480E+03  0.37016808967E+03  0.79532264573E+02 0.  0.
          6    2    1    2  501    0 -0.56723350477E+02 -0.23948790491E+02  0.78840411719E+02  0.19824450125E+03  0.17115486760E+03 0.  0.
         24    2    5    5    0    0  0.28835057471E+02 -0.39732294060E+01  0.83385432938E+01  0.85497582613E+02  0.79956602211E+02 0.  0.
          5    1    5    5  501    0 -0.85558407948E+02 -0.19975561086E+02  0.70501868425E+02  0.11274691864E+03  0.47000000000E+01 0. -1.
        -11    1    6    6    0    0 -0.69604461743E+00 -0.39066780378E+02  0.12952438490E+01  0.39094442876E+02  0.00000000000E+00 0.  1.
         12    1    6    6    0    0  0.29531102088E+02  0.35093550972E+02  0.70432994448E+01  0.46403139737E+02  0.00000000000E+00 0. -1.
         -5    1    3    3    0  503 -0.32946368015E+02 -0.88347037451E+01  0.34815646438E+03  0.34985501118E+03  0.47000000000E+01 0.  1.
         13    1    4    4    0    0  0.12874043954E+02  0.23600813038E+02  0.20705496505E+03  0.20879295471E+03  0.00000000000E+00 0. -1.
        -14    1    4    4    0    0  0.76795674539E+02  0.91826811989E+01  0.14163345975E+03  0.16137513496E+03  0.00000000000E+00 0.  1.
</event>
<event>
12    1  0.1046899E+000  0.1833128E+03  0.7818608E-02  0.1164715E+00
         21   -1    0    0  503  502  0.00000000000E+00  0.00000000000E+00  0.62510637180E+02  0.62510637180E+02  0.00000000000E+00 0.  1.
         21   -1    0    0  501  503 -0.00000000000E+00 -0.00000000000E+00 -0.57968095705E+03  0.57968095705E+03  0.00000000000E+00 0.  1.
          6    2    1    2  501    0  0.60905933146E+02 -0.22216435427E+02 -0.34592307475E+03  0.39133467457E+03  0.17110508812E+03 0.  0.
         24    2    3    3    0    0  0.70996894992E+02 -0.27012163093E+02 -0.35789590305E+03  0.37429750542E+03  0.78986891903E+02 0.  0.
         -6    2    1    2    0  502 -0.60905933146E+02  0.22216435427E+02 -0.17124724513E+03  0.25085691967E+03  0.17146565979E+03 0.  0.
        -24    2    5    5    0    0  0.61169400205E+01  0.46455728977E+02 -0.15016220197E+03  0.17638358267E+03  0.79793042452E+02 0.  0.
          5    1    3    3  501    0 -0.10090961846E+02  0.47957276663E+01  0.11972828304E+02  0.17037169143E+02  0.47000000000E+01 0. -1.
        -13    1    4    4    0    0  0.31233913413E+02  0.24837090731E+02 -0.88335970372E+02  0.96931326642E+02  0.00000000000E+00 0.  1.
         14    1    4    4    0    0  0.39762981579E+02 -0.51849253824E+02 -0.26955993268E+03  0.27736617878E+03  0.00000000000E+00 0. -1.
         -5    1    5    5    0  502 -0.67022873166E+02 -0.24239293550E+02 -0.21085043159E+02  0.74473337002E+02  0.47000000000E+01 0.  1.
         11    1    6    6    0    0 -0.33467848180E+02  0.60322795209E+01 -0.74615210057E+02  0.81999480669E+02  0.00000000000E+00 0. -1.
        -12    1    6    6    0    0  0.39584788201E+02  0.40423449456E+02 -0.75546991912E+02  0.94384101997E+02  0.00000000000E+00 0.  1.
</event>
<event>
12    1  0.1046899E+000  0.2565150E+03  0.7818608E-02  0.1109482E+00
         21   -1    0    0  501  502  0.00000000000E+00  0.00000000000E+00  0.14891753838E+03  0.14891753838E+03  0.00000000000E+00 0.  1.
         21   -1    0    0  502  503 -0.00000000000E+00 -0.00000000000E+00 -0.44688090681E+03  0.44688090681E+03  0.00000000000E+00 0.  1.
         -6    2    1    2    0  503 -0.18057561444E+03  0.61537799802E+02 -0.11062393693E+03  0.27935212991E+03  0.17148033043E+03 0.  0.
        -24    2    3    3    0    0 -0.19981726903E+03  0.40214402285E+02 -0.72016558133E+02  0.23100393190E+03  0.81438889710E+02 0.  0.
          6    2    1    2  501    0  0.18057561444E+03 -0.61537799802E+02 -0.18733943151E+03  0.31644631529E+03  0.16925647558E+03 0.  0.
         24    2    5    5    0    0  0.14102190923E+03 -0.87886686038E+02 -0.84135258436E+02  0.20272758006E+03  0.80052992070E+02 0.  0.
          5    1    5    5  501    0  0.39553705211E+02  0.26348886236E+02 -0.10320417307E+03  0.11371873522E+03  0.47000000000E+01 0. -1.
        -13    1    6    6    0    0  0.12408944086E+03 -0.35521506343E+02 -0.53320817729E+02  0.13965341510E+03  0.00000000000E+00 0.  1.
         14    1    6    6    0    0  0.16932468374E+02 -0.52365179695E+02 -0.30814440707E+02  0.63074164963E+02  0.00000000000E+00 0. -1.
         -5    1    3    3    0  503  0.19241654582E+02  0.21323397517E+02 -0.38607378797E+02  0.48348198004E+02  0.47000000000E+01 0.  1.
         11    1    4    4    0    0 -0.46101294909E+02 -0.24401777182E+02 -0.10070526389E+02  0.53124303512E+02  0.00000000000E+00 0. -1.
        -12    1    4    4    0    0 -0.15371597412E+03  0.64616179467E+02 -0.61946031743E+02  0.17787962839E+03  0.00000000000E+00 0.  1.
</event>
<event>
12    1  0.1046899E+000  0.4379309E+03  0.7818608E-02  0.1031554E+00
         21   -1    0    0  503  502  0.00000000000E+00  0.00000000000E+00  0.17019776241E+03  0.17019776241E+03  0.00000000000E+00 0. -1.
         21   -1    0    0  501  503 -0.00000000000E+00 -0.00000000000E+00 -0.11246860528E+04  0.11246860528E+04  0.00000000000E+00 0.  1.
          6    2    1    2  501    0 -0.38299619357E+03 -0.11624526854E+03 -0.51471818504E+03  0.67580938492E+03  0.17772019579E+03 0.  0.
         24    2    3    3    0    0 -0.24807217226E+03  0.15090160906E+01 -0.31655303681E+03  0.40867256782E+03  0.72562819689E+02 0.  0.
         -6    2    1    2    0  502  0.38299619357E+03  0.11624526854E+03 -0.43977010534E+03  0.61907443028E+03  0.17221021436E+03 0.  0.
        -24    2    5    5    0    0  0.17538621478E+03  0.23890665331E+02 -0.16586583594E+03  0.26315742475E+03  0.10202581264E+03 0.  0.
          5    1    3    3  501    0 -0.13492402132E+03 -0.11775428463E+03 -0.19816514823E+03  0.26713681710E+03  0.47000000000E+01 0. -1.
        -13    1    4    4    0    0 -0.84695614961E+02 -0.28873429227E+02 -0.14052677560E+03  0.16659770938E+03  0.00000000000E+00 0.  1.
         14    1    4    4    0    0 -0.16337655729E+03  0.30382445317E+02 -0.17602626121E+03  0.24207485845E+03  0.00000000000E+00 0. -1.
         -5    1    5    5    0  502  0.20760997879E+03  0.92354603207E+02 -0.27390426940E+03  0.35591700553E+03  0.47000000000E+01 0.  1.
         13    1    6    6    0    0  0.16967781683E+03 -0.42483678115E+01 -0.16117591631E+03  0.23406470506E+03  0.00000000000E+00 0. -1.
        -14    1    6    6    0    0  0.57083979492E+01  0.28139033142E+02 -0.46899196287E+01  0.29092719698E+02  0.00000000000E+00 0.  1.
</event>
<event>
12    1  0.1046899E+000  0.1787491E+03  0.7818608E-02  0.1169139E+00
         21   -1    0    0  501  502  0.00000000000E+00  0.00000000000E+00  0.20956771584E+03  0.20956771584E+03  0.00000000000E+00 0. -1.
         21   -1    0    0  502  503 -0.00000000000E+00 -0.00000000000E+00 -0.29546599484E+03  0.29546599484E+03  0.00000000000E+00 0. -1.
         -6    2    1    2    0  503 -0.11481376124E+02 -0.48313944363E+02 -0.21891043570E+03  0.28261813376E+03  0.17171246738E+03 0.  0.
        -24    2    3    3    0    0 -0.71892384667E+01  0.20096110822E+01 -0.21721377282E+03  0.23186528809E+03  0.80771065560E+02 0.  0.
          6    2    1    2  501    0  0.11481376124E+02  0.48313944363E+02  0.13301215670E+03  0.22241557692E+03  0.17120279147E+03 0.  0.
         24    2    5    5    0    0 -0.44344724370E+02  0.65682808938E+02  0.11447293677E+03  0.16090115886E+03  0.80650131442E+02 0.  0.
          5    1    5    5  501    0  0.55826100494E+02 -0.17368864576E+02  0.18539219936E+02  0.61514418057E+02  0.47000000000E+01 0. -1.
        -11    1    6    6    0    0 -0.56192035283E+00  0.61688253024E+02  0.37319659668E+02  0.72100716455E+02  0.00000000000E+00 0.  1.
         12    1    6    6    0    0 -0.43782804017E+02  0.39945559145E+01  0.77153277100E+02  0.88800442408E+02  0.00000000000E+00 0. -1.
         -5    1    3    3    0  503 -0.42921376573E+01 -0.50323555445E+02 -0.16966628776E+01  0.50752845666E+02  0.47000000000E+01 0.  1.
         11    1    4    4    0    0  0.30579732340E+02  0.17380254309E+02 -0.60973046864E+02  0.70391091153E+02  0.00000000000E+00 0. -1.
        -12    1    4    4    0    0 -0.37768970806E+02 -0.15370643227E+02 -0.15624072596E+03  0.16147419694E+03  0.00000000000E+00 0.  1.
</event>
<event>
12    1  0.1046899E+000  0.1973351E+03  0.7818608E-02  0.1152498E+00
         21   -1    0    0  501  502  0.00000000000E+00  0.00000000000E+00  0.17729191558E+02  0.17729191558E+02  0.00000000000E+00 0.  1.
         21   -1    0    0  502  503 -0.00000000000E+00 -0.00000000000E+00 -0.22263261181E+04  0.22263261181E+04  0.00000000000E+00 0.  1.
         -6    2    1    2    0  503  0.51757885395E+02  0.79133618312E+02 -0.93402356543E+03  0.95464189696E+03  0.17320543407E+03 0.  0.
        -24    2    3    3    0    0  0.13433194973E+02  0.10324484824E+03 -0.84066248339E+03  0.85077412070E+03  0.79140659940E+02 0.  0.
          6    2    1    2  501    0 -0.51757885395E+02 -0.79133618312E+02 -0.12745733611E+04  0.12894134127E+04  0.17061268347E+03 0.  0.
         24    2    5    5    0    0 -0.96228502463E+02 -0.36816051906E+02 -0.75973208728E+03  0.77090397263E+03  0.80527909479E+02 0.  0.
          5    1    5    5  501    0  0.44470617068E+02 -0.42317566405E+02 -0.51484127384E+03  0.51850944009E+03  0.47000000000E+01 0. -1.
        -11    1    6    6    0    0 -0.13916884113E+02  0.14757666346E+01 -0.14460982227E+02  0.20124054202E+02  0.00000000000E+00 0.  1.
         12    1    6    6    0    0 -0.82311618350E+02 -0.38291818541E+02 -0.74527110505E+03  0.75077991843E+03  0.00000000000E+00 0. -1.
         -5    1    3    3    0  503  0.38324690421E+02 -0.24111229928E+02 -0.93361082041E+02  0.10386777626E+03  0.47000000000E+01 0.  1.
         13    1    4    4    0    0  0.43720847516E+02  0.54610879995E+02 -0.36223702120E+03  0.36893023764E+03  0.00000000000E+00 0. -1.
        -14    1    4    4    0    0 -0.30287652543E+02  0.48633968244E+02 -0.47842546219E+03  0.48184388306E+03  0.00000000000E+00 0.  1.
</event>
<event>
12    1  0.1046899E+000  0.1930725E+03  0.7818608E-02  0.1155794E+00
         21   -1    0    0  501  502  0.00000000000E+00  0.00000000000E+00  0.46728617798E+03  0.46728617798E+03  0.00000000000E+00 0. -1.
         21   -1    0    0  502  503 -0.00000000000E+00 -0.00000000000E+00 -0.79756986216E+02  0.79756986216E+02  0.00000000000E+00 0. -1.
         -6    2    1    2    0  503  0.70403894516E+02  0.50934993242E+02  0.18317671462E+03  0.26614033917E+03  0.17241197596E+03 0.  0.
        -24    2    3    3    0    0  0.16939232006E+02  0.33824135720E+02  0.18994802957E+03  0.20940241280E+03  0.79612227779E+02 0.  0.
          6    2    1    2  501    0 -0.70403894516E+02 -0.50934993242E+02  0.20435247714E+03  0.28090282503E+03  0.17203307907E+03 0.  0.
         24    2    5    5    0    0 -0.93392363517E+02 -0.67095593529E+02  0.93963267105E+02  0.16689623574E+03  0.76166302941E+02 0.  0.
          5    1    5    5  501    0  0.22988469002E+02  0.16160600287E+02  0.11038921004E+03  0.11400658929E+03  0.47000000000E+01 0. -1.
        -13    1    6    6    0    0 -0.62701859710E+02 -0.80149360441E+02  0.84382094202E+02  0.13219599469E+03  0.00000000000E+00 0.  1.
         14    1    6    6    0    0 -0.30690503807E+02  0.13053766912E+02  0.95811729032E+01  0.34700241047E+02  0.00000000000E+00 0. -1.
         -5    1    3    3    0  503  0.53464662510E+02  0.17110857523E+02 -0.67713149476E+01  0.56737926368E+02  0.47000000000E+01 0.  1.
         13    1    4    4    0    0 -0.27976573920E+02  0.29942005132E+02  0.68062233453E+02  0.79446082234E+02  0.00000000000E+00 0. -1.
        -14    1    4    4    0    0  0.44915805926E+02  0.38821305877E+01  0.12188579612E+03  0.12995633057E+03  0.00000000000E+00 0.  1.
</event>
<event>
12    1  0.1046899E+000  0.1756736E+03  0.7818608E-02  0.1173310E+00
         21   -1    0    0  501  502  0.00000000000E+00  0.00000000000E+00  0.51368981423E+02  0.51368981423E+02  0.00000000000E+00 0.  1.
         21   -1    0    0  502  503 -0.00000000000E+00 -0.00000000000E+00 -0.60670100736E+03  0.60670100736E+03  0.00000000000E+00 0.  1.
         -6    2    1    2    0  503  0.35328265117E+02 -0.98018887913E+01 -0.21784175742E+03  0.27985042863E+03  0.17180531943E+03 0.  0.
        -24    2    3    3    0    0  0.21911817070E+02 -0.65808640870E+02 -0.18425815710E+03  0.21301701208E+03  0.81328187218E+02 0.  0.
          6    2    1    2  501    0 -0.35328265117E+02  0.98018887913E+01 -0.33749026851E+03  0.37821956016E+03  0.16675188456E+03 0.  0.
         24    2    5    5    0    0 -0.23880014499E+02 -0.50787518546E+02 -0.14289121573E+03  0.17403087275E+03  0.81970836293E+02 0.  0.
          5    1    5    5  501    0 -0.11448250619E+02  0.60589407338E+02 -0.19459905278E+03  0.20418868741E+03  0.47000000000E+01 0. -1.
        -13    1    6    6    0    0  0.28860257958E+02 -0.28428958924E+02 -0.44491396624E+02  0.60171459750E+02  0.00000000000E+00 0.  1.
         14    1    6    6    0    0 -0.52740272457E+02 -0.22358559623E+02 -0.98399819108E+02  0.11385941300E+03  0.00000000000E+00 0. -1.
         -5    1    3    3    0  503  0.13416448047E+02  0.56006752079E+02 -0.33583600319E+02  0.66833416545E+02  0.47000000000E+01 0.  1.
         11    1    4    4    0    0 -0.16375154792E+02 -0.22226831155E+02 -0.13226675789E+03  0.13511725634E+03  0.00000000000E+00 0. -1.
        -12    1    4    4    0    0  0.38286971862E+02 -0.43581809715E+02 -0.51991399211E+02  0.77899755740E+02  0.00000000000E+00 0.  1.
</event>
<event>
12    1  0.1046899E+000  0.3209598E+03  0.7818608E-02  0.1075290E+00
         21   -1    0    0  503  502  0.00000000000E+00  0.00000000000E+00  0.53646286277E+03  0.53646286277E+03  0.00000000000E+00 0. -1.
         21   -1    0    0  501  503 -0.00000000000E+00 -0.00000000000E+00 -0.22972846249E+03  0.22972846249E+03  0.00000000000E+00 0.  1.
          6    2    1    2  501    0  0.31417971729E+02 -0.26869861207E+03  0.30929555315E+03  0.44522128493E+03  0.17138325554E+03 0.  0.
         24    2    3    3    0    0  0.65256683084E+02 -0.21340035296E+03  0.17236081270E+03  0.29364236493E+03  0.81972211120E+02 0.  0.
         -6    2    1    2    0  502 -0.31417971729E+02  0.26869861207E+03 -0.25611528679E+01  0.32097004033E+03  0.17271124516E+03 0.  0.
        -24    2    5    5    0    0 -0.79174430570E+02  0.22919973770E+03  0.21528902403E+02  0.25431224858E+03  0.73553490207E+02 0.  0.
          5    1    3    3  501    0 -0.33838711355E+02 -0.55298259116E+02  0.13693474045E+03  0.15157892001E+03  0.47000000000E+01 0. -1.
        -13    1    4    4    0    0 -0.14037998437E+02 -0.54373680762E+02  0.20140234597E+02  0.59658960847E+02  0.00000000000E+00 0.  1.
         14    1    4    4    0    0  0.79294681521E+02 -0.15902667220E+03  0.15222057810E+03  0.23398340408E+03  0.00000000000E+00 0. -1.
         -5    1    5    5    0  502  0.47756458841E+02  0.39498874379E+02 -0.24090055271E+02  0.66657791752E+02  0.47000000000E+01 0.  1.
         13    1    6    6    0    0 -0.31927373339E+02  0.98479080472E+02  0.45814137666E+02  0.11320963594E+03  0.00000000000E+00 0. -1.
        -14    1    6    6    0    0 -0.47247057231E+02  0.13072065722E+03 -0.24285235263E+02  0.14110261264E+03  0.00000000000E+00 0.  1.
</event>
<event>
12    1  0.1046899E+000  0.1937596E+03  0.7818608E-02  0.1155369E+00
         21   -1    0    0  503  502  0.00000000000E+00  0.00000000000E+00  0.78422581399E+02  0.78422581399E+02  0.00000000000E+00 0. -1.
         21   -1    0    0  501  503 -0.00000000000E+00 -0.00000000000E+00 -0.47669939853E+03  0.47669939853E+03  0.00000000000E+00 0. -1.
          6    2    1    2  501    0  0.45594344514E+02  0.74834185019E+02 -0.21018369019E+03  0.28508158701E+03  0.17150897391E+03 0.  0.
         24    2    3    3    0    0 -0.19209695965E+01  0.53760515624E+02 -0.32403998310E+02  0.99799333515E+02  0.77562908012E+02 0.  0.
         -6    2    1    2    0  502 -0.45594344514E+02 -0.74834185019E+02 -0.18809312694E+03  0.27004039292E+03  0.17281142874E+03 0.  0.
        -24    2    5    5    0    0 -0.65575958707E+02 -0.10866066893E+03 -0.12406107278E+03  0.19476961585E+03  0.80229085412E+02 0.  0.
          5    1    3    3  501    0  0.47515314111E+02  0.21073669395E+02 -0.17777969187E+03  0.18528225349E+03  0.47000000000E+01 0. -1.
        -11    1    4    4    0    0 -0.45995743966E+01  0.42328799729E+02 -0.57818125455E+02  0.71804031936E+02  0.00000000000E+00 0.  1.
         12    1    4    4    0    0  0.26786048002E+01  0.11431715895E+02  0.25414127145E+02  0.27995301579E+02  0.00000000000E+00 0. -1.
         -5    1    5    5    0  502  0.19981614192E+02  0.33826483915E+02 -0.64032054161E+02  0.75270777064E+02  0.47000000000E+01 0.  1.
         11    1    6    6    0    0 -0.52614104832E+02 -0.45307089381E+02 -0.10757280677E+03  0.12803470284E+03  0.00000000000E+00 0. -1.
        -12    1    6    6    0    0 -0.12961853874E+02 -0.63353579554E+02 -0.16488266007E+02  0.66734913007E+02  0.00000000000E+00 0.  1.
</event>
<event>
12    1  0.1046899E+000  0.2981758E+03  0.7818608E-02  0.1086214E+00
         21   -1    0    0  503  502  0.00000000000E+00  0.00000000000E+00  0.23131747568E+03  0.23131747568E+03  0.00000000000E+00 0.  1.
         21   -1    0    0  501  503 -0.00000000000E+00 -0.00000000000E+00 -0.15519499822E+04  0.15519499822E+04  0.00000000000E+00 0.  1.
          6    2    1    2  501    0  0.20462561979E+03  0.13344030709E+03 -0.14340213049E+04  0.14646931197E+04  0.17097038383E+03 0.  0.
         24    2    3    3    0    0  0.14806923119E+03  0.84338467188E+02 -0.12753917670E+04  0.12892079748E+04  0.79972300097E+02 0.  0.
         -6    2    1    2    0  502 -0.20462561979E+03 -0.13344030709E+03  0.11338879845E+03  0.31857433812E+03  0.17016059904E+03 0.  0.
        -24    2    5    5    0    0 -0.21569682778E+03 -0.83836005966E+02  0.10439414034E+03  0.26674623560E+03  0.81864645983E+02 0.  0.
          5    1    3    3  501    0  0.56556388603E+02  0.49101839902E+02 -0.15862953798E+03  0.17548514494E+03  0.47000000000E+01 0. -1.
        -13    1    4    4    0    0  0.43266580172E+02 -0.10917386067E+02 -0.23243678268E+03  0.23668131363E+03  0.00000000000E+00 0.  1.
         14    1    4    4    0    0  0.10480265102E+03  0.95255853256E+02 -0.10429549843E+04  0.10525266612E+04  0.00000000000E+00 0. -1.
         -5    1    5    5    0  502  0.11071207983E+02 -0.49604301124E+02  0.89946581066E+01  0.51828102518E+02  0.47000000000E+01 0.  1.
         11    1    6    6    0    0 -0.12741046292E+03 -0.36410384094E+02  0.10074922656E+03  0.16646185384E+03  0.00000000000E+00 0. -1.
        -12    1    6    6    0    0 -0.88286364853E+02 -0.47425621872E+02  0.36449137831E+01  0.10028438176E+03  0.00000000000E+00 0.  1.
</event>
<event>
12    1  0.1046899E+000  0.1819082E+03  0.7818608E-02  0.1166435E+00
         21   -1    0    0  501  502  0.00000000000E+00  0.00000000000E+00  0.86512120007E+02  0.86512120007E+02  0.00000000000E+00 0.  1.
         21   -1    0    0  502  503 -0.00000000000E+00 -0.00000000000E+00 -0.46667410088E+03  0.46667410088E+03  0.00000000000E+00 0.  1.
         -6    2    1    2    0  503  0.59103476386E+02 -0.71397349815E+01 -0.68972722584E+02  0.19272907091E+03  0.16983245148E+03 0.  0.
        -24    2    3    3    0    0  0.16787051303E+02  0.38062182874E+02 -0.89803934403E+02  0.12723157023E+03  0.79953680165E+02 0.  0.
          6    2    1    2  501    0 -0.59103476386E+02  0.71397349815E+01 -0.31118925828E+03  0.36045714997E+03  0.17189067967E+03 0.  0.
         24    2    5    5    0    0  0.22301006492E+02 -0.34040115466E+02 -0.12456894723E+03  0.15267914244E+03  0.78341774114E+02 0.  0.
          5    1    5    5  501    0 -0.81404482878E+02  0.41179850447E+02 -0.18662031105E+03  0.20777800753E+03  0.47000000000E+01 0. -1.
        -11    1    6    6    0    0  0.49916045646E+02 -0.88048954289E+01 -0.76522531740E+02  0.91786903534E+02  0.00000000000E+00 0.  1.
         12    1    6    6    0    0 -0.27615039154E+02 -0.25235220037E+02 -0.48046415490E+02  0.60892238908E+02  0.00000000000E+00 0. -1.
         -5    1    3    3    0  503  0.42316425083E+02 -0.45201917855E+02  0.20831211819E+02  0.65497500681E+02  0.47000000000E+01 0.  1.
         11    1    4    4    0    0  0.66660687480E+01  0.43546521309E+02 -0.81885214556E+01  0.44808346034E+02  0.00000000000E+00 0. -1.
        -12    1    4    4    0    0  0.10120982555E+02 -0.54843384357E+01 -0.81615412947E+02  0.82423224194E+02  0.00000000000E+00 0.  1.
</event>
<event>
12    1  0.1046899E+000  0.3297116E+03  0.7818608E-02  0.1071313E+00
         21   -1    0    0  503  502  0.00000000000E+00  0.00000000000E+00  0.54984969981E+03  0.54984969981E+03  0.00000000000E+00 0. -1.
         21   -1    0    0  501  503 -0.00000000000E+00 -0.00000000000E+00 -0.40542160821E+03  0.40542160821E+03  0.00000000000E+00 0. -1.
          6    2    1    2  501    0  0.17581691000E+02  0.27969841343E+03 -0.26985985372E+03  0.42606814465E+03  0.17369342217E+03 0.  0.
         24    2    3    3    0    0 -0.32439656060E+02  0.14326351378E+03 -0.21101088334E+03  0.26921818986E+03  0.79850329983E+02 0.  0.
         -6    2    1    2    0  502 -0.17581691000E+02 -0.27969841343E+03  0.41428794531E+03  0.52920316336E+03  0.17286170238E+03 0.  0.
        -24    2    5    5    0    0  0.48139697379E+02 -0.14200700077E+03  0.27522053488E+03  0.32270846451E+03  0.76882972856E+02 0.  0.
          5    1    3    3  501    0  0.50021347060E+02  0.13643489965E+03 -0.58848970380E+02  0.15684995479E+03  0.47000000000E+01 0. -1.
        -11    1    4    4    0    0 -0.37474365641E+02  0.14169927297E+03 -0.15637003565E+03  0.21432358734E+03  0.00000000000E+00 0.  1.
         12    1    4    4    0    0  0.50347095805E+01  0.15642408119E+01 -0.54640847693E+02  0.54894602526E+02  0.00000000000E+00 0. -1.
         -5    1    5    5    0  502 -0.65721388379E+02 -0.13769141265E+03  0.13906741044E+03  0.20649469885E+03  0.47000000000E+01 0.  1.
         13    1    6    6    0    0  0.67941132953E+02 -0.12119297992E+03  0.21499052901E+03  0.25597785742E+03  0.00000000000E+00 0. -1.
        -14    1    6    6    0    0 -0.19801435573E+02 -0.20814020858E+02  0.60230005872E+02  0.66730607088E+02  0.00000000000E+00 0.  1.
</event>
<event>
12    1  0.1046899E+000  0.2349479E+03  0.7818608E-02  0.1123547E+00
         21   -1    0    0  501  502  0.00000000000E+00  0.00000000000E+00  0.52363816899E+03  0.52363816899E+03  0.00000000000E+00 0.  1.
         21   -1    0    0  502  503 -0.00000000000E+00 -0.00000000000E+00 -0.18752019097E+03  0.18752019097E+03  0.00000000000E+00 0.  1.
         -6    2    1    2    0  503 -0.14782362213E+03  0.53031117201E+02  0.40501170576E+03  0.46822538475E+03  0.17474669231E+03 0.  0.
        -24    2    3    3    0    0 -0.12938715905E+03  0.10097091367E+03  0.32907240975E+03  0.37642672499E+03  0.80450395227E+02 0.  0.
          6    2    1    2  501    0  0.14782362213E+03 -0.53031117201E+02 -0.68893727734E+02  0.24293297521E+03  0.17206383139E+03 0.  0.
         24    2    5    5    0    0  0.11297524994E+03 -0.98979985185E+01 -0.10573029079E+03  0.17619544942E+03  0.83693276506E+02 0.  0.
          5    1    5    5  501    0  0.34848372191E+02 -0.43133118682E+02  0.36836563053E+02  0.66737525794E+02  0.47000000000E+01 0. -1.
        -13    1    6    6    0    0  0.13405565682E+02 -0.35312268799E+02 -0.22577034637E+02  0.44004409006E+02  0.00000000000E+00 0.  1.
         14    1    6    6    0    0  0.99569684258E+02  0.25414270280E+02 -0.83153256149E+02  0.13219104041E+03  0.00000000000E+00 0. -1.
         -5    1    3    3    0  503 -0.18436463078E+02 -0.47939796469E+02  0.75939296006E+02  0.91798659762E+02  0.47000000000E+01 0.  1.
         13    1    4    4    0    0 -0.97037814045E+02  0.50486133176E+02  0.27394349573E+03  0.29497495800E+03  0.00000000000E+00 0. -1.
        -14    1    4    4    0    0 -0.32349345008E+02  0.50484780493E+02  0.55128914025E+02  0.81451766988E+02  0.00000000000E+00 0.  1.
</event>
<event>
12    1  0.1046899E+000  0.2837174E+03  0.7818608E-02  0.1093678E+00
         21   -1    0    0  503  502  0.00000000000E+00  0.00000000000E+00  0.78356215094E+02  0.78356215094E+02  0.00000000000E+00 0.  1.
         21   -1    0    0  501  503 -0.00000000000E+00 -0.00000000000E+00 -0.11578421335E+04  0.11578421335E+04  0.00000000000E+00 0.  1.
          6    2    1    2  501    0  0.22374826882E+03  0.17757020059E+02 -0.33216134275E+03  0.43683717272E+03  0.17354238185E+03 0.  0.
         24    2    3    3    0    0  0.30626093765E+02 -0.81863636860E+01 -0.75085856358E+02  0.11422420126E+03  0.80026921460E+02 0.  0.
         -6    2    1    2    0  502 -0.22374826882E+03 -0.17757020059E+02 -0.74732457570E+03  0.79936117591E+03  0.17350985144E+03 0.  0.
        -24    2    5    5    0    0 -0.70047385473E+02 -0.42092968789E+02 -0.47398780026E+03  0.48479594778E+03  0.60697792010E+02 0.  0.
          5    1    3    3  501    0  0.19312217505E+03  0.25943383745E+02 -0.25707548639E+03  0.32261297147E+03  0.47000000000E+01 0. -1.
        -11    1    4    4    0    0  0.48615698215E+02 -0.22195419436E+02 -0.74152634509E+02  0.91404244767E+02  0.00000000000E+00 0.  1.
         12    1    4    4    0    0 -0.17989604449E+02  0.14009055750E+02 -0.93322184927E+00  0.22819956491E+02  0.00000000000E+00 0. -1.
         -5    1    5    5    0  502 -0.15370088334E+03  0.24335948730E+02 -0.27333677545E+03  0.31456522814E+03  0.47000000000E+01 0.  1.
         13    1    6    6    0    0 -0.72885778510E+02 -0.15158936754E+02 -0.33139145539E+03  0.33965044793E+03  0.00000000000E+00 0. -1.
        -14    1    6    6    0    0  0.28383930365E+01 -0.26934032035E+02 -0.14259634486E+03  0.14514549985E+03  0.00000000000E+00 0.  1.
</event>
<event>
12    1  0.1493022E+000  0.2502868E+03  0.7818608E-02  0.1113234E+00
         21   -1    0    0  501  502  0.00000000000E+00  0.00000000000E+00  0.37350487559E+03  0.37350487559E+03  0.00000000000E+00 0.  1.
         21   -1    0    0  502  503 -0.00000000000E+00 -0.00000000000E+00 -0.97059575908E+03  0.97059575908E+03  0.00000000000E+00 0.  1.
         -6    2    1    2    0  503  0.13966782598E+03  0.11658249702E+03  0.31279426446E+03  0.40060418380E+03  0.17188624139E+03 0.  0.
        -24    2    3    3    0    0  0.65302639355E+00  0.40064331729E+02  0.85913963926E+02  0.12369823426E+03  0.79463619608E+02 0.  0.
          6    2    1    2  501    0 -0.13966782598E+03 -0.11658249702E+03 -0.90988514795E+03  0.94349645086E+03  0.17086834146E+03 0.  0.
         24    2    5    5    0    0 -0.10261018624E+02 -0.62314030529E+01 -0.23425625358E+03  0.24677557516E+03  0.76668593767E+02 0.  0.
          5    1    5    5  501    0 -0.12940680735E+03 -0.11035109396E+03 -0.67562889437E+03  0.69672087570E+03  0.47000000000E+01 0. -1.
        -11    1    6    6    0    0 -0.33418614294E+02  0.20144472769E+02 -0.86277227189E+02  0.94690883911E+02  0.00000000000E+00 0.  1.
         12    1    6    6    0    0  0.23157595671E+02 -0.26375875822E+02 -0.14797902639E+03  0.15208469125E+03  0.00000000000E+00 0. -1.
         -5    1    3    3    0  503  0.13901479958E+03  0.76518165286E+02  0.22688030053E+03  0.27690594954E+03  0.47000000000E+01 0.  1.
         11    1    4    4    0    0  0.10729478376E+02  0.47307304385E+02  0.96096455434E+02  0.10764586152E+03  0.00000000000E+00 0. -1.
        -12    1    4    4    0    0 -0.10076451982E+02 -0.72429726561E+01 -0.10182491507E+02  0.16052372745E+02  0.00000000000E+00 0.  1.
</event>
<event>
12    1  0.1046899E+000  0.2753645E+03  0.7818608E-02  0.1098854E+00
         21   -1    0    0  501  502  0.00000000000E+00  0.00000000000E+00  0.40627553323E+03  0.40627553323E+03  0.00000000000E+00 0.  1.
         21   -1    0    0  502  503 -0.00000000000E+00 -0.00000000000E+00 -0.24623538508E+03  0.24623538508E+03  0.00000000000E+00 0. -1.
         -6    2    1    2    0  503 -0.83228659543E+02 -0.19189101126E+03 -0.83884825163E+02  0.28785809968E+03  0.17909899967E+03 0.  0.
        -24    2    3    3    0    0 -0.85643573152E+02 -0.89374957767E+02 -0.10740072168E+03  0.18254684472E+03  0.80409768060E+02 0.  0.
          6    2    1    2  501    0  0.83228659543E+02  0.19189101126E+03  0.24392497332E+03  0.36465281863E+03  0.17240393138E+03 0.  0.
         24    2    5    5    0    0  0.69239161090E+02  0.21380714517E+03  0.23956739788E+03  0.33787406855E+03  0.79112523131E+02 0.  0.
          5    1    5    5  501    0  0.13989498453E+02 -0.21916133908E+02  0.43575754416E+01  0.26778750086E+02  0.47000000000E+01 0. -1.
        -11    1    6    6    0    0  0.31674339542E+02  0.37813711272E+02  0.94988236928E+02  0.10703226476E+03  0.00000000000E+00 0.  1.
         12    1    6    6    0    0  0.37564821548E+02  0.17599343390E+03  0.14457916095E+03  0.23084180379E+03  0.00000000000E+00 0. -1.
         -5    1    3    3    0  503  0.24149136085E+01 -0.10251605350E+03  0.23515896520E+02  0.10531125496E+03  0.47000000000E+01 0.  1.
         11    1    4    4    0    0 -0.58624527754E+02 -0.78681679183E+02 -0.34401039232E+02  0.10397631169E+03  0.00000000000E+00 0. -1.
        -12    1    4    4    0    0 -0.27019045398E+02 -0.10693278584E+02 -0.72999682452E+02  0.78570533021E+02  0.00000000000E+00 0.  1.
</event>
<event>
12    1  0.1046899E+000  0.3532400E+03  0.7818608E-02  0.1061500E+00
         21   -1    0    0  503  502  0.00000000000E+00  0.00000000000E+00  0.23721370010E+03  0.23721370010E+03  0.00000000000E+00 0.  1.
         21   -1    0    0  501  503 -0.00000000000E+00 -0.00000000000E+00 -0.66468956130E+03  0.66468956130E+03  0.00000000000E+00 0.  1.
          6    2    1    2  501    0  0.10006460599E+03  0.28965311011E+03 -0.50398055602E+01  0.35123934842E+03  0.17155707699E+03 0.  0.
         24    2    3    3    0    0  0.38741577229E+02  0.17187984439E+03  0.60883808027E+02  0.20291851777E+03  0.80159191984E+02 0.  0.
         -6    2    1    2    0  502 -0.10006460599E+03 -0.28965311011E+03 -0.42243605564E+03  0.55066391298E+03  0.17568914132E+03 0.  0.
        -24    2    5    5    0    0 -0.11608180906E+03 -0.25460991698E+03 -0.28332966463E+03  0.40624350514E+03  0.80354778267E+02 0.  0.
          5    1    3    3  501    0  0.61323028760E+02  0.11777326572E+03 -0.65923613587E+02  0.14832083065E+03  0.47000000000E+01 0. -1.
        -13    1    4    4    0    0  0.32530360931E+02  0.29542154989E+02  0.39041163192E+02  0.58780742825E+02  0.00000000000E+00 0.  1.
         14    1    4    4    0    0  0.62112162987E+01  0.14233768941E+03  0.21842644835E+02  0.14413777495E+03  0.00000000000E+00 0. -1.
         -5    1    5    5    0  502  0.16017203067E+02 -0.35043193130E+02 -0.13910639101E+03  0.14442040784E+03  0.47000000000E+01 0.  1.
         13    1    6    6    0    0 -0.50968306866E+02 -0.59434610336E+02 -0.41107767598E+02  0.88431271434E+02  0.00000000000E+00 0. -1.
        -14    1    6    6    0    0 -0.65113502191E+02 -0.19517530665E+03 -0.24222189703E+03  0.31781223371E+03  0.00000000000E+00 0.  1.
</event>
<event>
12    1  0.1046899E+000  0.2494464E+03  0.7818608E-02  0.1113756E+00
         21   -1    0    0  503  502  0.00000000000E+00  0.00000000000E+00  0.23905339389E+03  0.23905339389E+03  0.00000000000E+00 0. -1.
         21   -1    0    0  501  503 -0.00000000000E+00 -0.00000000000E+00 -0.40747078818E+03  0.40747078818E+03  0.00000000000E+00 0. -1.
          6    2    1    2  501    0  0.17820703973E+03 -0.18399191157E+02  0.11043910815E+03  0.27280082690E+03  0.17357193121E+03 0.  0.
         24    2    3    3    0    0  0.18930990588E+03 -0.32984937005E+02  0.56471295852E+02  0.21561138397E+03  0.79831166275E+02 0.  0.
         -6    2    1    2    0  502 -0.17820703973E+03  0.18399191157E+02 -0.27885650243E+03  0.37372335517E+03  0.17266128116E+03 0.  0.
        -24    2    5    5    0    0 -0.47350376679E+02  0.59665759200E+02 -0.10760858784E+03  0.15423683132E+03  0.80045805426E+02 0.  0.
          5    1    3    3  501    0 -0.11102866151E+02  0.14585745848E+02  0.53967812294E+02  0.57189442929E+02  0.47000000000E+01 0. -1.
        -13    1    4    4    0    0  0.10800617155E+02 -0.26754249184E+02  0.13721912006E+02  0.31948928768E+02  0.00000000000E+00 0.  1.
         14    1    4    4    0    0  0.17850928872E+03 -0.62306878214E+01  0.42749383845E+02  0.18366245520E+03  0.00000000000E+00 0. -1.
         -5    1    5    5    0  502 -0.13085666305E+03 -0.41266568043E+02 -0.17124791459E+03  0.21948652386E+03  0.47000000000E+01 0.  1.
         11    1    6    6    0    0  0.13919123485E+02 -0.33008253712E+01 -0.42618646641E+02  0.44955383307E+02  0.00000000000E+00 0. -1.
        -12    1    6    6    0    0 -0.61269500164E+02  0.62966584571E+02 -0.64989941195E+02  0.10928144801E+03  0.00000000000E+00 0.  1.
</event>
<event>
12    1  0.1046899E+000  0.1991938E+03  0.7818608E-02  0.1150544E+00
         21   -1    0    0  503  502  0.00000000000E+00  0.00000000000E+00  0.43050887400E+03  0.43050887400E+03  0.00000000000E+00 0.  1.
         21   -1    0    0  501  503 -0.00000000000E+00 -0.00000000000E+00 -0.10876723051E+03  0.10876723051E+03  0.00000000000E+00 0.  1.
          6    2    1    2  501    0  0.46362335877E+02 -0.89019841359E+02  0.26726121554E+03  0.33332676702E+03  0.17205864680E+03 0.  0.
         24    2    3    3    0    0  0.38167647072E+01  0.18661491809E+02  0.13677160980E+03  0.15881309322E+03  0.78436639143E+02 0.  0.
         -6    2    1    2    0  502 -0.46362335877E+02  0.89019841359E+02  0.54480427955E+02  0.20594933748E+03  0.17138557184E+03 0.  0.
        -24    2    5    5    0    0 -0.76683401960E+01 -0.20792630371E+02  0.26511768862E+02  0.86114700836E+02  0.78877949345E+02 0.  0.
          5    1    3    3  501    0  0.42545571169E+02 -0.10768133317E+03  0.13048960574E+03  0.17451367380E+03  0.47000000000E+01 0. -1.
        -13    1    4    4    0    0  0.27949123283E+02 -0.10537227127E+02  0.19738462268E+02  0.35802144357E+02  0.00000000000E+00 0.  1.
         14    1    4    4    0    0 -0.24132358576E+02  0.29198718936E+02  0.11703314753E+03  0.12301094886E+03  0.00000000000E+00 0. -1.
         -5    1    5    5    0  502 -0.38693995681E+02  0.10981247173E+03  0.27968659093E+02  0.11983463665E+03  0.47000000000E+01 0.  1.
         11    1    6    6    0    0 -0.37424863017E+02  0.18581864680E+01 -0.42237596922E+01  0.37708266663E+02  0.00000000000E+00 0. -1.
        -12    1    6    6    0    0  0.29756522821E+02 -0.22650816839E+02  0.30735528555E+02  0.48406434173E+02  0.00000000000E+00 0.  1.
</event>
<event>
12    1  0.1046899E+000  0.1910003E+03  0.7818608E-02  0.1157799E+00
         21   -1    0    0  503  502  0.00000000000E+00  0.00000000000E+00  0.11603576224E+03  0.11603576224E+03  0.00000000000E+00 0. -1.
         21   -1    0    0  501  503 -0.00000000000E+00 -0.00000000000E+00 -0.33010669463E+03  0.33010669463E+03  0.00000000000E+00 0. -1.
          6    2    1    2  501    0 -0.71392968983E+01 -0.81983440611E+02 -0.56036295237E+02  0.19905069589E+03  0.17236258021E+03 0.  0.
         24    2    3    3    0    0  0.18170622148E+02 -0.48818821727E+02  0.32394714125E+02  0.10115985176E+03  0.80439102691E+02 0.  0.
         -6    2    1    2    0  502  0.71392968983E+01  0.81983440611E+02 -0.15803463716E+03  0.24709176097E+03  0.17119327588E+03 0.  0.
        -24    2    5    5    0    0  0.48231708671E+02  0.44430479247E+02 -0.35592124808E+02  0.11250695484E+03  0.84205999379E+02 0.  0.
          5    1    3    3  501    0 -0.25309919046E+02 -0.33164618884E+02 -0.88431009362E+02  0.97890844131E+02  0.47000000000E+01 0. -1.
        -13    1    4    4    0    0 -0.29089259158E+02 -0.25246345576E+02  0.29045828032E+02  0.48241300660E+02  0.00000000000E+00 0.  1.
         14    1    4    4    0    0  0.47259881305E+02 -0.23572476151E+02  0.33488860921E+01  0.52918551104E+02  0.00000000000E+00 0. -1.
         -5    1    5    5    0  502 -0.41092411772E+02  0.37552961364E+02 -0.12244251235E+03  0.13458480614E+03  0.47000000000E+01 0.  1.
         11    1    6    6    0    0  0.29681770270E+02 -0.18181119970E+02  0.56629989889E+01  0.35265140965E+02  0.00000000000E+00 0. -1.
        -12    1    6    6    0    0  0.18549938401E+02  0.62611599217E+02 -0.41255123797E+02  0.77241813875E+02  0.00000000000E+00 0.  1.
</event>
<event>
12    1  0.1046899E+000  0.2233537E+03  0.7818608E-02  0.1131701E+00
         21   -1    0    0  503  502  0.00000000000E+00  0.00000000000E+00  0.15753493636E+03  0.15753493636E+03  0.00000000000E+00 0.  1.
         21   -1    0    0  501  503 -0.00000000000E+00 -0.00000000000E+00 -0.34582927170E+03  0.34582927170E+03  0.00000000000E+00 0.  1.
          6    2    1    2  501    0  0.71388711352E+02  0.12189546904E+03 -0.16970205066E+03  0.27923806782E+03  0.17093934316E+03 0.  0.
         24    2    3    3    0    0 -0.12504168556E+02  0.68260571009E+02 -0.31254910133E+02  0.10863789694E+03  0.77520729210E+02 0.  0.
         -6    2    1    2    0  502 -0.71388711352E+02 -0.12189546904E+03 -0.18592284686E+02  0.22412614024E+03  0.17300867090E+03 0.  0.
        -24    2    5    5    0    0  0.60964597264E+01 -0.10802136188E+03  0.33000086236E+02  0.12989076830E+03  0.63850016082E+02 0.  0.
          5    1    3    3  501    0  0.83892879908E+02  0.53634898035E+02 -0.13844714053E+03  0.17060017089E+03  0.47000000000E+01 0. -1.
        -13    1    4    4    0    0 -0.35684254678E+02  0.17010434258E+02 -0.34257066238E+02  0.52309344221E+02  0.00000000000E+00 0.  1.
         14    1    4    4    0    0  0.23180086122E+02  0.51250136751E+02  0.30021561044E+01  0.56328552714E+02  0.00000000000E+00 0. -1.
         -5    1    5    5    0  502 -0.77485171079E+02 -0.13874107159E+02 -0.51592370922E+02  0.94235371936E+02  0.47000000000E+01 0.  1.
         11    1    6    6    0    0  0.23252515677E+01 -0.10843624800E+03  0.12657309848E+02  0.10919722601E+03  0.00000000000E+00 0. -1.
        -12    1    6    6    0    0  0.37712081588E+01  0.41488611627E+00  0.20342776387E+02  0.20693542293E+02  0.00000000000E+00 0.  1.
</event>
<event>
12    1  0.1046899E+000  0.2031480E+03  0.7818608E-02  0.1147145E+00
         21   -1    0    0  503  502  0.00000000000E+00  0.00000000000E+00  0.39539486959E+03  0.39539486959E+03  0.00000000000E+00 0.  1.
         21   -1    0    0  501  503 -0.00000000000E+00 -0.00000000000E+00 -0.10473670366E+03  0.10473670366E+03  0.00000000000E+00 0.  1.
          6    2    1    2  501    0 -0.17174941479E+02  0.10602215854E+03  0.16166452708E+03  0.25948979959E+03  0.17223199488E+03 0.  0.
         24    2    3    3    0    0 -0.32816774210E+02 -0.77408461223E+01  0.65128064589E+02  0.10939627291E+03  0.81172768594E+02 0.  0.
         -6    2    1    2    0  502  0.17174941479E+02 -0.10602215854E+03  0.12899363885E+03  0.24064177365E+03  0.17243383556E+03 0.  0.
        -24    2    5    5    0    0  0.11104601427E+02 -0.13030841484E+03  0.14343399857E+03  0.21136233954E+03  0.83648858223E+02 0.  0.
          5    1    3    3  501    0  0.15641832731E+02  0.11376300466E+03  0.96536462487E+02  0.15009352668E+03  0.47000000000E+01 0. -1.
        -13    1    4    4    0    0 -0.12135515484E+02  0.26614960530E+02 -0.39559419265E+01  0.29517390410E+02  0.00000000000E+00 0.  1.
         14    1    4    4    0    0 -0.20681258726E+02 -0.34355806653E+02  0.69084006515E+02  0.79878882500E+02  0.00000000000E+00 0. -1.
         -5    1    5    5    0  502  0.60703400519E+01  0.24286256294E+02 -0.14440359714E+02  0.29279434110E+02  0.47000000000E+01 0.  1.
         13    1    6    6    0    0 -0.28719905127E+01 -0.10880953044E+03  0.60450262392E+02  0.12450701373E+03  0.00000000000E+00 0. -1.
        -14    1    6    6    0    0  0.13976591940E+02 -0.21498884393E+02  0.82983736176E+02  0.86855325813E+02  0.00000000000E+00 0.  1.
</event>
<event>
12    1  0.1046899E+000  0.2140116E+03  0.7818608E-02  0.1139232E+00
         21   -1    0    0  503  502  0.00000000000E+00  0.00000000000E+00  0.64161548506E+02  0.64161548506E+02  0.00000000000E+00 0.  1.
         21   -1    0    0  501  503 -0.00000000000E+00 -0.00000000000E+00 -0.73066629291E+03  0.73066629291E+03  0.00000000000E+00 0.  1.
          6    2    1    2  501    0  0.78674062186E+02 -0.98220378959E+02 -0.41753955999E+03  0.46919105017E+03  0.17310143413E+03 0.  0.
         24    2    3    3    0    0  0.11335642835E+03 -0.49042800340E+02 -0.33873337235E+03  0.36992471161E+03  0.82759401885E+02 0.  0.
         -6    2    1    2    0  502 -0.78674062186E+02  0.98220378959E+02 -0.24896518442E+03  0.32563679125E+03  0.16798454054E+03 0.  0.
        -24    2    5    5    0    0 -0.94534206830E+01 -0.86813432403E+01 -0.12909045778E+03  0.15067532262E+03  0.76641853275E+02 0.  0.
          5    1    3    3  501    0 -0.34682366162E+02 -0.49177578619E+02 -0.78806187637E+02  0.99266338561E+02  0.47000000000E+01 0. -1.
        -13    1    4    4    0    0  0.50552303874E+02 -0.10119379492E+02 -0.24605260569E+03  0.25139574784E+03  0.00000000000E+00 0.  1.
         14    1    4    4    0    0  0.62804124474E+02 -0.38923420848E+02 -0.92680766662E+02  0.11852896376E+03  0.00000000000E+00 0. -1.
         -5    1    5    5    0  502 -0.69220641503E+02  0.10690172220E+03 -0.11987472664E+03  0.17496146864E+03  0.47000000000E+01 0.  1.
         13    1    6    6    0    0  0.79700736236E+01  0.27292153996E+02 -0.91461927821E+02  0.95779266984E+02  0.00000000000E+00 0. -1.
        -14    1    6    6    0    0 -0.17423494307E+02 -0.35973497237E+02 -0.37628529955E+02  0.54896055631E+02  0.00000000000E+00 0.  1.
</event>
<event>
12    1  0.1046899E+000  0.2233252E+03  0.7818608E-02  0.1131526E+00
         21   -1    0    0  503  502  0.00000000000E+00  0.00000000000E+00  0.70001687615E+03  0.70001687615E+03  0.00000000000E+00 0. -1.
         21   -1    0    0  501  503 -0.00000000000E+00 -0.00000000000E+00 -0.12093357408E+03  0.12093357408E+03  0.00000000000E+00 0. -1.
          6    2    1    2  501    0 -0.30944565717E+02 -0.13896370314E+03  0.26188025518E+02  0.22485537424E+03  0.17206292368E+03 0.  0.
         24    2    3    3    0    0 -0.36751720251E+02 -0.35931037618E+01 -0.14368540961E+02  0.83342663487E+02  0.73320837773E+02 0.  0.
         -6    2    1    2    0  502  0.30944565717E+02  0.13896370314E+03  0.55289527655E+03  0.59609507599E+03  0.17136999694E+03 0.  0.
        -24    2    5    5    0    0  0.62028426996E+02  0.49873647146E+02  0.40726340294E+03  0.42250366745E+03  0.79441570949E+02 0.  0.
          5    1    3    3  501    0  0.58071545341E+01 -0.13537059938E+03  0.40556566480E+02  0.14151271076E+03  0.47000000000E+01 0. -1.
        -11    1    4    4    0    0 -0.42410907853E+02 -0.22932035856E+02  0.12452482670E+02  0.49795860250E+02  0.00000000000E+00 0.  1.
         12    1    4    4    0    0  0.56591876012E+01  0.19338932094E+02 -0.26821023631E+02  0.33546803238E+02  0.00000000000E+00 0. -1.
         -5    1    5    5    0  502 -0.31083861279E+02  0.89090055999E+02  0.14563187361E+03  0.17359140854E+03  0.47000000000E+01 0.  1.
         13    1    6    6    0    0  0.29408454703E+01  0.11366018556E+02  0.29774132847E+01  0.12111975056E+02  0.00000000000E+00 0. -1.
        -14    1    6    6    0    0  0.59087581526E+02  0.38507628590E+02  0.40428598966E+03  0.41039169239E+03  0.00000000000E+00 0.  1.
</event>
<event>
12    1  0.1046899E+000  0.1942515E+03  0.7818608E-02  0.1154909E+00
         21   -1    0    0  501  502  0.00000000000E+00  0.00000000000E+00  0.19541643928E+03  0.19541643928E+03  0.00000000000E+00 0.  1.
         21   -1    0    0  502  503 -0.00000000000E+00 -0.00000000000E+00 -0.28154753440E+03  0.28154753440E+03  0.00000000000E+00 0. -1.
         -6    2    1    2    0  503 -0.65836489570E+02 -0.62137127238E+02  0.91457567622E+02  0.21376941001E+03  0.17069683079E+03 0.  0.
        -24    2    3    3    0    0  0.29615377933E+02 -0.35805664703E+02  0.31964332172E+02  0.98158251411E+02  0.80338082838E+02 0.  0.
          6    2    1    2  501    0  0.65836489570E+02  0.62137127238E+02 -0.17758866274E+03  0.26319456367E+03  0.17186674860E+03 0.  0.
         24    2    5    5    0    0  0.54347365053E+02  0.10968719592E+03 -0.12427500135E+03  0.19068631928E+03  0.77019993274E+02 0.  0.
          5    1    5    5  501    0  0.11489124517E+02 -0.47550068681E+02 -0.53313661390E+02  0.72508244391E+02  0.47000000000E+01 0. -1.
        -13    1    6    6    0    0  0.64594879902E+02  0.67054816087E+02 -0.53366829472E+02  0.10731665927E+03  0.00000000000E+00 0.  1.
         14    1    6    6    0    0 -0.10247514849E+02  0.42632379832E+02 -0.70908171876E+02  0.83369660006E+02  0.00000000000E+00 0. -1.
         -5    1    3    3    0  503 -0.95451867503E+02 -0.26331462535E+02  0.59493235450E+02  0.11561115860E+03  0.47000000000E+01 0.  1.
         13    1    4    4    0    0 -0.13421231790E+02  0.57930071539E+01 -0.15841393254E+02  0.21555466473E+02  0.00000000000E+00 0. -1.
        -14    1    4    4    0    0  0.43036609723E+02 -0.41598671857E+02  0.47805725426E+02  0.76602784938E+02  0.00000000000E+00 0.  1.
</event>
<event>
12    1  0.1046899E+000  0.3276063E+03  0.7818608E-02  0.1072232E+00
         21   -1    0    0  503  502  0.00000000000E+00  0.00000000000E+00  0.19156524502E+03  0.19156524502E+03  0.00000000000E+00 0. -1.
         21   -1    0    0  501  503 -0.00000000000E+00 -0.00000000000E+00 -0.58561209071E+03  0.58561209071E+03  0.00000000000E+00 0. -1.
          6    2    1    2  501    0  0.27801725972E+03  0.55208406573E+01 -0.27855054149E+03  0.42980823124E+03  0.17268652262E+03 0.  0.
         24    2    3    3    0    0  0.24081385006E+03  0.54165772328E+02 -0.25697700580E+03  0.36470884177E+03  0.77782494709E+02 0.  0.
         -6    2    1    2    0  502 -0.27801725972E+03 -0.55208406573E+01 -0.11549630420E+03  0.34736910448E+03  0.17321034057E+03 0.  0.
        -24    2    5    5    0    0 -0.25990748400E+03  0.31584382202E+02 -0.12997283573E+03  0.30336431491E+03  0.81163391351E+02 0.  0.
          5    1    3    3  501    0  0.37203409663E+02 -0.48644931670E+02 -0.21573535690E+02  0.65099389474E+02  0.47000000000E+01 0. -1.
        -11    1    4    4    0    0  0.18751512684E+03  0.19881847296E+02 -0.15250395581E+03  0.24251735440E+03  0.00000000000E+00 0.  1.
         12    1    4    4    0    0  0.53298723217E+02  0.34283925031E+02 -0.10447304999E+03  0.12219148737E+03  0.00000000000E+00 0. -1.
         -5    1    5    5    0  502 -0.18109775725E+02 -0.37105222859E+02  0.14476531532E+02  0.44004789574E+02  0.47000000000E+01 0.  1.
         11    1    6    6    0    0 -0.15284718356E+03  0.34330030840E+02 -0.35664452137E+02  0.16066351697E+03  0.00000000000E+00 0. -1.
        -12    1    6    6    0    0 -0.10706030044E+03 -0.27456486380E+01 -0.94308383591E+02  0.14270079794E+03  0.00000000000E+00 0.  1.
</event>
<event>
12    1  0.1046899E+000  0.2359819E+03  0.7818608E-02  0.1122502E+00
         21   -1    0    0  503  502  0.00000000000E+00  0.00000000000E+00  0.56140863479E+02  0.56140863479E+02  0.00000000000E+00 0.  1.
         21   -1    0    0  501  503 -0.00000000000E+00 -0.00000000000E+00 -0.19636427061E+04  0.19636427061E+04  0.00000000000E+00 0.  1.
          6    2    1    2  501    0  0.98318597433E+02 -0.12612516378E+03 -0.24332398007E+03  0.33896019456E+03  0.17353198749E+03 0.  0.
         24    2    3    3    0    0  0.24092244338E+02 -0.13674207089E+03 -0.16529766350E+03  0.23064368480E+03  0.81205674612E+02 0.  0.
         -6    2    1    2    0  502 -0.98318597433E+02  0.12612516378E+03 -0.16641778626E+04  0.16808233751E+04  0.17350837518E+03 0.  0.
        -24    2    5    5    0    0 -0.11547131795E+03  0.47406997384E+02 -0.12549502277E+04  0.12637141415E+04  0.80574864585E+02 0.  0.
          5    1    3    3  501    0  0.74226353095E+02  0.10616907115E+02 -0.78026316574E+02  0.10831650977E+03  0.47000000000E+01 0. -1.
        -13    1    4    4    0    0  0.63787404158E-01  0.48380062674E+01  0.56134350917E+01  0.74108722162E+01  0.00000000000E+00 0.  1.
         14    1    4    4    0    0  0.24028456934E+02 -0.14158007716E+03 -0.17091109859E+03  0.22323281258E+03  0.00000000000E+00 0. -1.
         -5    1    5    5    0  502  0.17152720521E+02  0.78718166394E+02 -0.40922763487E+03  0.41710923351E+03  0.47000000000E+01 0.  1.
         11    1    6    6    0    0 -0.37773476362E+02  0.49769484432E+02 -0.35885915819E+03  0.36425778305E+03  0.00000000000E+00 0. -1.
        -12    1    6    6    0    0 -0.77697841592E+02 -0.23624870484E+01 -0.89609106953E+03  0.89945635849E+03  0.00000000000E+00 0.  1.
</event>
<event>
12    1  0.1046899E+000  0.2647637E+03  0.7818608E-02  0.1104321E+00
         21   -1    0    0  501  502  0.00000000000E+00  0.00000000000E+00  0.98180260801E+03  0.98180260801E+03  0.00000000000E+00 0. -1.
         21   -1    0    0  502  503 -0.00000000000E+00 -0.00000000000E+00 -0.96532338030E+02  0.96532338030E+02  0.00000000000E+00 0.  1.
         -6    2    1    2    0  503  0.43767998485E+02  0.19637578969E+03  0.16748611470E+03  0.31329124212E+03  0.17210669744E+03 0.  0.
        -24    2    3    3    0    0 -0.12765696895E+02  0.18199174835E+03  0.96350491220E+02  0.22117541131E+03  0.79694328054E+02 0.  0.
          6    2    1    2  501    0 -0.43767998485E+02 -0.19637578969E+03  0.71778415528E+03  0.76504370392E+03  0.17204268908E+03 0.  0.
         24    2    5    5    0    0 -0.17755657969E+02 -0.21314553468E+02  0.28646505014E+03  0.29880198684E+03  0.80317051786E+02 0.  0.
          5    1    5    5  501    0 -0.26012340516E+02 -0.17506123622E+03  0.43131910515E+03  0.46624171709E+03  0.47000000000E+01 0. -1.
        -11    1    6    6    0    0  0.17936450341E+02  0.21633276773E+02  0.75136898746E+02  0.80220125081E+02  0.00000000000E+00 0.  1.
         12    1    6    6    0    0 -0.35692108310E+02 -0.42947830241E+02  0.21132815139E+03  0.21858186176E+03  0.00000000000E+00 0. -1.
         -5    1    3    3    0  503  0.56533695380E+02  0.14384041342E+02  0.71135623476E+02  0.92115830811E+02  0.47000000000E+01 0.  1.
         11    1    4    4    0    0 -0.63384237751E+01  0.25376322750E+02  0.52107702003E+02  0.58303910506E+02  0.00000000000E+00 0. -1.
        -12    1    4    4    0    0 -0.64272731198E+01  0.15661542560E+03  0.44242789217E+02  0.16287150080E+03  0.00000000000E+00 0.  1.
</event>
<event>
12    1  0.1046899E+000  0.2385275E+03  0.7818608E-02  0.1121098E+00
         21   -1    0    0  501  502  0.00000000000E+00  0.00000000000E+00  0.15097122914E+03  0.15097122914E+03  0.00000000000E+00 0.  1.
         21   -1    0    0  502  503 -0.00000000000E+00 -0.00000000000E+00 -0.38827080456E+03  0.38827080456E+03  0.00000000000E+00 0.  1.
         -6    2    1    2    0  503  0.15456205813E+03 -0.56076664967E+02 -0.17012631030E+03  0.29143644913E+03  0.17017114991E+03 0.  0.
        -24    2    3    3    0    0  0.12182350586E+03  0.11105362676E+02 -0.15803582769E+03  0.21558457103E+03  0.80852265091E+02 0.  0.
          6    2    1    2  501    0 -0.15456205813E+03  0.56076664967E+02 -0.67173265117E+02  0.24780558456E+03  0.17280433452E+03 0.  0.
         24    2    5    5    0    0 -0.13138907802E+03  0.76429320031E+02  0.24456883091E+01  0.17151596370E+03  0.79417967922E+02 0.  0.
          5    1    5    5  501    0 -0.23172980102E+02 -0.20352655063E+02 -0.69618953426E+02  0.76289620861E+02  0.47000000000E+01 0. -1.
        -11    1    6    6    0    0 -0.74321931881E+01  0.24185385792E+02  0.24481032341E+02  0.35206410296E+02  0.00000000000E+00 0.  1.
         12    1    6    6    0    0 -0.12395688484E+03  0.52243934239E+02 -0.22035344032E+02  0.13630955341E+03  0.00000000000E+00 0. -1.
         -5    1    3    3    0  503  0.32738552263E+02 -0.67182027644E+02 -0.12090482610E+02  0.75851878107E+02  0.47000000000E+01 0.  1.
         13    1    4    4    0    0  0.87234783430E+02 -0.22952628843E+02 -0.66821262891E+02  0.11225779165E+03  0.00000000000E+00 0. -1.
        -14    1    4    4    0    0  0.34588722433E+02  0.34057991519E+02 -0.91214564797E+02  0.10332677938E+03  0.00000000000E+00 0.  1.
</event>
<event>
12    1  0.1046899E+000  0.2427233E+03  0.7818608E-02  0.1118243E+00
         21   -1    0    0  501  502  0.00000000000E+00  0.00000000000E+00  0.13461288220E+03  0.13461288220E+03  0.00000000000E+00 0.  1.
         21   -1    0    0  502  503 -0.00000000000E+00 -0.00000000000E+00 -0.50770475273E+03  0.50770475273E+03  0.00000000000E+00 0.  1.
         -6    2    1    2    0  503 -0.11369019649E+03 -0.12718461500E+03 -0.65444720105E+02  0.25139132526E+03  0.17266499343E+03 0.  0.
        -24    2    3    3    0    0 -0.88708301212E+02 -0.12898184266E+03 -0.68673407196E+01  0.18751077662E+03  0.10299345873E+03 0.  0.
          6    2    1    2  501    0  0.11369019649E+03  0.12718461500E+03 -0.30764715043E+03  0.39092630967E+03  0.17051458401E+03 0.  0.
         24    2    5    5    0    0  0.72782024704E+02 -0.10143368785E+02 -0.10325950903E+03  0.14126884112E+03  0.62403911866E+02 0.  0.
          5    1    5    5  501    0  0.40908171782E+02  0.13732798378E+03 -0.20438764139E+03  0.24965746855E+03  0.47000000000E+01 0. -1.
        -11    1    6    6    0    0  0.37225649024E+02  0.71276808287E+01 -0.88549307381E+01  0.38922520186E+02  0.00000000000E+00 0.  1.
         12    1    6    6    0    0  0.35556375679E+02 -0.17271049614E+02 -0.94404578294E+02  0.10234632094E+03  0.00000000000E+00 0. -1.
         -5    1    3    3    0  503 -0.24981895274E+02  0.17972276575E+01 -0.58577379385E+02  0.63880548639E+02  0.47000000000E+01 0.  1.
         13    1    4    4    0    0  0.17390808806E+02 -0.45263450484E+02  0.14657777476E+02  0.50656397633E+02  0.00000000000E+00 0. -1.
        -14    1    4    4    0    0 -0.10609911002E+03 -0.83718392173E+02 -0.21525118196E+02  0.13685437899E+03  0.00000000000E+00 0.  1.
</event>
<event>
12    1  0.1046899E+000  0.8273439E+03  0.7818608E-02  0.9521395E-01
         21   -1    0    0  501  502  0.00000000000E+00  0.00000000000E+00  0.16562044031E+04  0.16562044031E+04  0.00000000000E+00 0. -1.
         21   -1    0    0  502  503 -0.00000000000E+00 -0.00000000000E+00 -0.51138786012E+03  0.51138786012E+03  0.00000000000E+00 0. -1.
         -6    2    1    2    0  503  0.80884232171E+03  0.27225467436E+02  0.10474434296E+04  0.13345380034E+04  0.16996122148E+03 0.  0.
        -24    2    3    3    0    0  0.35054527593E+03  0.59967880287E+02  0.52694413798E+03  0.64023990433E+03  0.75887241413E+02 0.  0.
          6    2    1    2  501    0 -0.80884232171E+03 -0.27225467436E+02  0.97373113317E+02  0.83305425978E+03  0.17184513106E+03 0.  0.
         24    2    5    5    0    0 -0.57477431463E+03 -0.66645873224E+02  0.11346049455E+03  0.59509902415E+03  0.80388926693E+02 0.  0.
          5    1    5    5  501    0 -0.23406800708E+03  0.39420405789E+02 -0.16087381236E+02  0.23795523563E+03  0.47000000000E+01 0. -1.
        -11    1    6    6    0    0 -0.35778882778E+03 -0.28064632863E+02  0.10745201919E+03  0.37462835628E+03  0.00000000000E+00 0.  1.
         12    1    6    6    0    0 -0.21698548685E+03 -0.38581240361E+02  0.60084753654E+01  0.22047066786E+03  0.00000000000E+00 0. -1.
         -5    1    3    3    0  503  0.45829704579E+03 -0.32742412851E+02  0.52049929164E+03  0.69429809907E+03  0.47000000000E+01 0.  1.
         13    1    4    4    0    0  0.27374620536E+03  0.30388779730E+02  0.35238816870E+03  0.44725594946E+03  0.00000000000E+00 0. -1.
        -14    1    4    4    0    0  0.76799070564E+02  0.29579100557E+02  0.17455596928E+03  0.19298395488E+03  0.00000000000E+00 0.  1.
</event>
<event>
12    1  0.1046899E+000  0.1729855E+03  0.7818608E-02  0.1174833E+00
         21   -1    0    0  501  502  0.00000000000E+00  0.00000000000E+00  0.11241714753E+03  0.11241714753E+03  0.00000000000E+00 0. -1.
         21   -1    0    0  502  503 -0.00000000000E+00 -0.00000000000E+00 -0.26628860495E+03  0.26628860495E+03  0.00000000000E+00 0. -1.
         -6    2    1    2    0  503 -0.14237612014E+02 -0.13275198760E+02 -0.68830449809E+02  0.18594699345E+03  0.17163832048E+03 0.  0.
        -24    2    3    3    0    0 -0.42492188728E+02  0.16244493427E+02 -0.99490044703E+02  0.13464558908E+03  0.78496471214E+02 0.  0.
          6    2    1    2  501    0  0.14237612014E+02  0.13275198760E+02 -0.85041007615E+02  0.19275875903E+03  0.17188666530E+03 0.  0.
         24    2    5    5    0    0 -0.54956258846E+02  0.59783138003E+01 -0.60983092082E+02  0.11898945922E+03  0.85928012095E+02 0.  0.
          5    1    5    5  501    0  0.69193870860E+02  0.72968849601E+01 -0.24057915533E+02  0.73769299810E+02  0.47000000000E+01 0. -1.
        -13    1    6    6    0    0 -0.25994748112E+02  0.29166408170E+02 -0.70576335112E+02  0.80668614546E+02  0.00000000000E+00 0.  1.
         14    1    6    6    0    0 -0.28961510733E+02 -0.23188094370E+02  0.95932430295E+01  0.38320844671E+02  0.00000000000E+00 0. -1.
         -5    1    3    3    0  503  0.28254576714E+02 -0.29519692187E+02  0.30659594894E+02  0.51301404378E+02  0.47000000000E+01 0.  1.
         13    1    4    4    0    0  0.53402548070E+01  0.88235570288E+01 -0.82806654680E+02  0.83446483085E+02  0.00000000000E+00 0. -1.
        -14    1    4    4    0    0 -0.47832443535E+02  0.74209363979E+01 -0.16683390023E+02  0.51199105990E+02  0.00000000000E+00 0.  1.
</event>
<event>
12    1  0.1046899E+000  0.1784386E+03  0.7818608E-02  0.1169909E+00
         21   -1    0    0  501  502  0.00000000000E+00  0.00000000000E+00  0.73292859981E+03  0.73292859981E+03  0.00000000000E+00 0. -1.
         21   -1    0    0  502  503 -0.00000000000E+00 -0.00000000000E+00 -0.43649197640E+02  0.43649197640E+02  0.00000000000E+00 0. -1.
         -6    2    1    2    0  503  0.29321787709E+02  0.95789979775E+01  0.39893140759E+03  0.43702012573E+03  0.17575209215E+03 0.  0.
        -24    2    3    3    0    0 -0.48136581805E+01  0.18226691423E+01  0.39226685042E+03  0.40107717614E+03  0.83445346519E+02 0.  0.
          6    2    1    2  501    0 -0.29321787709E+02 -0.95789979775E+01  0.29034799458E+03  0.33955767172E+03  0.17333761862E+03 0.  0.
         24    2    5    5    0    0 -0.71904872758E+01 -0.72797138949E+02  0.16974688234E+03  0.20152489995E+03  0.80294175953E+02 0.  0.
          5    1    5    5  501    0 -0.22131300433E+02  0.63218140971E+02  0.12060111225E+03  0.13803277177E+03  0.47000000000E+01 0. -1.
        -13    1    6    6    0    0 -0.38691509105E+02 -0.55294440194E+02  0.79100563379E+02  0.10397791650E+03  0.00000000000E+00 0.  1.
         14    1    6    6    0    0  0.31501021829E+02 -0.17502698754E+02  0.90646318956E+02  0.97546983450E+02  0.00000000000E+00 0. -1.
         -5    1    3    3    0  503  0.34135445889E+02  0.77563288352E+01  0.66645571714E+01  0.35942949592E+02  0.47000000000E+01 0.  1.
         13    1    4    4    0    0  0.25431401412E+02  0.29132394524E+02  0.12888347845E+03  0.13456003718E+03  0.00000000000E+00 0. -1.
        -14    1    4    4    0    0 -0.30245059592E+02 -0.27309725382E+02  0.26338337197E+03  0.26651713896E+03  0.00000000000E+00 0.  1.
</event>
<event>
12    1  0.1046899E+000  0.2182425E+03  0.7818608E-02  0.1135393E+00
         21   -1    0    0  503  502  0.00000000000E+00  0.00000000000E+00  0.74824856452E+03  0.74824856452E+03  0.00000000000E+00 0. -1.
         21   -1    0    0  501  503 -0.00000000000E+00 -0.00000000000E+00 -0.82254046572E+02  0.82254046572E+02  0.00000000000E+00 0. -1.
          6    2    1    2  501    0 -0.10461992035E+03 -0.80717417819E+02  0.13336487170E+03  0.25489499117E+03  0.17240834738E+03 0.  0.
         24    2    3    3    0    0 -0.11539579495E+03 -0.31206414827E+02  0.14281945036E+03  0.20313653342E+03  0.81098865550E+02 0.  0.
         -6    2    1    2    0  502  0.10461992035E+03  0.80717417819E+02  0.53262964624E+03  0.57560761992E+03  0.17369272518E+03 0.  0.
        -24    2    5    5    0    0 -0.71720384892E+01  0.23511450111E+01  0.16705540904E+03  0.18534446809E+03  0.79925566254E+02 0.  0.
          5    1    3    3  501    0  0.10775874600E+02 -0.49511002991E+02 -0.94545786560E+01  0.51758457745E+02  0.47000000000E+01 0. -1.
        -13    1    4    4    0    0 -0.52311448251E+02 -0.54250900972E+01  0.95481860577E+01  0.53451726611E+02  0.00000000000E+00 0.  1.
         14    1    4    4    0    0 -0.63084346695E+02 -0.25781324730E+02  0.13327126430E+03  0.14968480681E+03  0.00000000000E+00 0. -1.
         -5    1    5    5    0  502  0.11179195884E+03  0.78366272808E+02  0.36557423720E+03  0.39026315183E+03  0.47000000000E+01 0.  1.
         11    1    6    6    0    0  0.85418771213E+01  0.34908884749E+02  0.42548550078E+02  0.55695358989E+02  0.00000000000E+00 0. -1.
        -12    1    6    6    0    0 -0.15713915610E+02 -0.32557739738E+02  0.12450685896E+03  0.12964910910E+03  0.00000000000E+00 0.  1.
</event>
<event>
12    1  0.1046899E+000  0.2732853E+03  0.7818608E-02  0.1099635E+00
         21   -1    0    0  503  502  0.00000000000E+00  0.00000000000E+00  0.94575276466E+02  0.94575276466E+02  0.00000000000E+00 0.  1.
         21   -1    0    0  501  503 -0.00000000000E+00 -0.00000000000E+00 -0.80609534529E+03  0.80609534529E+03  0.00000000000E+00 0. -1.
          6    2    1    2  501    0 -0.51735499042E+01  0.21088209974E+03 -0.42931855795E+03  0.50891972236E+03  0.17374358692E+03 0.  0.
         24    2    3    3    0    0  0.25574031040E+02  0.17966462069E+03 -0.23419256699E+03  0.30887925875E+03  0.87331729975E+02 0.  0.
         -6    2    1    2    0  502  0.51735499042E+01 -0.21088209974E+03 -0.28220151088E+03  0.39175089940E+03  0.17126893715E+03 0.  0.
        -24    2    5    5    0    0  0.27830532809E+02 -0.78237682710E+02 -0.20480681960E+03  0.23644504477E+03  0.84052080837E+02 0.  0.
          5    1    3    3  501    0 -0.30747580944E+02  0.31217479048E+02 -0.19512599096E+03  0.20004046361E+03  0.47000000000E+01 0. -1.
        -11    1    4    4    0    0  0.22321547028E+02  0.86282892957E+02 -0.49626132101E+02  0.10200853918E+03  0.00000000000E+00 0.  1.
         12    1    4    4    0    0  0.32524840119E+01  0.93381727734E+02 -0.18456643489E+03  0.20687071956E+03  0.00000000000E+00 0. -1.
         -5    1    5    5    0  502 -0.22656982905E+02 -0.13264441703E+03 -0.77394691284E+02  0.15530585463E+03  0.47000000000E+01 0.  1.
         11    1    6    6    0    0 -0.67965698095E+01 -0.65517769373E+02 -0.67677544681E+02  0.94440571360E+02  0.00000000000E+00 0. -1.
        -12    1    6    6    0    0  0.34627102618E+02 -0.12719913337E+02 -0.13712927491E+03  0.14200447341E+03  0.00000000000E+00 0.  1.
</event>
<event>
12    1  0.1046899E+000  0.1901820E+03  0.7818608E-02  0.1158825E+00
         21   -1    0    0  503  502  0.00000000000E+00  0.00000000000E+00  0.55149387660E+02  0.55149387660E+02  0.00000000000E+00 0.  1.
         21   -1    0    0  501  503 -0.00000000000E+00 -0.00000000000E+00 -0.70233751883E+03  0.70233751883E+03  0.00000000000E+00 0.  1.
          6    2    1    2  501    0 -0.61354486030E+02 -0.56018175407E+02 -0.42726417543E+03  0.46673662251E+03  0.16848142406E+03 0.  0.
         24    2    3    3    0    0 -0.99000767672E+01 -0.60120840268E+02 -0.13450567466E+03  0.16942530778E+03  0.83070039401E+02 0.  0.
         -6    2    1    2    0  502  0.61354486030E+02  0.56018175407E+02 -0.21992395573E+03  0.29075028398E+03  0.17107534128E+03 0.  0.
        -24    2    5    5    0    0  0.99382981408E+02  0.72606978301E+02 -0.18554967917E+03  0.23666668451E+03  0.80210260095E+02 0.  0.
          5    1    3    3  501    0 -0.51454409262E+02  0.41026648612E+01 -0.29275850078E+03  0.29731131473E+03  0.47000000000E+01 0. -1.
        -11    1    4    4    0    0 -0.55325446687E+01  0.92060211763E+01  0.62752905965E+01  0.12439419138E+02  0.00000000000E+00 0.  1.
         12    1    4    4    0    0 -0.43675320985E+01 -0.69326861444E+02 -0.14078096525E+03  0.15698588864E+03  0.00000000000E+00 0. -1.
         -5    1    5    5    0  502 -0.38028495378E+02 -0.16588802894E+02 -0.34374276565E+02  0.54083599469E+02  0.47000000000E+01 0.  1.
         11    1    6    6    0    0 -0.10242874341E+01  0.20569115524E+02 -0.77740211769E+02  0.80421876403E+02  0.00000000000E+00 0. -1.
        -12    1    6    6    0    0  0.10040726884E+03  0.52037862777E+02 -0.10780946740E+03  0.15624480810E+03  0.00000000000E+00 0.  1.
</event>
<event>
12    1  0.1046899E+000  0.2043475E+03  0.7818608E-02  0.1146763E+00
         21   -1    0    0  503  502  0.00000000000E+00  0.00000000000E+00  0.36718036972E+03  0.36718036972E+03  0.00000000000E+00 0. -1.
         21   -1    0    0  501  503 -0.00000000000E+00 -0.00000000000E+00 -0.11221805484E+03  0.11221805484E+03  0.00000000000E+00 0. -1.
          6    2    1    2  501    0  0.33405533172E+02 -0.99634786170E+02  0.11804111023E+03  0.23599069775E+03  0.17525662743E+03 0.  0.
         24    2    3    3    0    0  0.64538094385E+02 -0.78648370007E+02  0.14155396928E+03  0.19144172951E+03  0.79130764235E+02 0.  0.
         -6    2    1    2    0  502 -0.33405533172E+02  0.99634786170E+02  0.13692120464E+03  0.24340772681E+03  0.17163008165E+03 0.  0.
        -24    2    5    5    0    0  0.19563472180E+02  0.54773746991E+02  0.82201704034E+01  0.97105728946E+02  0.77324372545E+02 0.  0.
          5    1    3    3  501    0 -0.31132561213E+02 -0.20986416163E+02 -0.23512859042E+02  0.44548968241E+02  0.47000000000E+01 0. -1.
        -11    1    4    4    0    0  0.23611087006E+02 -0.55324501670E+02  0.12954400752E+03  0.14282833682E+03  0.00000000000E+00 0.  1.
         12    1    4    4    0    0  0.40927007379E+02 -0.23323868337E+02  0.12009961754E+02  0.48613392687E+02  0.00000000000E+00 0. -1.
         -5    1    5    5    0  502 -0.52969005353E+02  0.44861039179E+02  0.12870103424E+03  0.14630199786E+03  0.47000000000E+01 0.  1.
         13    1    6    6    0    0  0.18489415034E+02 -0.16623822926E+02  0.64115160943E+01  0.25677178498E+02  0.00000000000E+00 0. -1.
        -14    1    6    6    0    0  0.10740571457E+01  0.71397569916E+02  0.18086543091E+01  0.71428550448E+02  0.00000000000E+00 0.  1.
</event>
<event>
12    1  0.1046899E+000  0.2557972E+03  0.7818608E-02  0.1109843E+00
         21   -1    0    0  503  502  0.00000000000E+00  0.00000000000E+00  0.11830169948E+03  0.11830169948E+03  0.00000000000E+00 0. -1.
         21   -1    0    0  501  503 -0.00000000000E+00 -0.00000000000E+00 -0.82579471397E+03  0.82579471397E+03  0.00000000000E+00 0.  1.
          6    2    1    2  501    0 -0.13090455838E+03  0.13513915532E+03 -0.81895249531E+02  0.26858714217E+03  0.17330212445E+03 0.  0.
         24    2    3    3    0    0 -0.30570774213E+02 -0.22393758516E+01 -0.17920596000E+02  0.86777969226E+02  0.79181318136E+02 0.  0.
         -6    2    1    2    0  502  0.13090455838E+03 -0.13513915532E+03 -0.62559776496E+03  0.67550927128E+03  0.17187675047E+03 0.  0.
        -24    2    5    5    0    0  0.19845147831E+02 -0.42782357270E+02 -0.13043206978E+03  0.15968456607E+03  0.79135806234E+02 0.  0.
          5    1    3    3  501    0 -0.10033378417E+03  0.13737853117E+03 -0.63974653531E+02  0.18180917294E+03  0.47000000000E+01 0. -1.
        -11    1    4    4    0    0 -0.51777814110E+02  0.18661231217E+02 -0.13571973488E+02  0.56686700812E+02  0.00000000000E+00 0.  1.
         12    1    4    4    0    0  0.21207039897E+02 -0.20900607068E+02 -0.43486225124E+01  0.30091268414E+02  0.00000000000E+00 0. -1.
         -5    1    5    5    0  502  0.11105941055E+03 -0.92356798047E+02 -0.49516569518E+03  0.51582470521E+03  0.47000000000E+01 0.  1.
         11    1    6    6    0    0  0.22770767333E+02 -0.57545668067E+02 -0.13072192771E+03  0.14463137329E+03  0.00000000000E+00 0. -1.
        -12    1    6    6    0    0 -0.29256195018E+01  0.14763310797E+02  0.28985792531E+00  0.15053192776E+02  0.00000000000E+00 0.  1.
</event>
<event>
12    1  0.1046899E+000  0.1864155E+03  0.7818608E-02  0.1162155E+00
         21   -1    0    0  503  502  0.00000000000E+00  0.00000000000E+00  0.51907156127E+02  0.51907156127E+02  0.00000000000E+00 0. -1.
         21   -1    0    0  501  503 -0.00000000000E+00 -0.00000000000E+00 -0.79167114911E+03  0.79167114911E+03  0.00000000000E+00 0. -1.
          6    2    1    2  501    0  0.66616259288E+02 -0.14667877888E+02 -0.20134895142E+03  0.27439414932E+03  0.17348739522E+03 0.  0.
         24    2    3    3    0    0  0.92220576396E+02 -0.55726073219E+02 -0.16903775064E+03  0.21602069513E+03  0.80505587604E+02 0.  0.
         -6    2    1    2    0  502 -0.66616259288E+02  0.14667877888E+02 -0.53841504156E+03  0.56918415592E+03  0.17154292093E+03 0.  0.
        -24    2    5    5    0    0 -0.46598149982E+02 -0.48643153172E+02 -0.20193770837E+03  0.22618547209E+03  0.76442696127E+02 0.  0.
          5    1    3    3  501    0 -0.25604317108E+02  0.41058195331E+02 -0.32311200781E+02  0.58373454192E+02  0.47000000000E+01 0.  1.
        -13    1    4    4    0    0  0.48674904714E+02 -0.39635980555E+02 -0.15545689938E+03  0.16765173685E+03  0.00000000000E+00 0.  1.
         14    1    4    4    0    0  0.43545671682E+02 -0.16090092664E+02 -0.13580851259E+02  0.48368958279E+02  0.00000000000E+00 0. -1.
         -5    1    5    5    0  502 -0.20018109307E+02  0.63311031060E+02 -0.33647733319E+03  0.34299868382E+03  0.47000000000E+01 0.  1.
         11    1    6    6    0    0 -0.63009536925E+02 -0.37766840667E+02 -0.18860792854E+03  0.20240920608E+03  0.00000000000E+00 0. -1.
        -12    1    6    6    0    0  0.16411386943E+02 -0.10876312504E+02 -0.13329779827E+02  0.23776266009E+02  0.00000000000E+00 0.  1.
</event>
<event>
12    1  0.1046899E+000  0.2317562E+03  0.7818608E-02  0.1126423E+00
         21   -1    0    0  501  502  0.00000000000E+00  0.00000000000E+00  0.14828679648E+03  0.14828679648E+03  0.00000000000E+00 0.  1.
         21   -1    0    0  502  503 -0.00000000000E+00 -0.00000000000E+00 -0.37002146369E+03  0.37002146369E+03  0.00000000000E+00 0. -1.
         -6    2    1    2    0  503 -0.11217929661E+03 -0.10719161854E+03 -0.54453349357E+02  0.23248666121E+03  0.16434914880E+03 0.  0.
        -24    2    3    3    0    0 -0.44106155330E+02 -0.79376762820E+02 -0.86593543878E+02  0.15209573594E+03  0.85957243070E+02 0.  0.
          6    2    1    2  501    0  0.11217929661E+03  0.10719161854E+03 -0.16728131785E+03  0.28582159896E+03  0.17215315698E+03 0.  0.
         24    2    5    5    0    0  0.26564183261E+02  0.10369105408E+03 -0.45933904101E+02  0.13719627673E+03  0.72494167175E+02 0.  0.
          5    1    5    5  501    0  0.85615113346E+02  0.35005644582E+01 -0.12134741375E+03  0.14862532223E+03  0.47000000000E+01 0. -1.
        -11    1    6    6    0    0  0.40718510464E+02  0.62018779701E+02 -0.54883533486E+02  0.92285038754E+02  0.00000000000E+00 0.  1.
         12    1    6    6    0    0 -0.14154327204E+02  0.41672274378E+02  0.89496293843E+01  0.44911237976E+02  0.00000000000E+00 0. -1.
         -5    1    3    3    0  503 -0.68073141277E+02 -0.27814855717E+02  0.32140194521E+02  0.80390925270E+02  0.47000000000E+01 0.  1.
         11    1    4    4    0    0 -0.61131149509E+02 -0.36650080991E+02 -0.77350573047E+02  0.10518249392E+03  0.00000000000E+00 0. -1.
        -12    1    4    4    0    0  0.17024994179E+02 -0.42726681829E+02 -0.92429708308E+01  0.46913242019E+02  0.00000000000E+00 0.  1.
</event>
<event>
12    1  0.1046899E+000  0.2960662E+03  0.7818608E-02  0.1087265E+00
         21   -1    0    0  501  502  0.00000000000E+00  0.00000000000E+00  0.17528456015E+03  0.17528456015E+03  0.00000000000E+00 0.  1.
         21   -1    0    0  502  503 -0.00000000000E+00 -0.00000000000E+00 -0.55430591848E+03  0.55430591848E+03  0.00000000000E+00 0.  1.
         -6    2    1    2    0  503  0.16408697352E+03  0.17661573906E+03 -0.74740386097E+02  0.30504118945E+03  0.17130775751E+03 0.  0.
        -24    2    3    3    0    0  0.60972463771E+02  0.15696171055E+03 -0.73334125922E+02  0.19995574552E+03  0.79055589469E+02 0.  0.
          6    2    1    2  501    0 -0.16408697352E+03 -0.17661573906E+03 -0.30428097224E+03  0.42454928918E+03  0.17186487342E+03 0.  0.
         24    2    5    5    0    0 -0.12953544175E+03 -0.17632098385E+03 -0.31141597083E+03  0.38895584268E+03  0.80238523540E+02 0.  0.
          5    1    5    5  501    0 -0.34551531776E+02 -0.29475520967E+00  0.71349985854E+01  0.35593446497E+02  0.47000000000E+01 0. -1.
        -13    1    6    6    0    0 -0.32717647109E+01 -0.39812556723E+02 -0.23905008227E+02  0.46553125948E+02  0.00000000000E+00 0.  1.
         14    1    6    6    0    0 -0.12626367703E+03 -0.13650842712E+03 -0.28751096260E+03  0.34240271674E+03  0.00000000000E+00 0. -1.
         -5    1    3    3    0  503  0.10311450975E+03  0.19654028509E+02 -0.14062601749E+01  0.10508544393E+03  0.47000000000E+01 0.  1.
         11    1    4    4    0    0  0.61659917364E+02  0.61685989512E+02 -0.15754104743E+02  0.88630122010E+02  0.00000000000E+00 0. -1.
        -12    1    4    4    0    0 -0.68745359218E+00  0.95275721037E+02 -0.57580021179E+02  0.11132562351E+03  0.00000000000E+00 0.  1.
</event>
<event>
12    1  0.1046899E+000  0.4575035E+03  0.7818608E-02  0.1025934E+00
         21   -1    0    0  501  502  0.00000000000E+00  0.00000000000E+00  0.72950595005E+03  0.72950595005E+03  0.00000000000E+00 0.  1.
         21   -1    0    0  502  503 -0.00000000000E+00 -0.00000000000E+00 -0.32370207850E+03  0.32370207850E+03  0.00000000000E+00 0. -1.
         -6    2    1    2    0  503  0.39210088405E+03 -0.15689052365E+03  0.15709014353E+02  0.45197305533E+03  0.16023460902E+03 0.  0.
        -24    2    3    3    0    0  0.37410002799E+03 -0.15052845332E+03 -0.19668647936E+02  0.41149867150E+03  0.79590544225E+02 0.  0.
          6    2    1    2  501    0 -0.39210088405E+03  0.15689052365E+03  0.39009485719E+03  0.60123497322E+03  0.17593111075E+03 0.  0.
         24    2    5    5    0    0 -0.19997101139E+03  0.12688962883E+03  0.14491135045E+03  0.28826375468E+03  0.77506834987E+02 0.  0.
          5    1    5    5  501    0 -0.19212987266E+03  0.30000894825E+02  0.24518350674E+03  0.31297121854E+03  0.47000000000E+01 0. -1.
        -11    1    6    6    0    0 -0.14522416916E+02 -0.49472436288E+01 -0.45838585397E+01  0.16012107036E+02  0.00000000000E+00 0.  1.
         12    1    6    6    0    0 -0.18544859448E+03  0.13183687246E+03  0.14949520899E+03  0.27225164764E+03  0.00000000000E+00 0. -1.
         -5    1    3    3    0  503  0.18000856057E+02 -0.63620703339E+01  0.35377662288E+02  0.40474383834E+02  0.47000000000E+01 0.  1.
         11    1    4    4    0    0  0.18939601179E+03 -0.72886684386E+02 -0.49615240501E+02  0.20891383423E+03  0.00000000000E+00 0. -1.
        -12    1    4    4    0    0  0.18470401621E+03 -0.77641768932E+02  0.29946592565E+02  0.20258483727E+03  0.00000000000E+00 0.  1.
</event>
<event>
12    1  0.1046899E+000  0.1737699E+03  0.7818608E-02  0.1174635E+00
         21   -1    0    0  501  502  0.00000000000E+00  0.00000000000E+00  0.59068168006E+03  0.59068168006E+03  0.00000000000E+00 0. -1.
         21   -1    0    0  502  503 -0.00000000000E+00 -0.00000000000E+00 -0.53288559400E+02  0.53288559400E+02  0.00000000000E+00 0. -1.
         -6    2    1    2    0  503  0.13703849378E+02 -0.95279344432E+01  0.19130573449E+03  0.25670747290E+03  0.17035922509E+03 0.  0.
        -24    2    3    3    0    0 -0.48807943512E+02  0.14812137855E+02  0.10123669157E+03  0.14430335437E+03  0.89291520234E+02 0.  0.
          6    2    1    2  501    0 -0.13703849378E+02  0.95279344432E+01  0.34608738617E+03  0.38726276656E+03  0.17296645476E+03 0.  0.
         24    2    5    5    0    0  0.48082607497E+01 -0.37025642159E+02  0.93421397951E+02  0.12963488507E+03  0.81753460380E+02 0.  0.
          5    1    5    5  501    0 -0.18512110127E+02  0.46553576602E+02  0.25266598822E+03  0.25762788149E+03  0.47000000000E+01 0. -1.
        -11    1    6    6    0    0  0.15010739962E+02  0.14812614207E+02 -0.13498945865E+01  0.21131920624E+02  0.00000000000E+00 0.  1.
         12    1    6    6    0    0 -0.10202479213E+02 -0.51838256365E+02  0.94771292537E+02  0.10850296445E+03  0.00000000000E+00 0. -1.
         -5    1    3    3    0  503  0.62511792889E+02 -0.24340072298E+02  0.90069042920E+02  0.11240411853E+03  0.47000000000E+01 0.  1.
         11    1    4    4    0    0 -0.52735934966E+02  0.35114813853E+02  0.29952963491E+02  0.70080732092E+02  0.00000000000E+00 0. -1.
        -12    1    4    4    0    0  0.39279914543E+01 -0.20302675997E+02  0.71283728077E+02  0.74222622280E+02  0.00000000000E+00 0.  1.
</event>
<event>
12    1  0.1046899E+000  0.1771142E+03  0.7818608E-02  0.1170711E+00
         21   -1    0    0  503  502  0.00000000000E+00  0.00000000000E+00  0.46673386685E+03  0.46673386685E+03  0.00000000000E+00 0.  1.
         21   -1    0    0  501  503 -0.00000000000E+00 -0.00000000000E+00 -0.14454475140E+03  0.14454475140E+03  0.00000000000E+00 0.  1.
          6    2    1    2  501    0 -0.33965096756E+02 -0.15090041922E+02 -0.62726785772E+02  0.18756915676E+03  0.17281840686E+03 0.  0.
         24    2    3    3    0    0 -0.15660661893E+02 -0.33697378761E+02  0.28912624375E+02  0.92169173464E+02  0.79236652015E+02 0.  0.
         -6    2    1    2    0  502  0.33965096756E+02  0.15090041922E+02  0.38491590122E+03  0.42370946149E+03  0.17317078155E+03 0.  0.
        -24    2    5    5    0    0  0.11249226140E+02 -0.18002859664E+02  0.37224404952E+03  0.38135598774E+03  0.80100617575E+02 0.  0.
          5    1    3    3  501    0 -0.18304434864E+02  0.18607336839E+02 -0.91639410147E+02  0.95399983291E+02  0.47000000000E+01 0. -1.
        -11    1    4    4    0    0  0.28588001286E+02 -0.25478938808E+02 -0.69056518630E+00  0.38300483295E+02  0.00000000000E+00 0.  1.
         12    1    4    4    0    0 -0.44248663179E+02 -0.82184399528E+01  0.29603189562E+02  0.53868690170E+02  0.00000000000E+00 0. -1.
         -5    1    5    5    0  502  0.22715870616E+02  0.33092901586E+02  0.12671851693E+02  0.42353473749E+02  0.47000000000E+01 0.  1.
         11    1    6    6    0    0  0.23150034174E+02  0.20025507213E+02  0.68737267028E+02  0.75244646984E+02  0.00000000000E+00 0. -1.
        -12    1    6    6    0    0 -0.11900808034E+02 -0.38028366876E+02  0.30350678250E+03  0.30611134076E+03  0.00000000000E+00 0.  1.
</event>
<event>
12    1  0.1046899E+000  0.3318864E+03  0.7818608E-02  0.1070320E+00
         21   -1    0    0  501  502  0.00000000000E+00  0.00000000000E+00  0.26297975361E+03  0.26297975361E+03  0.00000000000E+00 0. -1.
         21   -1    0    0  502  503 -0.00000000000E+00 -0.00000000000E+00 -0.46155793014E+03  0.46155793014E+03  0.00000000000E+00 0. -1.
         -6    2    1    2    0  503 -0.32379466602E+02 -0.28197212759E+03  0.11116262058E+02  0.33207250509E+03  0.17202286697E+03 0.  0.
        -24    2    3    3    0    0 -0.23283871130E+02 -0.42762322019E+02 -0.47314240530E+01  0.92119801224E+02  0.78057136540E+02 0.  0.
          6    2    1    2  501    0  0.32379466602E+02  0.28197212759E+03 -0.20969443858E+03  0.39246517866E+03  0.17175694542E+03 0.  0.
         24    2    5    5    0    0  0.21110551096E+01  0.28544546448E+03 -0.16880435453E+03  0.34125649017E+03  0.80482993405E+02 0.  0.
          5    1    5    5  501    0  0.30268411492E+02 -0.34733368982E+01 -0.40890084052E+02  0.51208688494E+02  0.47000000000E+01 0. -1.
        -11    1    6    6    0    0 -0.34685536987E+02  0.10690386474E+03 -0.45904666351E+02  0.12140329965E+03  0.00000000000E+00 0.  1.
         12    1    6    6    0    0  0.36796592097E+02  0.17854159974E+03 -0.12289968818E+03  0.21985319052E+03  0.00000000000E+00 0. -1.
         -5    1    3    3    0  503 -0.90955954719E+01 -0.23920980557E+03  0.15847686111E+02  0.23995270386E+03  0.47000000000E+01 0.  1.
         13    1    4    4    0    0 -0.19590223393E+02 -0.46312287304E+02 -0.35098904094E+02  0.61323224610E+02  0.00000000000E+00 0. -1.
        -14    1    4    4    0    0 -0.36936477366E+01  0.35499652841E+01  0.30367480041E+02  0.30796576615E+02  0.00000000000E+00 0.  1.
</event>
<event>
12    1  0.1046899E+000  0.2552176E+03  0.7818608E-02  0.1110056E+00
         21   -1    0    0  503  502  0.00000000000E+00  0.00000000000E+00  0.18609104606E+03  0.18609104606E+03  0.00000000000E+00 0. -1.
         21   -1    0    0  501  503 -0.00000000000E+00 -0.00000000000E+00 -0.42549608830E+03  0.42549608830E+03  0.00000000000E+00 0. -1.
          6    2    1    2  501    0  0.13561761212E+03 -0.12871153891E+03  0.91197491580E+01  0.25538047234E+03  0.17371591424E+03 0.  0.
         24    2    3    3    0    0  0.62325910325E+02 -0.15730741268E+00  0.30780647900E+02  0.10575043350E+03  0.79694178314E+02 0.  0.
         -6    2    1    2    0  502 -0.13561761212E+03  0.12871153891E+03 -0.24852479140E+03  0.35620666203E+03  0.17366582038E+03 0.  0.
        -24    2    5    5    0    0 -0.49122433355E+01  0.84900532916E+02 -0.13580081190E+03  0.17807164798E+03  0.77687969983E+02 0.  0.
          5    1    3    3  501    0  0.73291701791E+02 -0.12855423150E+03 -0.21660898742E+02  0.14963003883E+03  0.47000000000E+01 0. -1.
        -13    1    4    4    0    0  0.18341080784E+02 -0.38278146689E+02  0.77119614281E+01  0.43140307224E+02  0.00000000000E+00 0.  1.
         14    1    4    4    0    0  0.43984829541E+02  0.38120839277E+02  0.23068686472E+02  0.62610126278E+02  0.00000000000E+00 0. -1.
         -5    1    5    5    0  502 -0.13070536878E+03  0.43811005995E+02 -0.11272397950E+03  0.17813501405E+03  0.47000000000E+01 0.  1.
         11    1    6    6    0    0  0.86373889760E+01  0.40499346056E+02 -0.81003487242E+01  0.42194989853E+02  0.00000000000E+00 0. -1.
        -12    1    6    6    0    0 -0.13549632312E+02  0.44401186860E+02 -0.12770046317E+03  0.13587665813E+03  0.00000000000E+00 0.  1.
</event>
<event>
12    1  0.1046899E+000  0.1725406E+03  0.7818608E-02  0.1175294E+00
         21   -1    0    0  501  502  0.00000000000E+00  0.00000000000E+00  0.53506737463E+02  0.53506737463E+02  0.00000000000E+00 0. -1.
         21   -1    0    0  502  503 -0.00000000000E+00 -0.00000000000E+00 -0.66121110858E+03  0.66121110858E+03  0.00000000000E+00 0. -1.
         -6    2    1    2    0  503 -0.11371670164E+02  0.68361196206E+01 -0.16076086749E+03  0.23562626618E+03  0.17175457312E+03 0.  0.
        -24    2    3    3    0    0 -0.47559213812E+02 -0.44594925010E+02 -0.12565176042E+03  0.16344988455E+03  0.81712384047E+02 0.  0.
          6    2    1    2  501    0  0.11371670164E+02 -0.68361196206E+01 -0.44694350363E+03  0.47909157986E+03  0.17202964583E+03 0.  0.
         24    2    5    5    0    0 -0.41568485363E+02 -0.20138711622E+02 -0.38605307215E+03  0.39718093546E+03  0.81130846727E+02 0.  0.
          5    1    5    5  501    0  0.52940155527E+02  0.13302592002E+02 -0.60890431472E+02  0.81910644400E+02  0.47000000000E+01 0. -1.
        -11    1    6    6    0    0 -0.35622024623E+01 -0.15635805179E+02 -0.32316450366E+03  0.32356214877E+03  0.00000000000E+00 0.  1.
         12    1    6    6    0    0 -0.38006282901E+02 -0.45029064430E+01 -0.62888568492E+02  0.73618786687E+02  0.00000000000E+00 0. -1.
         -5    1    3    3    0  503  0.36187543648E+02  0.51431044630E+02 -0.35109107069E+02  0.72176381637E+02  0.47000000000E+01 0.  1.
         13    1    4    4    0    0  0.65527132165E+01 -0.49745141369E+02 -0.59658937488E+02  0.77953229327E+02  0.00000000000E+00 0. -1.
        -14    1    4    4    0    0 -0.54111927028E+02  0.51502163591E+01 -0.65992822932E+02  0.85496655220E+02  0.00000000000E+00 0.  1.
</event>
<event>
12    1  0.1046899E+000  0.1821852E+03  0.7818608E-02  0.1165971E+00
         21   -1    0    0  503  502  0.00000000000E+00  0.00000000000E+00  0.80094425823E+02  0.80094425823E+02  0.00000000000E+00 0.  1.
         21   -1    0    0  501  503 -0.00000000000E+00 -0.00000000000E+00 -0.49878404404E+03  0.49878404404E+03  0.00000000000E+00 0.  1.
          6    2    1    2  501    0 -0.28161322739E+02 -0.51940631494E+02 -0.33069291593E+03  0.37755694162E+03  0.17233847575E+03 0.  0.
         24    2    3    3    0    0  0.40575681180E+02 -0.14138751274E+02 -0.24311291001E+03  0.25988746686E+03  0.81186933821E+02 0.  0.
         -6    2    1    2    0  502  0.28161322739E+02  0.51940631494E+02 -0.87996702288E+02  0.20132152824E+03  0.17116088578E+03 0.  0.
        -24    2    5    5    0    0  0.35073069099E+02 -0.32625472284E+02 -0.69538230550E+02  0.11436174831E+03  0.77126534675E+02 0.  0.
          5    1    3    3  501    0 -0.68737003919E+02 -0.37801880220E+02 -0.87580005915E+02  0.11766947477E+03  0.47000000000E+01 0. -1.
        -11    1    4    4    0    0 -0.84532913500E+01  0.25485756806E+02 -0.50113832370E+02  0.56854007154E+02  0.00000000000E+00 0.  1.
         12    1    4    4    0    0  0.49028972530E+02 -0.39624508080E+02 -0.19299907764E+03  0.20303345970E+03  0.00000000000E+00 0. -1.
         -5    1    5    5    0  502 -0.69117463602E+01  0.84566103778E+02 -0.18458471737E+02  0.86959779926E+02  0.47000000000E+01 0.  1.
         13    1    6    6    0    0  0.92302716568E+01  0.19532436992E+02  0.24972845388E+01  0.21747423750E+02  0.00000000000E+00 0. -1.
        -14    1    6    6    0    0  0.25842797442E+02 -0.52157909276E+02 -0.72035515089E+02  0.92614324561E+02  0.00000000000E+00 0.  1.
</event>
<event>
12    1  0.1046899E+000  0.2239147E+03  0.7818608E-02  0.1131146E+00
         21   -1    0    0  503  502  0.00000000000E+00  0.00000000000E+00  0.34460305441E+03  0.34460305441E+03  0.00000000000E+00 0. -1.
         21   -1    0    0  501  503 -0.00000000000E+00 -0.00000000000E+00 -0.14553885172E+03  0.14553885172E+03  0.00000000000E+00 0. -1.
          6    2    1    2  501    0 -0.11368598114E+03  0.86285124988E+02  0.83979391147E+02  0.23838347136E+03  0.17147745093E+03 0.  0.
         24    2    3    3    0    0  0.12013192858E+01  0.68488533485E+02  0.53981044797E+02  0.11822606937E+03  0.79820598187E+02 0.  0.
         -6    2    1    2    0  502  0.11368598114E+03 -0.86285124988E+02  0.11508481153E+03  0.25175843477E+03  0.17253454881E+03 0.  0.
        -24    2    5    5    0    0  0.13769935899E+03 -0.38626327982E+02  0.60741996363E+02  0.17544831219E+03  0.81482595986E+02 0.  0.
          5    1    3    3  501    0 -0.11488730042E+03  0.17796591503E+02  0.29998346350E+02  0.12015740198E+03  0.47000000000E+01 0. -1.
        -11    1    4    4    0    0 -0.20407702140E+01 -0.69209603666E+01 -0.14573034532E+02  0.16261542698E+02  0.00000000000E+00 0.  1.
         12    1    4    4    0    0  0.32420894998E+01  0.75409493851E+02  0.68554079329E+02  0.10196452667E+03  0.00000000000E+00 0. -1.
         -5    1    5    5    0  502 -0.24013377853E+02 -0.47658797006E+02  0.54342815171E+02  0.76310122584E+02  0.47000000000E+01 0.  1.
         11    1    6    6    0    0 -0.55516963901E+01  0.10857460135E+02  0.60459916935E-01  0.12194647547E+02  0.00000000000E+00 0. -1.
        -12    1    6    6    0    0  0.14325105538E+03 -0.49483788117E+02  0.60681536446E+02  0.16325366464E+03  0.00000000000E+00 0.  1.
</event>
<event>
12    1  0.1046899E+000  0.2911942E+03  0.7818608E-02  0.1089832E+00
         21   -1    0    0  503  502  0.00000000000E+00  0.00000000000E+00  0.12715855267E+04  0.12715855267E+04  0.00000000000E+00 0. -1.
         21   -1    0    0  501  503 -0.00000000000E+00 -0.00000000000E+00 -0.71338546844E+02  0.71338546844E+02  0.00000000000E+00 0.  1.
          6    2    1    2  501    0  0.83650116082E+00 -0.23409701328E+03  0.42448275884E+03  0.51430825861E+03  0.17182916213E+03 0.  0.
         24    2    3    3    0    0 -0.48565933773E+02 -0.66911583227E+02  0.19991786848E+03  0.22997913843E+03  0.78022048684E+02 0.  0.
         -6    2    1    2    0  502 -0.83650116082E+00  0.23409701328E+03  0.77576422097E+03  0.82861581489E+03  0.17318178538E+03 0.  0.
        -24    2    5    5    0    0 -0.45581570240E+01  0.58850112684E+02  0.42332125973E+03  0.43496183254E+03  0.80664702749E+02 0.  0.
          5    1    3    3  501    0  0.49402434933E+02 -0.16718543006E+03  0.22456489036E+03  0.28432912018E+03  0.47000000000E+01 0. -1.
        -11    1    4    4    0    0 -0.54138519809E+02 -0.60496905365E+02  0.20471238052E+03  0.22022264557E+03  0.00000000000E+00 0.  1.
         12    1    4    4    0    0  0.55725860364E+01 -0.64146778621E+01 -0.47945120349E+01  0.97564928566E+01  0.00000000000E+00 0. -1.
         -5    1    5    5    0  502  0.37216558632E+01  0.17524690060E+03  0.35244296124E+03  0.39365398235E+03  0.47000000000E+01 0.  1.
         13    1    6    6    0    0  0.85265712001E+01  0.50693362312E+01  0.21254943598E+01  0.10144866314E+02  0.00000000000E+00 0. -1.
        -14    1    6    6    0    0 -0.13084728224E+02  0.53780776453E+02  0.42119576537E+03  0.42481696623E+03  0.00000000000E+00 0.  1.
</event>
<event>
12    1  0.1046899E+000  0.5247150E+03  0.7818608E-02  0.1007568E+00
         21   -1    0    0  503  502  0.00000000000E+00  0.00000000000E+00  0.22906350410E+04  0.22906350410E+04  0.00000000000E+00 0.  1.
         21   -1    0    0  501  503 -0.00000000000E+00 -0.00000000000E+00 -0.13796380889E+03  0.13796380889E+03  0.00000000000E+00 0.  1.
          6    2    1    2  501    0  0.26082666889E+03 -0.42045791569E+03  0.63912743054E+03  0.82692789817E+03  0.17467245414E+03 0.  0.
         24    2    3    3    0    0  0.82471990657E+02 -0.10024751358E+03  0.14989188877E+03  0.21560261798E+03  0.84650560188E+02 0.  0.
         -6    2    1    2    0  502 -0.26082666889E+03  0.42045791569E+03  0.15135438015E+04  0.16016709517E+04  0.17239370134E+03 0.  0.
        -24    2    5    5    0    0 -0.83211105631E+02  0.13901651283E+03  0.38871169978E+03  0.42862964863E+03  0.79855564603E+02 0.  0.
          5    1    3    3  501    0  0.17835467823E+03 -0.32021040211E+03  0.48923554177E+03  0.61132528019E+03  0.47000000000E+01 0. -1.
        -13    1    4    4    0    0  0.43165741312E+02 -0.10418578699E+03  0.92118969913E+02  0.14561546639E+03  0.00000000000E+00 0.  1.
         14    1    4    4    0    0  0.39306249346E+02  0.39382734105E+01  0.57772918859E+02  0.69987151596E+02  0.00000000000E+00 0. -1.
         -5    1    5    5    0  502 -0.17761556326E+03  0.28144140286E+03  0.11248321017E+04  0.11730413031E+04  0.47000000000E+01 0.  1.
         13    1    6    6    0    0 -0.92070540400E+02  0.11794638944E+03  0.36993503622E+03  0.39904920275E+03  0.00000000000E+00 0. -1.
        -14    1    6    6    0    0  0.88594347696E+01  0.21070123385E+02  0.18776663560E+02  0.29580445878E+02  0.00000000000E+00 0.  1.
</event>
<event>
12    1  0.1046899E+000  0.1828244E+03  0.7818608E-02  0.1165338E+00
         21   -1    0    0  503  502  0.00000000000E+00  0.00000000000E+00  0.52896679139E+02  0.52896679139E+02  0.00000000000E+00 0.  1.
         21   -1    0    0  501  503 -0.00000000000E+00 -0.00000000000E+00 -0.11905970934E+04  0.11905970934E+04  0.00000000000E+00 0.  1.
          6    2    1    2  501    0  0.87983421374E+01 -0.62151222831E+02 -0.14243793859E+03  0.23176138695E+03  0.17171077079E+03 0.  0.
         24    2    3    3    0    0 -0.17218072404E+02 -0.96761713588E+02 -0.62170136420E+02  0.14043915547E+03  0.78732072842E+02 0.  0.
         -6    2    1    2    0  502 -0.87983421374E+01  0.62151222831E+02 -0.99526247568E+03  0.10117323856E+04  0.17063071016E+03 0.  0.
        -24    2    5    5    0    0  0.21156818966E+02  0.98368653248E+02 -0.50463676206E+03  0.51883818315E+03  0.66413821922E+02 0.  0.
          5    1    3    3  501    0  0.26016414542E+02  0.34610490758E+02 -0.80267802169E+02  0.91322231473E+02  0.47000000000E+01 0. -1.
        -11    1    4    4    0    0 -0.28648878323E+02 -0.51077064962E+02  0.45876835183E+01  0.58742417675E+02  0.00000000000E+00 0.  1.
         12    1    4    4    0    0  0.11430805918E+02 -0.45684648626E+02 -0.66757819939E+02  0.81696737799E+02  0.00000000000E+00 0. -1.
         -5    1    5    5    0  502 -0.29955161103E+02 -0.36217430417E+02 -0.49062571362E+03  0.49289420245E+03  0.47000000000E+01 0.  1.
         13    1    6    6    0    0 -0.73090046969E+01  0.25604269698E+02 -0.42568298482E+02  0.50210160446E+02  0.00000000000E+00 0. -1.
        -14    1    6    6    0    0  0.28465823663E+02  0.72764383549E+02 -0.46206846358E+03  0.46862802270E+03  0.00000000000E+00 0.  1.
</event>
<event>
12    1  0.1046899E+000  0.2060611E+03  0.7818608E-02  0.1145087E+00
         21   -1    0    0  503  502  0.00000000000E+00  0.00000000000E+00  0.12021017469E+04  0.12021017469E+04  0.00000000000E+00 0. -1.
         21   -1    0    0  501  503 -0.00000000000E+00 -0.00000000000E+00 -0.39181300874E+02  0.39181300874E+02  0.00000000000E+00 0. -1.
          6    2    1    2  501    0 -0.10932308417E+03 -0.29252425378E+02  0.38140378185E+03  0.43350898599E+03  0.17220323749E+03 0.  0.
         24    2    3    3    0    0  0.25310164915E+01  0.22009392109E+01  0.95819284919E+02  0.12515651094E+03  0.80446048326E+02 0.  0.
         -6    2    1    2    0  502  0.10932308417E+03  0.29252425378E+02  0.78151666414E+03  0.80777406175E+03  0.17006880191E+03 0.  0.
        -24    2    5    5    0    0  0.79629019347E+02 -0.22512419237E+02  0.30260048082E+03  0.32513119454E+03  0.85414594345E+02 0.  0.
          5    1    3    3  501    0 -0.11185410067E+03 -0.31453364588E+02  0.28558449693E+03  0.30835247505E+03  0.47000000000E+01 0. -1.
        -13    1    4    4    0    0 -0.16682245218E+02 -0.21551675763E+02  0.29758425632E+01  0.27415828871E+02  0.00000000000E+00 0.  1.
         14    1    4    4    0    0  0.19213261710E+02  0.23752614973E+02  0.92843442356E+02  0.97740682073E+02  0.00000000000E+00 0. -1.
         -5    1    5    5    0  502  0.29694064826E+02  0.51764844614E+02  0.47891618332E+03  0.48264286721E+03  0.47000000000E+01 0.  1.
         13    1    6    6    0    0  0.17457246495E+02  0.31572957746E+02  0.79673733991E+02  0.87461482974E+02  0.00000000000E+00 0. -1.
        -14    1    6    6    0    0  0.62171772852E+02 -0.54085376983E+02  0.22292674683E+03  0.23766971157E+03  0.00000000000E+00 0.  1.
</event>
<event>
12    1  0.1046899E+000  0.2181508E+03  0.7818608E-02  0.1135486E+00
         21   -1    0    0  501  502  0.00000000000E+00  0.00000000000E+00  0.73730031604E+03  0.73730031604E+03  0.00000000000E+00 0.  1.
         21   -1    0    0  502  503 -0.00000000000E+00 -0.00000000000E+00 -0.86230719671E+02  0.86230719671E+02  0.00000000000E+00 0.  1.
         -6    2    1    2    0  503  0.13311738168E+03 -0.11225197755E+02  0.53427241466E+03  0.57709340634E+03  0.17246316766E+03 0.  0.
        -24    2    3    3    0    0  0.13410738260E+03 -0.14356264477E+02  0.54385594081E+03  0.56592570048E+03  0.79383384389E+02 0.  0.
          6    2    1    2  501    0 -0.13311738168E+03  0.11225197755E+02  0.11679718170E+03  0.24643762937E+03  0.17100783942E+03 0.  0.
         24    2    5    5    0    0 -0.14085302201E+03  0.36426721223E+02  0.49619176885E+02  0.17411936579E+03  0.81786374168E+02 0.  0.
          5    1    5    5  501    0  0.77356403250E+01 -0.25201523469E+02  0.67178004817E+02  0.72318263582E+02  0.47000000000E+01 0. -1.
        -11    1    6    6    0    0 -0.46882642773E+02  0.66852257302E+01  0.58372694550E+02  0.75166787250E+02  0.00000000000E+00 0.  1.
         12    1    6    6    0    0 -0.93970379233E+02  0.29741495493E+02 -0.87535176647E+01  0.98952578536E+02  0.00000000000E+00 0. -1.
         -5    1    3    3    0  503 -0.99000092023E+00  0.31310667222E+01 -0.95835261472E+01  0.11167705855E+02  0.47000000000E+01 0.  1.
         13    1    4    4    0    0  0.11580218634E+03 -0.41769909598E+02  0.41093344478E+03  0.42897688486E+03  0.00000000000E+00 0. -1.
        -14    1    4    4    0    0  0.18305196259E+02  0.27413645121E+02  0.13292249603E+03  0.13694881562E+03  0.00000000000E+00 0.  1.
</event>
<event>
12    1  0.1046899E+000  0.2701303E+03  0.7818608E-02  0.1101515E+00
         21   -1    0    0  503  502  0.00000000000E+00  0.00000000000E+00  0.37658523588E+03  0.37658523588E+03  0.00000000000E+00 0.  1.
         21   -1    0    0  501  503 -0.00000000000E+00 -0.00000000000E+00 -0.24002578251E+03  0.24002578251E+03  0.00000000000E+00 0.  1.
          6    2    1    2  501    0  0.32572783217E+02 -0.20137955241E+03  0.20564624609E+03  0.33778604391E+03  0.17376513630E+03 0.  0.
         24    2    3    3    0    0  0.72057133895E+02 -0.12560642580E+03  0.74010947674E+02  0.18078119540E+03  0.78962114264E+02 0.  0.
         -6    2    1    2    0  502 -0.32572783217E+02  0.20137955241E+03 -0.69086792729E+02  0.27882497448E+03  0.17707532615E+03 0.  0.
        -24    2    5    5    0    0  0.36597997684E+02  0.18975770646E+03 -0.49761287909E+02  0.20591935487E+03  0.50785769093E+02 0.  0.
          5    1    3    3  501    0 -0.39484350678E+02 -0.75773126611E+02  0.13163529842E+03  0.15700484851E+03  0.47000000000E+01 0. -1.
        -13    1    4    4    0    0  0.10925126673E+02 -0.66219088641E+02 -0.11809963939E+01  0.67124666448E+02  0.00000000000E+00 0.  1.
         14    1    4    4    0    0  0.61132007222E+02 -0.59387337158E+02  0.75191944067E+02  0.11365652896E+03  0.00000000000E+00 0. -1.
         -5    1    5    5    0  502 -0.69170780902E+02  0.11621845951E+02 -0.19325504820E+02  0.72905619608E+02  0.47000000000E+01 0.  1.
         13    1    6    6    0    0  0.14782695638E+02  0.12753950919E+03 -0.55214646850E+02  0.13976234014E+03  0.00000000000E+00 0. -1.
        -14    1    6    6    0    0  0.21815302046E+02  0.62218197269E+02  0.54533589407E+01  0.66157014734E+02  0.00000000000E+00 0.  1.
</event>
<event>
12    1  0.1046899E+000  0.1852377E+03  0.7818608E-02  0.1163352E+00
         21   -1    0    0  503  502  0.00000000000E+00  0.00000000000E+00  0.40982134878E+03  0.40982134878E+03  0.00000000000E+00 0. -1.
         21   -1    0    0  501  503 -0.00000000000E+00 -0.00000000000E+00 -0.82795722668E+02  0.82795722668E+02  0.00000000000E+00 0. -1.
          6    2    1    2  501    0 -0.24778197614E+02 -0.58296914009E+02  0.15507426594E+03  0.23987158110E+03  0.17169117101E+03 0.  0.
         24    2    3    3    0    0  0.10160225411E+02 -0.74143491714E+02  0.32137243539E+02  0.11100184491E+03  0.75419623494E+02 0.  0.
         -6    2    1    2    0  502  0.24778197614E+02  0.58296914009E+02  0.17195136017E+03  0.25274549034E+03  0.17407045517E+03 0.  0.
        -24    2    5    5    0    0  0.81424493998E+02  0.21478918434E+02  0.11626939333E+03  0.16507029931E+03  0.81476007068E+02 0.  0.
          5    1    3    3  501    0 -0.34938423024E+02  0.15846577705E+02  0.12293702240E+03  0.12886973619E+03  0.47000000000E+01 0. -1.
        -13    1    4    4    0    0  0.18374833849E+01 -0.10366182344E+02 -0.23632933563E+02  0.25871792175E+02  0.00000000000E+00 0.  1.
         14    1    4    4    0    0  0.83227420256E+01 -0.63777309370E+02  0.55770177101E+02  0.85130052738E+02  0.00000000000E+00 0. -1.
         -5    1    5    5    0  502 -0.56646296384E+02  0.36817995575E+02  0.55681966838E+02  0.87675191036E+02  0.47000000000E+01 0.  1.
         13    1    6    6    0    0  0.69919906167E+02  0.48399948060E+02  0.69184741591E+02  0.10962607682E+03  0.00000000000E+00 0. -1.
        -14    1    6    6    0    0  0.11504587831E+02 -0.26921029627E+02  0.47084651740E+02  0.55444222483E+02  0.00000000000E+00 0.  1.
</event>
<event>
12    1  0.1046899E+000  0.2305540E+03  0.7818608E-02  0.1126904E+00
         21   -1    0    0  503  502  0.00000000000E+00  0.00000000000E+00  0.12727450451E+03  0.12727450451E+03  0.00000000000E+00 0.  1.
         21   -1    0    0  501  503 -0.00000000000E+00 -0.00000000000E+00 -0.41917167551E+03  0.41917167551E+03  0.00000000000E+00 0.  1.
          6    2    1    2  501    0  0.99634508424E+01  0.14960991460E+03 -0.18530321006E+03  0.29579118356E+03  0.17513636890E+03 0.  0.
         24    2    3    3    0    0 -0.23753111807E+02  0.11493259301E+03 -0.19931261620E+03  0.24521770543E+03  0.81440118022E+02 0.  0.
         -6    2    1    2    0  502 -0.99634508424E+01 -0.14960991460E+03 -0.10659396094E+03  0.25065499647E+03  0.17024469990E+03 0.  0.
        -24    2    5    5    0    0 -0.10193133267E+02 -0.11987885482E+02 -0.12660485431E+02  0.83965274303E+02  0.81500122904E+02 0.  0.
          5    1    3    3  501    0  0.33716562650E+02  0.34677321590E+02  0.14009406140E+02  0.50573478128E+02  0.47000000000E+01 0. -1.
        -11    1    4    4    0    0  0.12550080279E+02  0.99688941073E+01  0.11238470350E+01  0.16066934894E+02  0.00000000000E+00 0.  1.
         12    1    4    4    0    0 -0.36303192086E+02  0.10496369890E+03 -0.20043646324E+03  0.22915077054E+03  0.00000000000E+00 0. -1.
         -5    1    5    5    0  502  0.22968242509E+00 -0.13762202912E+03 -0.93933475509E+02  0.16668972216E+03  0.47000000000E+01 0.  1.
         11    1    6    6    0    0 -0.13670832928E+02 -0.43973882927E+02  0.65173196923E+01  0.46508811085E+02  0.00000000000E+00 0. -1.
        -12    1    6    6    0    0  0.34776996602E+01  0.31985997445E+02 -0.19177805123E+02  0.37456463218E+02  0.00000000000E+00 0.  1.
</event>
<event>
12    1  0.1046899E+000  0.2881509E+03  0.7818608E-02  0.1091354E+00
         21   -1    0    0  501  502  0.00000000000E+00  0.00000000000E+00  0.31978804928E+03  0.31978804928E+03  0.00000000000E+00 0.  1.
         21   -1    0    0  502  503 -0.00000000000E+00 -0.00000000000E+00 -0.26313571303E+03  0.26313571303E+03  0.00000000000E+00 0.  1.
         -6    2    1    2    0  503 -0.18723625237E+03  0.13556558040E+03 -0.63840438634E+01  0.28822164034E+03  0.17203347684E+03 0.  0.
        -24    2    3    3    0    0 -0.11928851400E+03  0.54532419586E+02 -0.66091624244E+02  0.16668829736E+03  0.78824814134E+02 0.  0.
          6    2    1    2  501    0  0.18723625237E+03 -0.13556558040E+03  0.63036380113E+02  0.29470212198E+03  0.17158180174E+03 0.  0.
         24    2    5    5    0    0  0.15232429332E+03 -0.42583345282E+02  0.81735011854E+02  0.19352766986E+03  0.75870384261E+02 0.  0.
          5    1    5    5  501    0  0.34911959050E+02 -0.92982235115E+02 -0.18698631741E+02  0.10117445211E+03  0.47000000000E+01 0. -1.
        -11    1    6    6    0    0 -0.65572898036E+01  0.83153846349E+00 -0.41191061596E+01  0.77882309505E+01  0.00000000000E+00 0.  1.
         12    1    6    6    0    0  0.15888158313E+03 -0.43414883745E+02  0.85854118013E+02  0.18573943891E+03  0.00000000000E+00 0. -1.
         -5    1    3    3    0  503 -0.67947738377E+02  0.81033160811E+02  0.59707580380E+02  0.12153334298E+03  0.47000000000E+01 0.  1.
         13    1    4    4    0    0 -0.43564803207E+02  0.63200250231E+02 -0.35231706831E+02  0.84459676023E+02  0.00000000000E+00 0. -1.
        -14    1    4    4    0    0 -0.75723710789E+02 -0.86678306447E+01 -0.30859917413E+02  0.82228621334E+02  0.00000000000E+00 0.  1.
</event>
<event>
12    1  0.1046899E+000  0.2157298E+03  0.7818608E-02  0.1137210E+00
         21   -1    0    0  503  502  0.00000000000E+00  0.00000000000E+00  0.23994177215E+03  0.23994177215E+03  0.00000000000E+00 0.  1.
         21   -1    0    0  501  503 -0.00000000000E+00 -0.00000000000E+00 -0.19405964572E+03  0.19405964572E+03  0.00000000000E+00 0.  1.
          6    2    1    2  501    0  0.12865389937E+03 -0.85390667303E+01  0.34852348234E+02  0.21852699736E+03  0.17295843696E+03 0.  0.
         24    2    3    3    0    0  0.31982395533E+02 -0.52331382895E+01 -0.38922969757E+02  0.96784661415E+02  0.82474321763E+02 0.  0.
         -6    2    1    2    0  502 -0.12865389937E+03  0.85390667303E+01  0.11029778197E+02  0.21547442050E+03  0.17228705233E+03 0.  0.
        -24    2    5    5    0    0 -0.89946593787E+01  0.39155434002E+02  0.52702808891E+01  0.91736966717E+02  0.82303361368E+02 0.  0.
          5    1    3    3  501    0  0.96671503835E+02 -0.33059284409E+01  0.73775317990E+02  0.12174233594E+03  0.47000000000E+01 0. -1.
        -11    1    4    4    0    0 -0.27184908323E+02 -0.88223501329E+01 -0.68590305910E+01  0.29392165675E+02  0.00000000000E+00 0.  1.
         12    1    4    4    0    0  0.59167303856E+02  0.35892118434E+01 -0.32063939166E+02  0.67392495740E+02  0.00000000000E+00 0. -1.
         -5    1    5    5    0  502 -0.11965923999E+03 -0.30616367272E+02  0.57594973075E+01  0.12373745378E+03  0.47000000000E+01 0.  1.
         13    1    6    6    0    0 -0.45651166837E+02  0.23991083133E+02 -0.96630231155E+00  0.51580372659E+02  0.00000000000E+00 0. -1.
        -14    1    6    6    0    0  0.36656507458E+02  0.15164350870E+02  0.62365832006E+01  0.40156594058E+02  0.00000000000E+00 0.  1.
</event>
<event>
12    1  0.1046899E+000  0.4616925E+03  0.7818608E-02  0.1024354E+00
         21   -1    0    0  503  502  0.00000000000E+00  0.00000000000E+00  0.30911845887E+03  0.30911845887E+03  0.00000000000E+00 0.  1.
         21   -1    0    0  501  503 -0.00000000000E+00 -0.00000000000E+00 -0.78135016049E+03  0.78135016049E+03  0.00000000000E+00 0.  1.
          6    2    1    2  501    0 -0.33925921755E+03  0.26052793631E+03 -0.47734846313E+02  0.46328636120E+03  0.17141766136E+03 0.  0.
         24    2    3    3    0    0 -0.15902317079E+03  0.79540544991E+02 -0.69262055280E+02  0.20691362650E+03  0.80005933441E+02 0.  0.
         -6    2    1    2    0  502  0.33925921755E+03 -0.26052793631E+03 -0.42449685531E+03  0.62718225816E+03  0.17374804314E+03 0.  0.
        -24    2    5    5    0    0  0.14218235378E+03 -0.19202070236E+03 -0.25551213116E+03  0.35864835279E+03  0.79084890649E+02 0.  0.
          5    1    3    3  501    0 -0.18023604677E+03  0.18098739132E+03  0.21527208967E+02  0.25637273470E+03  0.47000000000E+01 0. -1.
        -13    1    4    4    0    0 -0.88925692205E+02  0.17675926401E+02 -0.17718457333E+00  0.90665586098E+02  0.00000000000E+00 0.  1.
         14    1    4    4    0    0 -0.70097478581E+02  0.61864618590E+02 -0.69084870706E+02  0.11624804040E+03  0.00000000000E+00 0. -1.
         -5    1    5    5    0  502  0.19707686377E+03 -0.68507233950E+02 -0.16898472414E+03  0.26853390537E+03  0.47000000000E+01 0.  1.
         13    1    6    6    0    0  0.12883675379E+03 -0.17282866760E+03 -0.25674333693E+03  0.33523991190E+03  0.00000000000E+00 0. -1.
        -14    1    6    6    0    0  0.13345599993E+02 -0.19192034765E+02  0.12312057700E+01  0.23408440897E+02  0.00000000000E+00 0.  1.
</event>
<event>
12    1  0.2660055E+000  0.2544858E+03  0.7818608E-02  0.1110796E+00
         21   -1    0    0  503  502  0.00000000000E+00  0.00000000000E+00  0.62223810988E+03  0.62223810988E+03  0.00000000000E+00 0.  1.
         21   -1    0    0  501  503 -0.00000000000E+00 -0.00000000000E+00 -0.30712273839E+03  0.30712273839E+03  0.00000000000E+00 0. -1.
          6    2    1    2  501    0 -0.83649416919E+02 -0.16995105641E+03  0.53629867593E+03  0.59361544502E+03  0.16994834579E+03 0.  0.
         24    2    3    3    0    0 -0.43650703621E+02 -0.61135214991E+02  0.12447194853E+03  0.16575550554E+03  0.79616098926E+02 0.  0.
         -6    2    1    2    0  502  0.83649416919E+02  0.16995105641E+03 -0.22118330443E+03  0.33574540326E+03  0.16709977595E+03 0.  0.
        -24    2    5    5    0    0  0.11490350989E+03  0.15602797012E+03 -0.21588401343E+03  0.30080483737E+03  0.79561918583E+02 0.  0.
          5    1    3    3  501    0 -0.39998713298E+02 -0.10881584142E+03  0.41182672739E+03  0.42785993947E+03  0.47000000000E+01 0. -1.
        -13    1    4    4    0    0  0.53665839701E+01  0.15758165839E+02  0.30903794279E+02  0.35102200999E+02  0.00000000000E+00 0.  1.
         14    1    4    4    0    0 -0.49017287591E+02 -0.76893380830E+02  0.93568154253E+02  0.13065330454E+03  0.00000000000E+00 0. -1.
         -5    1    5    5    0  502 -0.31254092967E+02  0.13923086291E+02 -0.52992910014E+01  0.34940565883E+02  0.47000000000E+01 0.  1.
         13    1    6    6    0    0  0.19280776505E+02  0.89727151669E+02 -0.11219184705E+03  0.14494730296E+03  0.00000000000E+00 0. -1.
        -14    1    6    6    0    0  0.95622733381E+02  0.66300818451E+02 -0.10369216638E+03  0.15585753442E+03  0.00000000000E+00 0.  1.
</event>
<event>
12    1  0.1046899E+000  0.1792289E+03  0.7818608E-02  0.1168578E+00
         21   -1    0    0  503  502  0.00000000000E+00  0.00000000000E+00  0.48572954211E+03  0.48572954211E+03  0.00000000000E+00 0.  1.
         21   -1    0    0  501  503 -0.00000000000E+00 -0.00000000000E+00 -0.77411339465E+02  0.77411339465E+02  0.00000000000E+00 0.  1.
          6    2    1    2  501    0 -0.27602632266E+02  0.41202079082E+02  0.96546886656E+02  0.20357874184E+03  0.17223090947E+03 0.  0.
         24    2    3    3    0    0  0.22484528718E+02 -0.57558341169E+01  0.10610261546E+03  0.13410089457E+03  0.78654950642E+02 0.  0.
         -6    2    1    2    0  502  0.27602632266E+02 -0.41202079082E+02  0.31177131599E+03  0.35956213974E+03  0.17211642058E+03 0.  0.
        -24    2    5    5    0    0  0.59850573608E+02 -0.44486850405E+02  0.30744274529E+03  0.32652358699E+03  0.80842069559E+02 0.  0.
          5    1    3    3  501    0 -0.50087160983E+02  0.46957913198E+02 -0.95557288018E+01  0.69477847263E+02  0.47000000000E+01 0. -1.
        -11    1    4    4    0    0  0.44594440630E+02  0.16267984604E+02  0.81685019590E+02  0.94476208029E+02  0.00000000000E+00 0.  1.
         12    1    4    4    0    0 -0.22109911912E+02 -0.22023818721E+02  0.24417595868E+02  0.39624686545E+02  0.00000000000E+00 0. -1.
         -5    1    5    5    0  502 -0.32247941343E+02  0.32847713233E+01  0.43285707024E+01  0.33038552750E+02  0.47000000000E+01 0.  1.
         13    1    6    6    0    0  0.17355656044E+02  0.10477749757E+02  0.18200474385E+03  0.18313036018E+03  0.00000000000E+00 0. -1.
        -14    1    6    6    0    0  0.42494917565E+02 -0.54964600162E+02  0.12543800145E+03  0.14339322682E+03  0.00000000000E+00 0.  1.
</event>
<event>
12    1  0.1046899E+000  0.2061238E+03  0.7818608E-02  0.1144799E+00
         21   -1    0    0  501  502  0.00000000000E+00  0.00000000000E+00  0.19086949042E+03  0.19086949042E+03  0.00000000000E+00 0. -1.
         21   -1    0    0  502  503 -0.00000000000E+00 -0.00000000000E+00 -0.29972153679E+03  0.29972153679E+03  0.00000000000E+00 0. -1.
         -6    2    1    2    0  503  0.58374278709E+02  0.97942717286E+02 -0.17945611765E+03  0.27329749791E+03  0.17171689468E+03 0.  0.
        -24    2    3    3    0    0  0.20085248137E+01  0.11781326570E+03 -0.11399015526E+03  0.18452915255E+03  0.84695058282E+02 0.  0.
          6    2    1    2  501    0 -0.58374278709E+02 -0.97942717286E+02  0.70604071282E+02  0.21729352930E+03  0.17097137394E+03 0.  0.
         24    2    5    5    0    0 -0.21392036955E+02  0.12739286112E+02  0.43805292232E+01  0.83033186662E+02  0.79091165089E+02 0.  0.
          5    1    5    5  501    0 -0.36982241754E+02 -0.11068200340E+03  0.66223542059E+02  0.13426034263E+03  0.47000000000E+01 0. -1.
        -11    1    6    6    0    0 -0.44944744190E+02 -0.98274417340E+01 -0.10485665989E+02  0.47186415763E+02  0.00000000000E+00 0.  1.
         12    1    6    6    0    0  0.23552707235E+02  0.22566727846E+02  0.14866195212E+02  0.35846770899E+02  0.00000000000E+00 0. -1.
         -5    1    3    3    0  503  0.56365753896E+02 -0.19870548413E+02 -0.65465962390E+02  0.88768345361E+02  0.47000000000E+01 0.  1.
         11    1    4    4    0    0 -0.28479884189E+02  0.11731989320E+02 -0.44431556847E+02  0.54063912369E+02  0.00000000000E+00 0. -1.
        -12    1    4    4    0    0  0.30488409003E+02  0.10608127638E+03 -0.69558598414E+02  0.13046524018E+03  0.00000000000E+00 0.  1.
</event>
<event>
12    1  0.1046899E+000  0.3654488E+03  0.7818608E-02  0.1056485E+00
         21   -1    0    0  501  502  0.00000000000E+00  0.00000000000E+00  0.33970499844E+04  0.33970499844E+04  0.00000000000E+00 0. -1.
         21   -1    0    0  502  503 -0.00000000000E+00 -0.00000000000E+00 -0.44594488682E+02  0.44594488682E+02  0.00000000000E+00 0. -1.
         -6    2    1    2    0  503  0.61322207502E+02 -0.31664992158E+03  0.10809569836E+04  0.11409362529E+04  0.17099692086E+03 0.  0.
        -24    2    3    3    0    0 -0.30088581188E+02 -0.10746307120E+03  0.37835731279E+03  0.40216466573E+03  0.78284914479E+02 0.  0.
          6    2    1    2  501    0 -0.61322207502E+02  0.31664992158E+03  0.22714985121E+04  0.23007082202E+04  0.17182909421E+03 0.  0.
         24    2    5    5    0    0 -0.42980055837E+02  0.31374258682E+03  0.18365781517E+04  0.18653661741E+04  0.79309269422E+02 0.  0.
          5    1    5    5  501    0 -0.18342151664E+02  0.29073347647E+01  0.43492036046E+03  0.43534204606E+03  0.47000000000E+01 0. -1.
        -11    1    6    6    0    0 -0.11818839173E+02  0.94099688825E+02  0.36308307535E+03  0.37526491443E+03  0.00000000000E+00 0.  1.
         12    1    6    6    0    0 -0.31161216665E+02  0.21964289799E+03  0.14734950763E+04  0.14901012597E+04  0.00000000000E+00 0. -1.
         -5    1    3    3    0  503  0.91410788690E+02 -0.20918685038E+03  0.70259967078E+03  0.73877158719E+03  0.47000000000E+01 0.  1.
         11    1    4    4    0    0 -0.26789451764E+02 -0.10722791744E+03  0.38174946538E+03  0.39742691822E+03  0.00000000000E+00 0. -1.
        -12    1    4    4    0    0 -0.32991294237E+01 -0.23515375833E+00 -0.33921525977E+01  0.47377475123E+01  0.00000000000E+00 0.  1.
</event>
<event>
12    1  0.1046899E+000  0.3172151E+03  0.7818608E-02  0.1077015E+00
         21   -1    0    0  501  502  0.00000000000E+00  0.00000000000E+00  0.23747525224E+03  0.23747525224E+03  0.00000000000E+00 0. -1.
         21   -1    0    0  502  503 -0.00000000000E+00 -0.00000000000E+00 -0.43108680980E+03  0.43108680980E+03  0.00000000000E+00 0. -1.
         -6    2    1    2    0  503  0.85563460727E+02 -0.25183430761E+03 -0.14290633961E+03  0.34732004921E+03  0.17166062561E+03 0.  0.
        -24    2    3    3    0    0  0.32846873908E+02 -0.24417826843E+03 -0.13742682456E+03  0.29356348174E+03  0.81187694906E+02 0.  0.
          6    2    1    2  501    0 -0.85563460727E+02  0.25183430761E+03 -0.50705217959E+02  0.32124201283E+03  0.17286927829E+03 0.  0.
         24    2    5    5    0    0 -0.20336085066E+02  0.41628471770E+02 -0.42765350487E+02  0.10095530090E+03  0.78845491689E+02 0.  0.
          5    1    5    5  501    0 -0.65227375661E+02  0.21020583584E+03 -0.79398674726E+01  0.22028671193E+03  0.47000000000E+01 0. -1.
        -11    1    6    6    0    0 -0.13980165508E+02  0.55748581229E+02 -0.56251410445E+02  0.80421206866E+02  0.00000000000E+00 0.  1.
         12    1    6    6    0    0 -0.63559195573E+01 -0.14120109460E+02  0.13486059958E+02  0.20534094033E+02  0.00000000000E+00 0. -1.
         -5    1    3    3    0  503  0.52716586819E+02 -0.76560391820E+01 -0.54795150520E+01  0.53756567478E+02  0.47000000000E+01 0.  1.
         11    1    4    4    0    0  0.19037662429E+02 -0.15725743626E+03 -0.13057618813E+03  0.20528632384E+03  0.00000000000E+00 0. -1.
        -12    1    4    4    0    0  0.13809211479E+02 -0.86920832168E+02 -0.68506364235E+01  0.88277157894E+02  0.00000000000E+00 0.  1.
</event>
<event>
12    1  0.1046899E+000  0.2112559E+03  0.7818608E-02  0.1140875E+00
         21   -1    0    0  503  502  0.00000000000E+00  0.00000000000E+00  0.12272607448E+04  0.12272607448E+04  0.00000000000E+00 0.  1.
         21   -1    0    0  501  503 -0.00000000000E+00 -0.00000000000E+00 -0.37438692103E+02  0.37438692103E+02  0.00000000000E+00 0.  1.
          6    2    1    2  501    0  0.24386368473E+02  0.12045645408E+03  0.71639668195E+03  0.74689574264E+03  0.17182721600E+03 0.  0.
         24    2    3    3    0    0  0.80193156566E+02  0.69210120188E+02  0.39822774369E+03  0.41979614372E+03  0.80140397697E+02 0.  0.
         -6    2    1    2    0  502 -0.24386368473E+02 -0.12045645408E+03  0.47342537075E+03  0.51780369427E+03  0.16995479351E+03 0.  0.
        -24    2    5    5    0    0 -0.26056155685E+02 -0.12618576627E+02  0.31276176672E+03  0.32424057882E+03  0.80460415792E+02 0.  0.
          5    1    3    3  501    0 -0.55806788093E+02  0.51246333888E+02  0.31816893826E+03  0.32709959891E+03  0.47000000000E+01 0. -1.
        -13    1    4    4    0    0  0.61188608258E+02  0.58623224462E+02  0.16435957585E+03  0.18491835604E+03  0.00000000000E+00 0.  1.
         14    1    4    4    0    0  0.19004548308E+02  0.10586895726E+02  0.23386816784E+03  0.23487778769E+03  0.00000000000E+00 0. -1.
         -5    1    5    5    0  502  0.16697872120E+01 -0.10783787745E+03  0.16066360403E+03  0.19356311545E+03  0.47000000000E+01 0.  1.
         11    1    6    6    0    0 -0.24426854327E+02 -0.22237309699E+02  0.42618873580E+02  0.53921586959E+02  0.00000000000E+00 0. -1.
        -12    1    6    6    0    0 -0.16293013574E+01  0.96187330723E+01  0.27014289314E+03  0.27031899186E+03  0.00000000000E+00 0.  1.
</event>
<event>
12    1  0.1046899E+000  0.1746138E+03  0.7818608E-02  0.1173976E+00
         21   -1    0    0  503  502  0.00000000000E+00  0.00000000000E+00  0.46617966253E+03  0.46617966253E+03  0.00000000000E+00 0.  1.
         21   -1    0    0  501  503 -0.00000000000E+00 -0.00000000000E+00 -0.85990065321E+02  0.85990065321E+02  0.00000000000E+00 0.  1.
          6    2    1    2  501    0 -0.27776289564E+02 -0.15597938490E+02  0.33060551281E+03  0.37388498838E+03  0.17168331745E+03 0.  0.
         24    2    3    3    0    0 -0.63666267273E+02 -0.60444599601E+02  0.21981809681E+03  0.24900402483E+03  0.77305015932E+02 0.  0.
         -6    2    1    2    0  502  0.27776289564E+02  0.15597938490E+02  0.49584084403E+02  0.17828473947E+03  0.16826184641E+03 0.  0.
        -24    2    5    5    0    0 -0.10743851226E+02  0.62184174714E+02  0.40453619174E+01  0.10245635496E+03  0.80614129003E+02 0.  0.
          5    1    3    3  501    0  0.35889977709E+02  0.44846661111E+02  0.11078741600E+03  0.12488096355E+03  0.47000000000E+01 0. -1.
        -11    1    4    4    0    0 -0.29384800703E+02 -0.61669100024E+02  0.19512529235E+03  0.20673757308E+03  0.00000000000E+00 0.  1.
         12    1    4    4    0    0 -0.34281466570E+02  0.12245004225E+01  0.24692804466E+02  0.42266451754E+02  0.00000000000E+00 0. -1.
         -5    1    5    5    0  502  0.38520140790E+02 -0.46586236224E+02  0.45538722486E+02  0.75828384512E+02  0.47000000000E+01 0.  1.
         13    1    6    6    0    0  0.24769258761E+02  0.57573056723E+02 -0.10964052502E+02  0.63626908516E+02  0.00000000000E+00 0. -1.
        -14    1    6    6    0    0 -0.35513109987E+02  0.46111179908E+01  0.15009414419E+02  0.38829446446E+02  0.00000000000E+00 0.  1.
</event>
<event>
12    1  0.1046899E+000  0.2788664E+03  0.7818608E-02  0.1096336E+00
         21   -1    0    0  503  502  0.00000000000E+00  0.00000000000E+00  0.28968698256E+03  0.28968698256E+03  0.00000000000E+00 0.  1.
         21   -1    0    0  501  503 -0.00000000000E+00 -0.00000000000E+00 -0.27336561538E+03  0.27336561538E+03  0.00000000000E+00 0.  1.
          6    2    1    2  501    0  0.20528266996E+03 -0.75492369562E+02 -0.30297180152E+02  0.28031644498E+03  0.17268270832E+03 0.  0.
         24    2    3    3    0    0  0.27621322106E+02 -0.27101705780E+02 -0.32755394714E+02  0.96106391831E+02  0.81646082435E+02 0.  0.
         -6    2    1    2    0  502 -0.20528266996E+03  0.75492369562E+02  0.46618547337E+02  0.28273615295E+03  0.17299240094E+03 0.  0.
        -24    2    5    5    0    0 -0.20498804301E+03  0.16230092171E+02  0.40199936531E+02  0.22294156381E+03  0.76179999387E+02 0.  0.
          5    1    3    3  501    0  0.17766134786E+03 -0.48390663782E+02  0.24582145613E+01  0.18421005315E+03  0.47000000000E+01 0. -1.
        -13    1    4    4    0    0  0.41134601092E+02 -0.48883929820E+02 -0.17358781285E+02  0.66204390257E+02  0.00000000000E+00 0.  1.
         14    1    4    4    0    0 -0.13513278986E+02  0.21782224040E+02 -0.15396613428E+02  0.29902001574E+02  0.00000000000E+00 0. -1.
         -5    1    5    5    0  502 -0.29462695286E+00  0.59262277391E+02  0.64186108058E+01  0.59794589147E+02  0.47000000000E+01 0.  1.
         11    1    6    6    0    0 -0.18177013135E+03  0.39720711346E+02  0.30710560840E+02  0.18857691828E+03  0.00000000000E+00 0. -1.
        -12    1    6    6    0    0 -0.23217911655E+02 -0.23490619175E+02  0.94893756909E+01  0.34364645522E+02  0.00000000000E+00 0.  1.
</event>
<event>
12    1  0.1046899E+000  0.2183131E+03  0.7818608E-02  0.1135388E+00
         21   -1    0    0  501  502  0.00000000000E+00  0.00000000000E+00  0.63561648264E+03  0.63561648264E+03  0.00000000000E+00 0. -1.
         21   -1    0    0  502  503 -0.00000000000E+00 -0.00000000000E+00 -0.82654275481E+02  0.82654275481E+02  0.00000000000E+00 0. -1.
         -6    2    1    2    0  503  0.61607881092E+02  0.11829013003E+03  0.16472928056E+03  0.27348919462E+03  0.17283667962E+03 0.  0.
        -24    2    3    3    0    0  0.57387451778E+02  0.37901345088E+02  0.50168637069E+02  0.13339494133E+03  0.10270095737E+03 0.  0.
          6    2    1    2  501    0 -0.61607881092E+02 -0.11829013003E+03  0.38823292661E+03  0.44478156351E+03  0.17122426248E+03 0.  0.
         24    2    5    5    0    0 -0.10509048881E+03 -0.91509601321E+02  0.32933228620E+03  0.36668348842E+03  0.81111084156E+02 0.  0.
          5    1    5    5  501    0  0.43482607722E+02 -0.26780528711E+02  0.58900640409E+02  0.78098075091E+02  0.47000000000E+01 0. -1.
        -13    1    6    6    0    0 -0.75530638936E+02 -0.53845881899E+02  0.11852359455E+03  0.15050614234E+03  0.00000000000E+00 0.  1.
         14    1    6    6    0    0 -0.29559849878E+02 -0.37663719422E+02  0.21080869164E+03  0.21617734608E+03  0.00000000000E+00 0. -1.
         -5    1    3    3    0  503  0.42204293135E+01  0.80388784944E+02  0.11456064349E+03  0.14009425329E+03  0.47000000000E+01 0.  1.
         13    1    4    4    0    0 -0.13702183260E+02  0.49396023057E+02  0.25665392821E+02  0.57327387073E+02  0.00000000000E+00 0. -1.
        -14    1    4    4    0    0  0.71089635038E+02 -0.11494677969E+02  0.24503244248E+02  0.76067554254E+02  0.00000000000E+00 0.  1.
</event>
<event>
12    1  0.1046899E+000  0.2301467E+03  0.7818608E-02  0.1126987E+00
         21   -1    0    0  501  502  0.00000000000E+00  0.00000000000E+00  0.28426459912E+03  0.28426459912E+03  0.00000000000E+00 0. -1.
         21   -1    0    0  502  503 -0.00000000000E+00 -0.00000000000E+00 -0.18896696765E+03  0.18896696765E+03  0.00000000000E+00 0. -1.
         -6    2    1    2    0  503  0.23364878810E+01  0.15166185385E+03  0.84667124494E+02  0.24283949224E+03  0.16969301674E+03 0.  0.
        -24    2    3    3    0    0 -0.25558596462E+02  0.14799168508E+02  0.14955844516E+02  0.86662403887E+02  0.80090184920E+02 0.  0.
          6    2    1    2  501    0 -0.23364878810E+01 -0.15166185385E+03  0.10630506981E+02  0.23039207454E+03  0.17309166138E+03 0.  0.
         24    2    5    5    0    0 -0.20828517597E+02 -0.96201357319E+02 -0.58727901372E+02  0.13955980798E+03  0.79620633681E+02 0.  0.
          5    1    5    5  501    0  0.18492029716E+02 -0.55460496534E+02  0.69358408353E+02  0.90832266558E+02  0.47000000000E+01 0. -1.
        -13    1    6    6    0    0 -0.38503354435E+01 -0.10541679081E+03 -0.57648366716E+02  0.12021172594E+03  0.00000000000E+00 0.  1.
         14    1    6    6    0    0 -0.16978182154E+02  0.92154334892E+01 -0.10795346560E+01  0.19348082042E+02  0.00000000000E+00 0. -1.
         -5    1    3    3    0  503  0.27895084343E+02  0.13686268535E+03  0.69711279978E+02  0.15617708835E+03  0.47000000000E+01 0.  1.
         11    1    4    4    0    0 -0.72516501487E+00 -0.86128552567E+01 -0.29429437359E+02  0.30672445668E+02  0.00000000000E+00 0. -1.
        -12    1    4    4    0    0 -0.24833431447E+02  0.23412023765E+02  0.44385281875E+02  0.55989958219E+02  0.00000000000E+00 0.  1.
</event>
<event>
12    1  0.1046899E+000  0.4035096E+03  0.7818608E-02  0.1042606E+00
         21   -1    0    0  503  502  0.00000000000E+00  0.00000000000E+00  0.20942942316E+04  0.20942942316E+04  0.00000000000E+00 0.  1.
         21   -1    0    0  501  503 -0.00000000000E+00 -0.00000000000E+00 -0.97361698036E+02  0.97361698036E+02  0.00000000000E+00 0.  1.
          6    2    1    2  501    0  0.68595779651E+02 -0.35952620564E+03  0.14917383614E+04  0.15453489413E+04  0.16986917945E+03 0.  0.
         24    2    3    3    0    0  0.81357467987E+02 -0.36121885962E+03  0.14675048413E+04  0.15175086959E+04  0.11029089243E+03 0.  0.
         -6    2    1    2    0  502 -0.68595779651E+02  0.35952620564E+03  0.50519417221E+03  0.64630698833E+03  0.16889966844E+03 0.  0.
        -24    2    5    5    0    0  0.18556650041E+02  0.17698494176E+03  0.30356483473E+03  0.36066151094E+03  0.79101818674E+02 0.  0.
          5    1    3    3  501    0 -0.12761688336E+02  0.16926539780E+01  0.24233520127E+02  0.27840245409E+02  0.47000000000E+01 0. -1.
        -11    1    4    4    0    0 -0.60137695292E+01 -0.12305504880E+02  0.18540796091E+03  0.18591315941E+03  0.00000000000E+00 0.  1.
         12    1    4    4    0    0  0.87371237516E+02 -0.34891335474E+03  0.12820968803E+04  0.13315955365E+04  0.00000000000E+00 0. -1.
         -5    1    5    5    0  502 -0.87152429692E+02  0.18254126388E+03  0.20162933747E+03  0.28564547738E+03  0.47000000000E+01 0.  1.
         13    1    6    6    0    0 -0.51438327728E+01  0.14058941112E+03  0.17253538475E+03  0.22262142872E+03  0.00000000000E+00 0. -1.
        -14    1    6    6    0    0  0.23700482814E+02  0.36395530637E+02  0.13102944999E+03  0.13804008222E+03  0.00000000000E+00 0.  1.
</event>
<event>
12    1  0.1046899E+000  0.1940468E+03  0.7818608E-02  0.1156157E+00
         21   -1    0    0  503  502  0.00000000000E+00  0.00000000000E+00  0.23965311568E+03  0.23965311568E+03  0.00000000000E+00 0. -1.
         21   -1    0    0  501  503 -0.00000000000E+00 -0.00000000000E+00 -0.28715325790E+03  0.28715325790E+03  0.00000000000E+00 0. -1.
          6    2    1    2  501    0 -0.64593987658E+02 -0.39940167276E+02  0.15683791258E+03  0.24501174826E+03  0.17223537894E+03 0.  0.
         24    2    3    3    0    0 -0.92005274800E+02 -0.71306165099E+02  0.89046441774E+02  0.16530617758E+03  0.76467795720E+02 0.  0.
         -6    2    1    2    0  502  0.64593987658E+02  0.39940167276E+02 -0.20433805480E+03  0.28179462532E+03  0.17856811031E+03 0.  0.
        -24    2    5    5    0    0  0.79984319183E+02  0.82304300710E+02 -0.18646854545E+03  0.23308126504E+03  0.79905371782E+02 0.  0.
          5    1    3    3  501    0  0.27411287142E+02  0.31365997823E+02  0.67791470808E+02  0.79705570674E+02  0.47000000000E+01 0. -1.
        -11    1    4    4    0    0 -0.53321923333E+02 -0.39481024229E+02  0.93904963062E+02  0.11497878443E+03  0.00000000000E+00 0.  1.
         12    1    4    4    0    0 -0.38683351467E+02 -0.31825140869E+02 -0.48585212881E+01  0.50327393149E+02  0.00000000000E+00 0. -1.
         -5    1    5    5    0  502 -0.15390331524E+02 -0.42364133435E+02 -0.17869509352E+02  0.48713360288E+02  0.47000000000E+01 0.  1.
         13    1    6    6    0    0  0.44899681639E+02  0.91703765352E+02 -0.15124853138E+03  0.18248747966E+03  0.00000000000E+00 0. -1.
        -14    1    6    6    0    0  0.35084637544E+02 -0.93994646415E+01 -0.35220014069E+02  0.50593785371E+02  0.00000000000E+00 0.  1.
</event>
<event>
12    1  0.1046899E+000  0.2413673E+03  0.7818608E-02  0.1119293E+00
         21   -1    0    0  501  502  0.00000000000E+00  0.00000000000E+00  0.16959484289E+03  0.16959484289E+03  0.00000000000E+00 0.  1.
         21   -1    0    0  502  503 -0.00000000000E+00 -0.00000000000E+00 -0.34363102687E+03  0.34363102687E+03  0.00000000000E+00 0.  1.
         -6    2    1    2    0  503 -0.39935797655E+02  0.16462676655E+03 -0.61204518559E+02  0.24900632055E+03  0.17193404079E+03 0.  0.
        -24    2    3    3    0    0 -0.45560060418E+02  0.13694224832E+03  0.15822514467E+02  0.16682774246E+03  0.82172046394E+02 0.  0.
          6    2    1    2  501    0  0.39935797655E+02 -0.16462676655E+03 -0.11283166542E+03  0.26421954921E+03  0.16847594861E+03 0.  0.
         24    2    5    5    0    0 -0.28023665607E+02 -0.12875163906E+03 -0.10683278780E+03  0.18699526577E+03  0.78687193853E+02 0.  0.
          5    1    5    5  501    0  0.67959463263E+02 -0.35875127490E+02 -0.59988776260E+01  0.77224283436E+02  0.47000000000E+01 0. -1.
        -13    1    6    6    0    0 -0.24343103234E+02 -0.74560243990E+01 -0.21485534965E+00  0.25460265861E+02  0.00000000000E+00 0.  1.
         14    1    6    6    0    0 -0.36805623729E+01 -0.12129561466E+03 -0.10661793245E+03  0.16153499991E+03  0.00000000000E+00 0. -1.
         -5    1    3    3    0  503  0.56242627622E+01  0.27684518233E+02 -0.77027033026E+02  0.82178578098E+02  0.47000000000E+01 0.  1.
         11    1    4    4    0    0 -0.26884519141E+02  0.57580964504E+02 -0.33197293048E+02  0.71696618528E+02  0.00000000000E+00 0. -1.
        -12    1    4    4    0    0 -0.18675541277E+02  0.79361283816E+02  0.49019807515E+02  0.95131123927E+02  0.00000000000E+00 0.  1.
</event>
<event>
12    1  0.1046899E+000  0.1807787E+03  0.7818608E-02  0.1167070E+00
         21   -1    0    0  501  502  0.00000000000E+00  0.00000000000E+00  0.49805555471E+02  0.49805555471E+02  0.00000000000E+00 0. -1.
         21   -1    0    0  502  503 -0.00000000000E+00 -0.00000000000E+00 -0.10531987863E+04  0.10531987863E+04  0.00000000000E+00 0. -1.
         -6    2    1    2    0  503 -0.56835288485E+01 -0.57098633482E+02 -0.16303050990E+03  0.24343356381E+03  0.17143044183E+03 0.  0.
        -24    2    3    3    0    0 -0.38765207390E+02 -0.20106329315E+02 -0.20233978499E+02  0.92186192257E+02  0.78624896658E+02 0.  0.
          6    2    1    2  501    0  0.56835288485E+01  0.57098633482E+02 -0.84036272091E+03  0.85957077794E+03  0.17134720058E+03 0.  0.
         24    2    5    5    0    0 -0.43866176349E+02 -0.21027119188E+01 -0.33123520810E+03  0.34460195667E+03  0.84291652187E+02 0.  0.
          5    1    5    5  501    0  0.49549705198E+02  0.59201345400E+02 -0.50912751281E+03  0.51496882127E+03  0.47000000000E+01 0. -1.
        -11    1    6    6    0    0 -0.40109393855E+02 -0.61006452562E+01 -0.33531796381E+03  0.33776340566E+03  0.00000000000E+00 0.  1.
         12    1    6    6    0    0 -0.37567824941E+01  0.39979333374E+01  0.40827557114E+01  0.68385510071E+01  0.00000000000E+00 0. -1.
         -5    1    3    3    0  503  0.33081678542E+02 -0.36992304167E+02 -0.14279653140E+03  0.15124737155E+03  0.47000000000E+01 0.  1.
         13    1    4    4    0    0 -0.15282716272E+02  0.17051622712E+02 -0.38331736086E+02  0.44650209912E+02  0.00000000000E+00 0. -1.
        -14    1    4    4    0    0 -0.23482491118E+02 -0.37157952026E+02  0.18097757587E+02  0.47535982346E+02  0.00000000000E+00 0.  1.
</event>
<event>
12    1  0.1046899E+000  0.1907891E+03  0.7818608E-02  0.1158478E+00
         21   -1    0    0  501  502  0.00000000000E+00  0.00000000000E+00  0.17752217083E+03  0.17752217083E+03  0.00000000000E+00 0. -1.
         21   -1    0    0  502  503 -0.00000000000E+00 -0.00000000000E+00 -0.29373480245E+03  0.29373480245E+03  0.00000000000E+00 0. -1.
         -6    2    1    2    0  503 -0.46755290110E+02  0.61425947054E+02  0.73508980033E+02  0.20446042648E+03  0.17447432971E+03 0.  0.
        -24    2    3    3    0    0 -0.55454949688E+02  0.11513319160E+02  0.10463953238E+03  0.14481014745E+03  0.82539318541E+02 0.  0.
          6    2    1    2  501    0  0.46755290110E+02 -0.61425947054E+02 -0.18972161166E+03  0.26679654679E+03  0.17095877669E+03 0.  0.
         24    2    5    5    0    0  0.46558696302E+02 -0.10129591980E+03 -0.98707202721E+02  0.16732109248E+03  0.76319463780E+02 0.  0.
          5    1    5    5  501    0  0.19659380783E+00  0.39869972745E+02 -0.91014408937E+02  0.99475454309E+02  0.47000000000E+01 0. -1.
        -13    1    6    6    0    0  0.55438741427E+02 -0.69164319242E+02 -0.10041471369E+03  0.13394129995E+03  0.00000000000E+00 0.  1.
         14    1    6    6    0    0 -0.88800451245E+01 -0.32131600557E+02  0.17075109695E+01  0.33379792532E+02  0.00000000000E+00 0. -1.
         -5    1    3    3    0  503  0.86996595781E+01  0.49912627894E+02 -0.31130552342E+02  0.59650279037E+02  0.47000000000E+01 0.  1.
         13    1    4    4    0    0  0.12659208656E+02  0.21418155172E+00  0.62830197335E+02  0.64093175415E+02  0.00000000000E+00 0. -1.
        -14    1    4    4    0    0 -0.68114158345E+02  0.11299137608E+02  0.41809335040E+02  0.80716972033E+02  0.00000000000E+00 0.  1.
</event>
<event>
12    1  0.1046899E+000  0.2660397E+03  0.7818608E-02  0.1103820E+00
         21   -1    0    0  501  502  0.00000000000E+00  0.00000000000E+00  0.67807449295E+02  0.67807449295E+02  0.00000000000E+00 0.  1.
         21   -1    0    0  502  503 -0.00000000000E+00 -0.00000000000E+00 -0.10840584352E+04  0.10840584352E+04  0.00000000000E+00 0. -1.
         -6    2    1    2    0  503  0.10767217916E+03  0.17151371093E+03 -0.38662777015E+03  0.46834376281E+03  0.16986640727E+03 0.  0.
        -24    2    3    3    0    0 -0.31237253161E+01  0.33605862124E+02 -0.13867919529E+03  0.16372122100E+03  0.80209771040E+02 0.  0.
          6    2    1    2  501    0 -0.10767217916E+03 -0.17151371093E+03 -0.62962321571E+03  0.68352212163E+03  0.17253070972E+03 0.  0.
         24    2    5    5    0    0 -0.14067742550E+03 -0.16304921661E+03 -0.57062292697E+03  0.61522777325E+03  0.80743440003E+02 0.  0.
          5    1    5    5  501    0  0.33005246345E+02 -0.84644943192E+01 -0.59000288742E+02  0.68294348390E+02  0.47000000000E+01 0. -1.
        -11    1    6    6    0    0 -0.85920082210E+02 -0.12609053517E+03 -0.29893855115E+03  0.33562678819E+03  0.00000000000E+00 0.  1.
         12    1    6    6    0    0 -0.54757343294E+02 -0.36958681435E+02 -0.27168437583E+03  0.27960098506E+03  0.00000000000E+00 0. -1.
         -5    1    3    3    0  503  0.11079590448E+03  0.13790784880E+03 -0.24794857485E+03  0.30462254181E+03  0.47000000000E+01 0.  1.
         11    1    4    4    0    0  0.36467557730E+02  0.11908689449E+02 -0.41201634517E+02  0.56296308387E+02  0.00000000000E+00 0. -1.
        -12    1    4    4    0    0 -0.39591283046E+02  0.21697172674E+02 -0.97477560777E+02  0.10742491262E+03  0.00000000000E+00 0.  1.
</event>
<event>
12    1  0.1046899E+000  0.2420308E+03  0.7818608E-02  0.1119439E+00
         21   -1    0    0  501  502  0.00000000000E+00  0.00000000000E+00  0.40897164559E+02  0.40897164559E+02  0.00000000000E+00 0.  1.
         21   -1    0    0  502  503 -0.00000000000E+00 -0.00000000000E+00 -0.14635514479E+04  0.14635514479E+04  0.00000000000E+00 0.  1.
         -6    2    1    2    0  503 -0.37649369358E+02  0.15727771448E+03 -0.54299291694E+03  0.59209832911E+03  0.17200397959E+03 0.  0.
        -24    2    3    3    0    0 -0.19302690338E+02  0.18243550092E+03 -0.40568864612E+03  0.45122935582E+03  0.73275835782E+02 0.  0.
          6    2    1    2  501    0  0.37649369358E+02 -0.15727771448E+03 -0.87966136644E+03  0.91235028339E+03  0.18006989064E+03 0.  0.
         24    2    5    5    0    0 -0.14412092588E+02 -0.69605628557E+01 -0.34926182694E+03  0.35858914049E+03  0.79662978030E+02 0.  0.
          5    1    5    5  501    0  0.52061461945E+02 -0.15031715162E+03 -0.53039953949E+03  0.55376114290E+03  0.47000000000E+01 0. -1.
        -13    1    6    6    0    0 -0.14751249191E+01 -0.21289528904E+02 -0.21617508396E+02  0.30376581501E+02  0.00000000000E+00 0.  1.
         14    1    6    6    0    0 -0.12936967669E+02  0.14328966048E+02 -0.32764431855E+03  0.32821255899E+03  0.00000000000E+00 0. -1.
         -5    1    3    3    0  503 -0.18346679019E+02 -0.25157786441E+02 -0.13730427082E+03  0.14086897329E+03  0.47000000000E+01 0.  1.
         13    1    4    4    0    0 -0.14828836711E+02  0.10246249314E+03 -0.14260941718E+03  0.17622685030E+03  0.00000000000E+00 0. -1.
        -14    1    4    4    0    0 -0.44738536279E+01  0.79973007778E+02 -0.26307922894E+03  0.27500250551E+03  0.00000000000E+00 0.  1.
</event>
<event>
12    1  0.1046899E+000  0.3517553E+03  0.7818608E-02  0.1061925E+00
         21   -1    0    0  503  502  0.00000000000E+00  0.00000000000E+00  0.13490184613E+04  0.13490184613E+04  0.00000000000E+00 0. -1.
         21   -1    0    0  501  503 -0.00000000000E+00 -0.00000000000E+00 -0.11712624245E+03  0.11712624245E+03  0.00000000000E+00 0. -1.
          6    2    1    2  501    0  0.26686039980E+03  0.15159551444E+03  0.95765757635E+03  0.10201217744E+04  0.17130302989E+03 0.  0.
         24    2    3    3    0    0  0.24730566768E+03  0.14151611550E+03  0.68130854063E+03  0.74285861172E+03  0.80440569648E+02 0.  0.
         -6    2    1    2    0  502 -0.26686039980E+03 -0.15159551444E+03  0.27423464251E+03  0.44602292938E+03  0.17186081983E+03 0.  0.
        -24    2    5    5    0    0 -0.11833458932E+03 -0.10404998943E+03  0.86758543222E+02  0.20211747406E+03  0.92168070218E+02 0.  0.
          5    1    3    3  501    0  0.19554732120E+02  0.10079398940E+02  0.27634903572E+03  0.27726316267E+03  0.47000000000E+01 0. -1.
        -11    1    4    4    0    0  0.82825558953E+02  0.91756954012E+02  0.26160338875E+03  0.28933673260E+03  0.00000000000E+00 0.  1.
         12    1    4    4    0    0  0.16448010873E+03  0.49759161487E+02  0.41970515188E+03  0.45352187912E+03  0.00000000000E+00 0. -1.
         -5    1    5    5    0  502 -0.14852581048E+03 -0.47545525007E+02  0.18747609929E+03  0.24390545532E+03  0.47000000000E+01 0.  1.
         13    1    6    6    0    0 -0.10841212910E+03 -0.52253129890E+02  0.28780381596E+02  0.12374122064E+03  0.00000000000E+00 0. -1.
        -14    1    6    6    0    0 -0.99224602204E+01 -0.51796859542E+02  0.57978161626E+02  0.78376253424E+02  0.00000000000E+00 0.  1.
</event>
<event>
12    1  0.1046899E+000  0.2205308E+03  0.7818608E-02  0.1134025E+00
         21   -1    0    0  501  502  0.00000000000E+00  0.00000000000E+00  0.20291127946E+03  0.20291127946E+03  0.00000000000E+00 0.  1.
         21   -1    0    0  502  503 -0.00000000000E+00 -0.00000000000E+00 -0.51698863958E+03  0.51698863958E+03  0.00000000000E+00 0.  1.
         -6    2    1    2    0  503 -0.10540971813E+03 -0.86456273202E+02 -0.42260525489E+03  0.47668548602E+03  0.17334346041E+03 0.  0.
        -24    2    3    3    0    0 -0.92949185114E+01 -0.12835113662E+02 -0.78686101259E+02  0.11204785210E+03  0.78179811811E+02 0.  0.
          6    2    1    2  501    0  0.10540971813E+03  0.86456273202E+02  0.10852789477E+03  0.24321443303E+03  0.16967339402E+03 0.  0.
         24    2    5    5    0    0  0.13578311021E+03  0.47617255406E+02  0.93879594386E+02  0.19156489330E+03  0.84730597019E+02 0.  0.
          5    1    5    5  501    0 -0.30373392083E+02  0.38839017796E+02  0.14648300388E+02  0.51649539729E+02  0.47000000000E+01 0. -1.
        -11    1    6    6    0    0  0.26537068713E+02  0.31421555110E+02  0.65824800934E+02  0.77617231073E+02  0.00000000000E+00 0.  1.
         12    1    6    6    0    0  0.10924604150E+03  0.16195700297E+02  0.28054793452E+02  0.11394766222E+03  0.00000000000E+00 0. -1.
         -5    1    3    3    0  503 -0.96114799614E+02 -0.73621159539E+02 -0.34391915364E+03  0.36463763392E+03  0.47000000000E+01 0.  1.
         13    1    4    4    0    0 -0.42576548375E+01 -0.29667307649E+02  0.14519107703E+01  0.30006412860E+02  0.00000000000E+00 0. -1.
        -14    1    4    4    0    0 -0.50372636739E+01  0.16832193986E+02 -0.80138012030E+02  0.82041439235E+02  0.00000000000E+00 0.  1.
</event>
<event>
12    1  0.1046899E+000  0.1858106E+03  0.7818608E-02  0.1162338E+00
         21   -1    0    0  501  502  0.00000000000E+00  0.00000000000E+00  0.10438787060E+03  0.10438787060E+03  0.00000000000E+00 0. -1.
         21   -1    0    0  502  503 -0.00000000000E+00 -0.00000000000E+00 -0.47239446062E+03  0.47239446062E+03  0.00000000000E+00 0. -1.
         -6    2    1    2    0  503  0.35322213493E+02 -0.59249520202E+02 -0.25963841034E+02  0.18761578227E+03  0.17253230510E+03 0.  0.
        -24    2    3    3    0    0 -0.32118480871E+02 -0.12617646478E+02  0.27368910656E+02  0.89691059616E+02  0.78132113042E+02 0.  0.
          6    2    1    2  501    0 -0.35322213493E+02  0.59249520202E+02 -0.34204274899E+03  0.38916654895E+03  0.17233454754E+03 0.  0.
         24    2    5    5    0    0  0.29073710455E+02  0.75685276500E+02 -0.16340125099E+03  0.19850495367E+03  0.78298825595E+02 0.  0.
          5    1    5    5  501    0 -0.64395923948E+02 -0.16435756298E+02 -0.17864149800E+03  0.19066159528E+03  0.47000000000E+01 0. -1.
        -13    1    6    6    0    0 -0.15387295251E+02  0.12146891130E+02 -0.23358774541E+01  0.19742647815E+02  0.00000000000E+00 0.  1.
         14    1    6    6    0    0  0.44461005706E+02  0.63538385369E+02 -0.16106537353E+03  0.17876230586E+03  0.00000000000E+00 0. -1.
         -5    1    3    3    0  503  0.67440694363E+02 -0.46631873723E+02 -0.53332751690E+02  0.97924722650E+02  0.47000000000E+01 0.  1.
         11    1    4    4    0    0 -0.34760559700E+02 -0.31832863983E+02 -0.94533050209E+01  0.48072785605E+02  0.00000000000E+00 0. -1.
        -12    1    4    4    0    0  0.26420788291E+01  0.19215217505E+02  0.36822215677E+02  0.41618274011E+02  0.00000000000E+00 0.  1.
</event>
<event>
12    1  0.1046899E+000  0.4294866E+03  0.7818608E-02  0.1034231E+00
         21   -1    0    0  501  502  0.00000000000E+00  0.00000000000E+00  0.45474732445E+03  0.45474732445E+03  0.00000000000E+00 0. -1.
         21   -1    0    0  502  503 -0.00000000000E+00 -0.00000000000E+00 -0.42629596313E+03  0.42629596313E+03  0.00000000000E+00 0. -1.
         -6    2    1    2    0  503  0.11468642404E+03  0.37633719765E+03 -0.88471990000E+02  0.43592554617E+03  0.16559325648E+03 0.  0.
        -24    2    3    3    0    0  0.80525015390E+02  0.13823093612E+03  0.14088136455E+01  0.17909439057E+03  0.80503081769E+02 0.  0.
          6    2    1    2  501    0 -0.11468642404E+03 -0.37633719765E+03  0.11692335132E+03  0.44511774141E+03  0.17226744163E+03 0.  0.
         24    2    5    5    0    0 -0.10435506106E+03 -0.13683323499E+03  0.39830685066E+02  0.19325616360E+03  0.78410129000E+02 0.  0.
          5    1    5    5  501    0 -0.10331362981E+02 -0.23950396266E+03  0.77092666254E+02  0.25186157781E+03  0.47000000000E+01 0. -1.
        -11    1    6    6    0    0 -0.10151329382E+03 -0.13092876675E+03  0.56741925888E+02  0.17511977883E+03  0.00000000000E+00 0.  1.
         12    1    6    6    0    0 -0.28417672382E+01 -0.59044682383E+01 -0.16911240822E+02  0.18136384765E+02  0.00000000000E+00 0. -1.
         -5    1    3    3    0  503  0.34161408647E+02  0.23810626153E+03 -0.89880803645E+02  0.25683115559E+03  0.47000000000E+01 0.  1.
         13    1    4    4    0    0  0.40936931868E+02  0.15096235421E+02 -0.19991923611E+02  0.47993809229E+02  0.00000000000E+00 0. -1.
        -14    1    4    4    0    0  0.39588083522E+02  0.12313470070E+03  0.21400737257E+02  0.13110058134E+03  0.00000000000E+00 0.  1.
</event>
<event>
12    1  0.1046899E+000  0.2299541E+03  0.7818608E-02  0.1127186E+00
         21   -1    0    0  503  502  0.00000000000E+00  0.00000000000E+00  0.10155751438E+04  0.10155751438E+04  0.00000000000E+00 0. -1.
         21   -1    0    0  501  503 -0.00000000000E+00 -0.00000000000E+00 -0.51609358277E+02  0.51609358277E+02  0.00000000000E+00 0.  1.
          6    2    1    2  501    0 -0.62624347278E+02 -0.13764495567E+03  0.51183056816E+03  0.55993197398E+03  0.16936747708E+03 0.  0.
         24    2    3    3    0    0 -0.39650646342E+02 -0.16373696459E+03  0.46781953872E+03  0.50365014231E+03  0.80164691190E+02 0.  0.
         -6    2    1    2    0  502  0.62624347278E+02  0.13764495567E+03  0.45213521738E+03  0.50725252811E+03  0.17323662945E+03 0.  0.
        -24    2    5    5    0    0  0.57591670284E+02  0.15902603932E+03  0.44651846012E+03  0.48409833761E+03  0.79789620767E+02 0.  0.
          5    1    3    3  501    0 -0.22973700935E+02  0.26092008915E+02  0.44011029436E+02  0.56281831668E+02  0.47000000000E+01 0. -1.
        -13    1    4    4    0    0  0.64223986051E+01 -0.35861862983E+02  0.37117964428E+02  0.52010226915E+02  0.00000000000E+00 0.  1.
         14    1    4    4    0    0 -0.46073044947E+02 -0.12787510161E+03  0.43070157429E+03  0.45163991540E+03  0.00000000000E+00 0. -1.
         -5    1    5    5    0  502  0.50326769940E+01 -0.21381083649E+02  0.56167572680E+01  0.23154190505E+02  0.47000000000E+01 0.  1.
         11    1    6    6    0    0 -0.18263817860E+02  0.24217070605E+02  0.50066500243E+02  0.58537919318E+02  0.00000000000E+00 0. -1.
        -12    1    6    6    0    0  0.75855488144E+02  0.13480896872E+03  0.39645195987E+03  0.42556041829E+03  0.00000000000E+00 0.  1.
</event>
<event>
12    1  0.1046899E+000  0.2340515E+03  0.7818608E-02  0.1124179E+00
         21   -1    0    0  503  502  0.00000000000E+00  0.00000000000E+00  0.13663586945E+04  0.13663586945E+04  0.00000000000E+00 0.  1.
         21   -1    0    0  501  503 -0.00000000000E+00 -0.00000000000E+00 -0.46511596957E+02  0.46511596957E+02  0.00000000000E+00 0.  1.
          6    2    1    2  501    0 -0.13894421810E+03 -0.69906681548E+02  0.38780841582E+03  0.45189360715E+03  0.17210469178E+03 0.  0.
         24    2    3    3    0    0 -0.19563565411E+02 -0.40795306964E+01  0.71802613315E+02  0.10770367231E+03  0.77750177419E+02 0.  0.
         -6    2    1    2    0  502  0.13894421810E+03  0.69906681548E+02  0.93203868169E+03  0.96097668428E+03  0.17489323509E+03 0.  0.
        -24    2    5    5    0    0  0.87974323980E+02  0.59950595933E+02  0.32290549547E+03  0.34961559433E+03  0.81422043442E+02 0.  0.
          5    1    3    3  501    0 -0.11938065269E+03 -0.65827150852E+02  0.31600580251E+03  0.34418993484E+03  0.47000000000E+01 0. -1.
        -11    1    4    4    0    0  0.35043698557E+01  0.34099533190E+02  0.41262742363E+02  0.53643943546E+02  0.00000000000E+00 0.  1.
         12    1    4    4    0    0 -0.23067935267E+02 -0.38179063886E+02  0.30539870952E+02  0.54059728768E+02  0.00000000000E+00 0. -1.
         -5    1    5    5    0  502  0.50969894125E+02  0.99560856156E+01  0.60913318622E+03  0.61136108995E+03  0.47000000000E+01 0.  1.
         11    1    6    6    0    0 -0.51407918079E+01  0.45059878253E+01 -0.19920758183E+01  0.71203955480E+01  0.00000000000E+00 0. -1.
        -12    1    6    6    0    0  0.93115115788E+02  0.55444608107E+02  0.32489757129E+03  0.34249519878E+03  0.00000000000E+00 0.  1.
</event>
<event>
12    1  0.1046899E+000  0.1949792E+03  0.7818608E-02  0.1155696E+00
         21   -1    0    0  503  502  0.00000000000E+00  0.00000000000E+00  0.25884989493E+02  0.25884989493E+02  0.00000000000E+00 0. -1.
         21   -1    0    0  501  503 -0.00000000000E+00 -0.00000000000E+00 -0.26306141580E+04  0.26306141580E+04  0.00000000000E+00 0. -1.
          6    2    1    2  501    0  0.39164395645E+02  0.57903860989E+02 -0.41249131886E+03  0.45625207739E+03  0.18201693049E+03 0.  0.
         24    2    3    3    0    0  0.83863279959E+02  0.52364067955E+02 -0.37976538822E+03  0.40037939979E+03  0.79415794082E+02 0.  0.
         -6    2    1    2    0  502 -0.39164395645E+02 -0.57903860989E+02 -0.21922378496E+04  0.22002470701E+04  0.17405077726E+03 0.  0.
        -24    2    5    5    0    0 -0.76119104932E+02 -0.17363785105E+02 -0.19082615807E+04  0.19109829008E+04  0.65557362485E+02 0.  0.
          5    1    3    3  501    0 -0.44698884314E+02  0.55397930349E+01 -0.32725930642E+02  0.55872677600E+02  0.47000000000E+01 0. -1.
        -13    1    4    4    0    0  0.41984063642E+02  0.44687194605E+02 -0.32640520242E+03  0.33211438260E+03  0.00000000000E+00 0.  1.
         14    1    4    4    0    0  0.41879216316E+02  0.76768733499E+01 -0.53360185792E+02  0.68265017186E+02  0.00000000000E+00 0. -1.
         -5    1    5    5    0  502  0.36954709287E+02 -0.40540075884E+02 -0.28397626893E+03  0.28926416924E+03  0.47000000000E+01 0.  1.
         11    1    6    6    0    0 -0.16182495365E+02 -0.28675316965E+02 -0.35485974287E+03  0.35638404014E+03  0.00000000000E+00 0. -1.
        -12    1    6    6    0    0 -0.59936609567E+02  0.11311531860E+02 -0.15534018378E+04  0.15545988607E+04  0.00000000000E+00 0.  1.
</event>
<event>
12    1  0.1046899E+000  0.2502368E+03  0.7818608E-02  0.1113209E+00
         21   -1    0    0  503  502  0.00000000000E+00  0.00000000000E+00  0.11172786960E+03  0.11172786960E+03  0.00000000000E+00 0.  1.
         21   -1    0    0  501  503 -0.00000000000E+00 -0.00000000000E+00 -0.58064079037E+03  0.58064079037E+03  0.00000000000E+00 0.  1.
          6    2    1    2  501    0 -0.12274747843E+03 -0.13300169122E+03 -0.30005320691E+03  0.39048781928E+03  0.17231487661E+03 0.  0.
         24    2    3    3    0    0 -0.64222041978E+02  0.14524532464E+01 -0.92136163096E+02  0.13601831072E+03  0.76715891482E+02 0.  0.
         -6    2    1    2    0  502  0.12274747843E+03  0.13300169122E+03 -0.16885971386E+03  0.30188084069E+03  0.17280638206E+03 0.  0.
        -24    2    5    5    0    0  0.86554088164E+02  0.45448731924E+02 -0.25583093716E+02  0.13005022042E+03  0.81861882076E+02 0.  0.
          5    1    3    3  501    0 -0.58525436449E+02 -0.13445414447E+03 -0.20791704381E+03  0.25446950855E+03  0.47000000000E+01 0. -1.
        -13    1    4    4    0    0 -0.53826854124E+02 -0.24109909911E+02 -0.90947267167E+02  0.10839752482E+03  0.00000000000E+00 0.  1.
         14    1    4    4    0    0 -0.10395187854E+02  0.25562363157E+02 -0.11888959288E+01  0.27620785909E+02  0.00000000000E+00 0. -1.
         -5    1    5    5    0  502  0.36193390264E+02  0.87552959297E+02 -0.14327662015E+03  0.17183062027E+03  0.47000000000E+01 0.  1.
         13    1    6    6    0    0  0.80873377904E+02  0.46361354037E+02 -0.49433508939E+02  0.10551563964E+03  0.00000000000E+00 0. -1.
        -14    1    6    6    0    0  0.56807102601E+01 -0.91262211290E+00  0.23850415223E+02  0.24534580789E+02  0.00000000000E+00 0.  1.
</event>
<event>
12    1  0.1046899E+000  0.1856187E+03  0.7818608E-02  0.1163339E+00
         21   -1    0    0  501  502  0.00000000000E+00  0.00000000000E+00  0.52793993216E+02  0.52793993216E+02  0.00000000000E+00 0.  1.
         21   -1    0    0  502  503 -0.00000000000E+00 -0.00000000000E+00 -0.75243492641E+03  0.75243492641E+03  0.00000000000E+00 0.  1.
         -6    2    1    2    0  503  0.69902759908E+02 -0.19256386808E+02 -0.50265652829E+03  0.53456833387E+03  0.16686076193E+03 0.  0.
        -24    2    3    3    0    0  0.46154991096E+02 -0.56632828022E+02 -0.21020498237E+03  0.23874583372E+03  0.86463160340E+02 0.  0.
          6    2    1    2  501    0 -0.69902759908E+02  0.19256386808E+02 -0.19698440491E+03  0.27066058576E+03  0.17087156765E+03 0.  0.
         24    2    5    5    0    0 -0.53491302381E+02  0.14226672169E+02 -0.26226772489E+02  0.98978050254E+02  0.77750197462E+02 0.  0.
          5    1    5    5  501    0 -0.16411457527E+02  0.50297146393E+01 -0.17075763242E+03  0.17168253551E+03  0.47000000000E+01 0. -1.
        -13    1    6    6    0    0 -0.72093749945E+02  0.26284651016E+01 -0.12792241661E+02  0.73267039361E+02  0.00000000000E+00 0.  1.
         14    1    6    6    0    0  0.18602447565E+02  0.11598207067E+02 -0.13434530828E+02  0.25711010893E+02  0.00000000000E+00 0. -1.
         -5    1    3    3    0  503  0.23747768812E+02  0.37376441213E+02 -0.29245154592E+03  0.29582250015E+03  0.47000000000E+01 0.  1.
         13    1    4    4    0    0  0.67919369884E+02 -0.32259800482E+02 -0.10917387832E+03  0.13256195246E+03  0.00000000000E+00 0. -1.
        -14    1    4    4    0    0 -0.21764378788E+02 -0.24373027539E+02 -0.10103110405E+03  0.10618388126E+03  0.00000000000E+00 0.  1.
</event>
<event>
12    1  0.1046899E+000  0.1817439E+03  0.7818608E-02  0.1166376E+00
         21   -1    0    0  501  502  0.00000000000E+00  0.00000000000E+00  0.77376008886E+02  0.77376008886E+02  0.00000000000E+00 0. -1.
         21   -1    0    0  502  503 -0.00000000000E+00 -0.00000000000E+00 -0.63917541721E+03  0.63917541721E+03  0.00000000000E+00 0. -1.
         -6    2    1    2    0  503 -0.42966002693E+02 -0.75044233336E+01 -0.73774731713E+02  0.19614677502E+03  0.17643257226E+03 0.  0.
        -24    2    3    3    0    0  0.43058096802E+02  0.17993943215E+02 -0.34412382796E+02  0.98056016525E+02  0.79075840777E+02 0.  0.
          6    2    1    2  501    0  0.42966002693E+02  0.75044233336E+01 -0.48802467661E+03  0.52040465107E+03  0.17535826789E+03 0.  0.
         24    2    5    5    0    0  0.84208537506E+01 -0.56922313769E+02 -0.35646553859E+03  0.36982554041E+03  0.79951169837E+02 0.  0.
          5    1    5    5  501    0  0.34545148943E+02  0.64426737102E+02 -0.13155913802E+03  0.15057911066E+03  0.47000000000E+01 0. -1.
        -13    1    6    6    0    0  0.27679271027E+02 -0.47213076187E+02 -0.33484111500E+03  0.33928423026E+03  0.00000000000E+00 0.  1.
         14    1    6    6    0    0 -0.19258417277E+02 -0.97092375820E+01 -0.21624423586E+02  0.30541310153E+02  0.00000000000E+00 0. -1.
         -5    1    3    3    0  503 -0.86024099495E+02 -0.25498366549E+02 -0.39362348917E+02  0.98090758498E+02  0.47000000000E+01 0.  1.
         11    1    4    4    0    0  0.28841788762E+02  0.40936787264E+02  0.49589265052E+01  0.50321568761E+02  0.00000000000E+00 0. -1.
        -12    1    4    4    0    0  0.14216308040E+02 -0.22942844048E+02 -0.39371309301E+02  0.47734447765E+02  0.00000000000E+00 0.  1.
</event>
<event>
12    1  0.1046899E+000  0.1725128E+03  0.7818608E-02  0.1175756E+00
         21   -1    0    0  501  502  0.00000000000E+00  0.00000000000E+00  0.34094556351E+03  0.34094556351E+03  0.00000000000E+00 0. -1.
         21   -1    0    0  502  503 -0.00000000000E+00 -0.00000000000E+00 -0.11616462674E+03  0.11616462674E+03  0.00000000000E+00 0. -1.
         -6    2    1    2    0  503  0.67541262931E+01 -0.11071410383E+02  0.22874756381E+03  0.28650672367E+03  0.17202459245E+03 0.  0.
        -24    2    3    3    0    0  0.12091117783E+02 -0.79126752697E+01  0.28595047893E+02  0.86203002500E+02  0.80027965842E+02 0.  0.
          6    2    1    2  501    0 -0.67541262931E+01  0.11071410383E+02 -0.39666270420E+01  0.17060346658E+03  0.17006355967E+03 0.  0.
         24    2    5    5    0    0 -0.37414903202E+02 -0.50970646914E+02  0.49519102121E+01  0.10066827929E+03  0.78177357412E+02 0.  0.
          5    1    5    5  501    0  0.30660776908E+02  0.62042057297E+02 -0.89185372541E+01  0.69935187288E+02  0.47000000000E+01 0. -1.
        -13    1    6    6    0    0 -0.98908912277E+00  0.11676307027E+02 -0.20706938934E+02  0.23792682974E+02  0.00000000000E+00 0.  1.
         14    1    6    6    0    0 -0.36425814079E+02 -0.62646953941E+02  0.25658849146E+02  0.76875596315E+02  0.00000000000E+00 0. -1.
         -5    1    3    3    0  503 -0.53369914894E+01 -0.31587351129E+01  0.20015251592E+03  0.20030372117E+03  0.47000000000E+01 0.  1.
         11    1    4    4    0    0  0.42772254076E+01  0.36177489154E+02  0.10548690173E+02  0.37925983745E+02  0.00000000000E+00 0. -1.
        -12    1    4    4    0    0  0.78138923749E+01 -0.44090164423E+02  0.18046357720E+02  0.48277018755E+02  0.00000000000E+00 0.  1.
</event>
<event>
12    1  0.1046899E+000  0.2176032E+03  0.7818608E-02  0.1136864E+00
         21   -1    0    0  503  502  0.00000000000E+00  0.00000000000E+00  0.91366789136E+02  0.91366789136E+02  0.00000000000E+00 0.  1.
         21   -1    0    0  501  503 -0.00000000000E+00 -0.00000000000E+00 -0.61144597859E+03  0.61144597859E+03  0.00000000000E+00 0.  1.
          6    2    1    2  501    0  0.65249587573E+02  0.11540111844E+03 -0.40446751112E+03  0.45640411763E+03  0.16472954872E+03 0.  0.
         24    2    3    3    0    0  0.67109884202E+02  0.12375859597E+02 -0.22904183141E+03  0.25290000523E+03  0.82712475781E+02 0.  0.
         -6    2    1    2    0  502 -0.65249587573E+02 -0.11540111844E+03 -0.11561167833E+03  0.24640865009E+03  0.17255792030E+03 0.  0.
        -24    2    5    5    0    0 -0.75464424108E+02 -0.68924461530E+02 -0.13967757838E+03  0.19287660298E+03  0.85124011725E+02 0.  0.
          5    1    3    3  501    0 -0.18602966291E+01  0.10302525884E+03 -0.17542567971E+03  0.20350411240E+03  0.47000000000E+01 0. -1.
        -11    1    4    4    0    0 -0.10232050130E+02  0.14233478763E+02 -0.10683399249E+03  0.10826259151E+03  0.00000000000E+00 0.  1.
         12    1    4    4    0    0  0.77341934332E+02 -0.18576191656E+01 -0.12220783892E+03  0.14463741372E+03  0.00000000000E+00 0. -1.
         -5    1    5    5    0  502  0.10214836535E+02 -0.46476656909E+02  0.24065900048E+02  0.53532047112E+02  0.47000000000E+01 0.  1.
         13    1    6    6    0    0  0.21714117415E+00 -0.13800070514E+02 -0.81466196236E+02  0.82627055046E+02  0.00000000000E+00 0. -1.
        -14    1    6    6    0    0 -0.75681565282E+02 -0.55124391016E+02 -0.58211382140E+02  0.11024954793E+03  0.00000000000E+00 0.  1.
</event>
<event>
12    1  0.1046899E+000  0.2054837E+03  0.7818608E-02  0.1145353E+00
         21   -1    0    0  501  502  0.00000000000E+00  0.00000000000E+00  0.58031539671E+03  0.58031539671E+03  0.00000000000E+00 0.  1.
         21   -1    0    0  502  503 -0.00000000000E+00 -0.00000000000E+00 -0.78540301927E+02  0.78540301927E+02  0.00000000000E+00 0.  1.
         -6    2    1    2    0  503 -0.42475062874E+02  0.10327330990E+03  0.15983613537E+03  0.26032894340E+03  0.17249365524E+03 0.  0.
        -24    2    3    3    0    0 -0.24472121273E+02  0.72472700827E+02  0.18545947473E+03  0.21615396241E+03  0.80474478004E+02 0.  0.
          6    2    1    2  501    0  0.42475062874E+02 -0.10327330990E+03  0.34193895941E+03  0.39852675523E+03  0.17155703183E+03 0.  0.
         24    2    5    5    0    0  0.28433217927E+02  0.97774069546E+01  0.15234502752E+03  0.17729025960E+03  0.85549887027E+02 0.  0.
          5    1    5    5  501    0  0.14041844946E+02 -0.11305071686E+03  0.18959393188E+03  0.22123649563E+03  0.47000000000E+01 0. -1.
        -11    1    6    6    0    0  0.95047529896E+01 -0.21521450810E+02  0.32215511906E+01  0.23746401126E+02  0.00000000000E+00 0.  1.
         12    1    6    6    0    0  0.18928464938E+02  0.31298857765E+02  0.14912347633E+03  0.15354385848E+03  0.00000000000E+00 0. -1.
         -5    1    3    3    0  503 -0.18002941600E+02  0.30800609078E+02 -0.25623339362E+02  0.44174980995E+02  0.47000000000E+01 0.  1.
         13    1    4    4    0    0  0.19910367279E+02  0.61344603789E+02  0.95687081387E+02  0.11539324367E+03  0.00000000000E+00 0. -1.
        -14    1    4    4    0    0 -0.44382488552E+02  0.11128097038E+02  0.89772393348E+02  0.10076071874E+03  0.00000000000E+00 0.  1.
</event>
<event>
12    1  0.1046899E+000  0.1966840E+03  0.7818608E-02  0.1152600E+00
         21   -1    0    0  501  502  0.00000000000E+00  0.00000000000E+00  0.10073356176E+04  0.10073356176E+04  0.00000000000E+00 0. -1.
         21   -1    0    0  502  503 -0.00000000000E+00 -0.00000000000E+00 -0.39824537212E+02  0.39824537212E+02  0.00000000000E+00 0. -1.
         -6    2    1    2    0  503  0.55760744646E+02  0.78778370718E+02  0.58353163932E+03  0.61573830850E+03  0.17119929361E+03 0.  0.
        -24    2    3    3    0    0  0.34013798144E+02  0.30430530561E+02  0.53284740135E+03  0.54224391886E+03  0.89549755804E+02 0.  0.
          6    2    1    2  501    0 -0.55760744646E+02 -0.78778370718E+02  0.38397944112E+03  0.43142184636E+03  0.17137475304E+03 0.  0.
         24    2    5    5    0    0 -0.21093506584E+02  0.81719540783E+01  0.82617650220E+02  0.11582210715E+03  0.77957472529E+02 0.  0.
          5    1    5    5  501    0 -0.34667238062E+02 -0.86950324796E+02  0.30136179090E+03  0.31559973921E+03  0.47000000000E+01 0. -1.
        -11    1    6    6    0    0 -0.45971817412E+02 -0.12328410392E+02  0.59287629773E+02  0.76029078273E+02  0.00000000000E+00 0.  1.
         12    1    6    6    0    0  0.24878310828E+02  0.20500364471E+02  0.23330020448E+02  0.39793028876E+02  0.00000000000E+00 0. -1.
         -5    1    3    3    0  503  0.21746946502E+02  0.48347840157E+02  0.50684237974E+02  0.73494389643E+02  0.47000000000E+01 0.  1.
         13    1    4    4    0    0  0.24092310077E+02  0.29065364518E+01  0.30182017257E+02  0.38727787501E+02  0.00000000000E+00 0. -1.
        -14    1    4    4    0    0  0.99214880671E+01  0.27523994109E+02  0.50266538409E+03  0.50351613136E+03  0.00000000000E+00 0.  1.
</event>
<event>
12    1  0.1046899E+000  0.2235555E+03  0.7818608E-02  0.1131302E+00
         21   -1    0    0  503  502  0.00000000000E+00  0.00000000000E+00  0.91161731105E+02  0.91161731105E+02  0.00000000000E+00 0. -1.
         21   -1    0    0  501  503 -0.00000000000E+00 -0.00000000000E+00 -0.69886371453E+03  0.69886371453E+03  0.00000000000E+00 0. -1.
          6    2    1    2  501    0 -0.32743092846E+02 -0.13841285664E+03 -0.48746706970E+03  0.53618788135E+03  0.17217163252E+03 0.  0.
         24    2    3    3    0    0  0.33545850770E+02 -0.24768620110E+02 -0.23898654035E+03  0.25498706340E+03  0.78517688390E+02 0.  0.
         -6    2    1    2    0  502  0.32743092846E+02  0.13841285664E+03 -0.12023491372E+03  0.25383756429E+03  0.17247273858E+03 0.  0.
        -24    2    5    5    0    0 -0.11649603125E+01  0.38832630115E+00 -0.28814964300E+02  0.84780697535E+02  0.79724253381E+02 0.  0.
          5    1    3    3  501    0 -0.66288943616E+02 -0.11364423653E+03 -0.24848052936E+03  0.28120081794E+03  0.47000000000E+01 0. -1.
        -11    1    4    4    0    0  0.45698264079E+02 -0.97133980498E+01 -0.65664743856E+02  0.80588709055E+02  0.00000000000E+00 0.  1.
         12    1    4    4    0    0 -0.12152413309E+02 -0.15055222060E+02 -0.17332179649E+03  0.17439835435E+03  0.00000000000E+00 0. -1.
         -5    1    5    5    0  502  0.33908053158E+02  0.13802453034E+03 -0.91419949419E+02  0.16905686675E+03  0.47000000000E+01 0.  1.
         11    1    6    6    0    0 -0.27408630286E+02  0.20409950932E+02 -0.37412438711E+02  0.50670402421E+02  0.00000000000E+00 0. -1.
        -12    1    6    6    0    0  0.26243669974E+02 -0.20021624631E+02  0.85974744107E+01  0.34110295114E+02  0.00000000000E+00 0.  1.
</event>
<event>
12    1  0.1046899E+000  0.4883431E+03  0.7818608E-02  0.1016913E+00
         21   -1    0    0  503  502  0.00000000000E+00  0.00000000000E+00  0.73095784128E+03  0.73095784128E+03  0.00000000000E+00 0.  1.
         21   -1    0    0  501  503 -0.00000000000E+00 -0.00000000000E+00 -0.36268822099E+03  0.36268822099E+03  0.00000000000E+00 0.  1.
          6    2    1    2  501    0  0.41168483108E+03 -0.19649151359E+03  0.96288210902E+01  0.48775644920E+03  0.17239583661E+03 0.  0.
         24    2    3    3    0    0  0.18223148712E+03 -0.67729759995E+02  0.62200804829E+02  0.21940159137E+03  0.80451742602E+02 0.  0.
         -6    2    1    2    0  502 -0.41168483108E+03  0.19649151359E+03  0.35864079919E+03  0.60588961307E+03  0.17431490277E+03 0.  0.
        -24    2    5    5    0    0 -0.25487490170E+03  0.18393035849E+03  0.28267903613E+03  0.43113430981E+03  0.84721681642E+02 0.  0.
          5    1    3    3  501    0  0.22945334396E+03 -0.12876175360E+03 -0.52571983739E+02  0.26835485782E+03  0.47000000000E+01 0. -1.
        -11    1    4    4    0    0  0.69437206607E+02 -0.55649164166E+02 -0.20918729681E+01  0.89009724561E+02  0.00000000000E+00 0.  1.
         12    1    4    4    0    0  0.11279428051E+03 -0.12080595829E+02  0.64292677797E+02  0.13039186681E+03  0.00000000000E+00 0. -1.
         -5    1    5    5    0  502 -0.15680992938E+03  0.12561155105E+02  0.75961763067E+02  0.17475530326E+03  0.47000000000E+01 0.  1.
         11    1    6    6    0    0 -0.15754647741E+03  0.64988341190E+02  0.12850825564E+03  0.21344495497E+03  0.00000000000E+00 0. -1.
        -12    1    6    6    0    0 -0.97328424282E+02  0.11894201730E+03  0.15417078049E+03  0.21768935483E+03  0.00000000000E+00 0.  1.
</event>
<event>
12    1  0.1046899E+000  0.1883208E+03  0.7818608E-02  0.1160039E+00
         21   -1    0    0  501  502  0.00000000000E+00  0.00000000000E+00  0.14094208881E+03  0.14094208881E+03  0.00000000000E+00 0.  1.
         21   -1    0    0  502  503 -0.00000000000E+00 -0.00000000000E+00 -0.38524785849E+03  0.38524785849E+03  0.00000000000E+00 0.  1.
         -6    2    1    2    0  503  0.26941524662E+02 -0.71938963135E+02  0.32927941513E+02  0.19117786586E+03  0.17194088198E+03 0.  0.
        -24    2    3    3    0    0  0.20788222232E+02  0.82928995182E+01 -0.28785372772E+02  0.89661177208E+02  0.81912188634E+02 0.  0.
          6    2    1    2  501    0 -0.26941524662E+02  0.71938963135E+02 -0.27723371119E+03  0.33501208143E+03  0.17167848997E+03 0.  0.
         24    2    5    5    0    0 -0.25297852844E+02  0.11250893856E+03 -0.24818597617E+03  0.28486743592E+03  0.79088144941E+02 0.  0.
          5    1    5    5  501    0 -0.16436718175E+01 -0.40569975427E+02 -0.29047735023E+02  0.50144645509E+02  0.47000000000E+01 0. -1.
        -11    1    6    6    0    0 -0.39632450414E+02  0.60070801074E+02 -0.19878801702E+03  0.21141406760E+03  0.00000000000E+00 0.  1.
         12    1    6    6    0    0  0.14334597570E+02  0.52438137489E+02 -0.49397959144E+02  0.73453368326E+02  0.00000000000E+00 0. -1.
         -5    1    3    3    0  503  0.61533024301E+01 -0.80231862653E+02  0.61713314284E+02  0.10151668866E+03  0.47000000000E+01 0.  1.
         11    1    4    4    0    0 -0.30957064835E+02 -0.53146189887E+01 -0.10530799503E+02  0.33128277594E+02  0.00000000000E+00 0. -1.
        -12    1    4    4    0    0  0.51745287067E+02  0.13607518507E+02 -0.18254573269E+02  0.56532899614E+02  0.00000000000E+00 0.  1.
</event>
<event>
12    1  0.1046899E+000  0.1811327E+03  0.7818608E-02  0.1166861E+00
         21   -1    0    0  501  502  0.00000000000E+00  0.00000000000E+00  0.56030888309E+03  0.56030888309E+03  0.00000000000E+00 0.  1.
         21   -1    0    0  502  503 -0.00000000000E+00 -0.00000000000E+00 -0.79746034713E+02  0.79746034713E+02  0.00000000000E+00 0.  1.
         -6    2    1    2    0  503  0.17924670407E+02 -0.55498189981E+02  0.40633433676E+03  0.44487825240E+03  0.17148680221E+03 0.  0.
        -24    2    3    3    0    0 -0.33262771798E+02  0.73637937781E+01  0.12425394010E+03  0.15134252473E+03  0.79403278996E+02 0.  0.
          6    2    1    2  501    0 -0.17924670407E+02  0.55498189981E+02  0.74228511619E+02  0.19517666540E+03  0.17082949359E+03 0.  0.
         24    2    5    5    0    0  0.13018073390E+02  0.30390163537E+01  0.10021968250E+03  0.12879105510E+03  0.79777473372E+02 0.  0.
          5    1    5    5  501    0 -0.30942743797E+02  0.52459173628E+02 -0.25991170882E+02  0.66385610302E+02  0.47000000000E+01 0. -1.
        -13    1    6    6    0    0 -0.14315239457E+02 -0.16138350559E+02 -0.16045024373E+01  0.21632079593E+02  0.00000000000E+00 0.  1.
         14    1    6    6    0    0  0.27333312847E+02  0.19177366913E+02  0.10182418494E+03  0.10715897550E+03  0.00000000000E+00 0. -1.
         -5    1    3    3    0  503  0.51187442205E+02 -0.62861983759E+02  0.28208039666E+03  0.29353572767E+03  0.47000000000E+01 0.  1.
         11    1    4    4    0    0  0.15905083426E+02  0.80672162703E+01  0.13132523407E+00  0.17834486353E+02  0.00000000000E+00 0. -1.
        -12    1    4    4    0    0 -0.49167855224E+02 -0.70342249216E+00  0.12412261487E+03  0.13350803838E+03  0.00000000000E+00 0.  1.
</event>
<event>
12    1  0.1046899E+000  0.1988918E+03  0.7818608E-02  0.1150945E+00
         21   -1    0    0  501  502  0.00000000000E+00  0.00000000000E+00  0.10601845641E+04  0.10601845641E+04  0.00000000000E+00 0. -1.
         21   -1    0    0  502  503 -0.00000000000E+00 -0.00000000000E+00 -0.37084875546E+02  0.37084875546E+02  0.00000000000E+00 0. -1.
         -6    2    1    2    0  503  0.75631974442E+02  0.63756578721E+02  0.50214051984E+03  0.53963479246E+03  0.17110087866E+03 0.  0.
        -24    2    3    3    0    0  0.95738405903E+02 -0.20707984141E+01  0.36996360866E+03  0.39053637524E+03  0.80470231045E+02 0.  0.
          6    2    1    2  501    0 -0.75631974442E+02 -0.63756578721E+02  0.52095916875E+03  0.55763464723E+03  0.17254810167E+03 0.  0.
         24    2    5    5    0    0 -0.37776604732E+02  0.37316070355E+02  0.24604432222E+03  0.26225527718E+03  0.73623779706E+02 0.  0.
          5    1    5    5  501    0 -0.37855369710E+02 -0.10107264908E+03  0.27491484653E+03  0.29537937005E+03  0.47000000000E+01 0. -1.
        -13    1    6    6    0    0 -0.10081337130E+02  0.17091182339E+02  0.21525540462E+03  0.21616806214E+03  0.00000000000E+00 0.  1.
         14    1    6    6    0    0 -0.27695267602E+02  0.20224888016E+02  0.30788917607E+02  0.46087215041E+02  0.00000000000E+00 0. -1.
         -5    1    3    3    0  503 -0.20106431461E+02  0.65827377135E+02  0.13217691118E+03  0.14909841721E+03  0.47000000000E+01 0.  1.
         11    1    4    4    0    0  0.40316345768E+02  0.32113589952E+02  0.23628630790E+03  0.24184273753E+03  0.00000000000E+00 0. -1.
        -12    1    4    4    0    0  0.55422060135E+02 -0.34184388366E+02  0.13367730076E+03  0.14869363771E+03  0.00000000000E+00 0.  1.
</event>
<event>
12    1  0.1046899E+000  0.3667527E+03  0.7818608E-02  0.1056158E+00
         21   -1    0    0  503  502  0.00000000000E+00  0.00000000000E+00  0.17643421393E+03  0.17643421393E+03  0.00000000000E+00 0.  1.
         21   -1    0    0  501  503 -0.00000000000E+00 -0.00000000000E+00 -0.81264805685E+03  0.81264805685E+03  0.00000000000E+00 0.  1.
          6    2    1    2  501    0  0.32011917797E+03  0.29305441123E+02 -0.44574927376E+03  0.57582174006E+03  0.17188125055E+03 0.  0.
         24    2    3    3    0    0  0.93583352520E+02  0.39091537501E+02 -0.22473473608E+03  0.25914562199E+03  0.79779443610E+02 0.  0.
         -6    2    1    2    0  502 -0.32011917797E+03 -0.29305441123E+02 -0.19046456916E+03  0.41326053072E+03  0.17655712152E+03 0.  0.
        -24    2    5    5    0    0 -0.29545587106E+03 -0.59365632889E+00 -0.20931439566E+03  0.37071583359E+03  0.79518481344E+02 0.  0.
          5    1    3    3  501    0  0.22653582545E+03 -0.97860963772E+01 -0.22101453768E+03  0.31667611808E+03  0.47000000000E+01 0. -1.
        -11    1    4    4    0    0  0.70424533963E+02  0.61686061241E+02 -0.13975493166E+03  0.16821482116E+03  0.00000000000E+00 0.  1.
         12    1    4    4    0    0  0.23158818558E+02 -0.22594523741E+02 -0.84979804413E+02  0.90930800822E+02  0.00000000000E+00 0. -1.
         -5    1    5    5    0  502 -0.24663306912E+02 -0.28711784794E+02  0.18849826506E+02  0.42544697122E+02  0.47000000000E+01 0.  1.
         13    1    6    6    0    0 -0.29489065706E+03 -0.33527846786E+01 -0.18915110222E+03  0.35035678994E+03  0.00000000000E+00 0. -1.
        -14    1    6    6    0    0 -0.56521399866E+00  0.27591283497E+01 -0.20163293440E+02  0.20359043653E+02  0.00000000000E+00 0.  1.
</event>
<event>
12    1  0.1046899E+000  0.2772569E+03  0.7818608E-02  0.1097246E+00
         21   -1    0    0  503  502  0.00000000000E+00  0.00000000000E+00  0.80460110518E+02  0.80460110518E+02  0.00000000000E+00 0.  1.
         21   -1    0    0  501  503 -0.00000000000E+00 -0.00000000000E+00 -0.13029233352E+04  0.13029233352E+04  0.00000000000E+00 0.  1.
          6    2    1    2  501    0  0.20178961150E+03  0.81123086050E+02 -0.25366181837E+03  0.37578676158E+03  0.17196328003E+03 0.  0.
         24    2    3    3    0    0  0.13602512928E+03  0.69501387367E+02 -0.75323250646E+02  0.18529590684E+03  0.72991111522E+02 0.  0.
         -6    2    1    2    0  502 -0.20178961150E+03 -0.81123086050E+02 -0.96880140629E+03  0.10075966841E+04  0.17139110425E+03 0.  0.
        -24    2    5    5    0    0 -0.21288601420E+03 -0.10367883263E+03 -0.90288734246E+03  0.93689558323E+03  0.80610330127E+02 0.  0.
          5    1    3    3  501    0  0.65764482224E+02  0.11621698683E+02 -0.17833856772E+03  0.19049085474E+03  0.47000000000E+01 0. -1.
        -13    1    4    4    0    0 -0.45939366703E+00 -0.58329609482E+01  0.68995335733E+01  0.90464379451E+01  0.00000000000E+00 0.  1.
         14    1    4    4    0    0  0.13648452294E+03  0.75334348315E+02 -0.82222784219E+02  0.17624946889E+03  0.00000000000E+00 0. -1.
         -5    1    5    5    0  502  0.11096402698E+02  0.22555746575E+02 -0.65914063827E+02  0.70701100887E+02  0.47000000000E+01 0.  1.
         13    1    6    6    0    0 -0.11972488697E+03 -0.36880364249E+02 -0.33742062747E+03  0.35992622809E+03  0.00000000000E+00 0. -1.
        -14    1    6    6    0    0 -0.93161127229E+02 -0.66798468376E+02 -0.56546671499E+03  0.57696935514E+03  0.00000000000E+00 0.  1.
</event>
<event>
12    1  0.1046899E+000  0.1994704E+03  0.7818608E-02  0.1151135E+00
         21   -1    0    0  501  502  0.00000000000E+00  0.00000000000E+00  0.12174007938E+03  0.12174007938E+03  0.00000000000E+00 0.  1.
         21   -1    0    0  502  503 -0.00000000000E+00 -0.00000000000E+00 -0.52524487740E+03  0.52524487740E+03  0.00000000000E+00 0.  1.
         -6    2    1    2    0  503 -0.97587449175E+02  0.24111133463E+02  0.20232514959E+01  0.19505414808E+03  0.16714475805E+03 0.  0.
        -24    2    3    3    0    0 -0.43679977113E+02  0.24344774936E+00  0.62248860174E+02  0.11064504960E+03  0.80370434494E+02 0.  0.
          6    2    1    2  501    0  0.97587449175E+02 -0.24111133463E+02 -0.40552804951E+03  0.45193080870E+03  0.17228987179E+03 0.  0.
         24    2    5    5    0    0  0.10288218110E+03 -0.44445255984E+02 -0.40796198037E+03  0.43026228904E+03  0.78310510002E+02 0.  0.
          5    1    5    5  501    0 -0.52947319217E+01  0.20334122522E+02  0.24339308612E+01  0.21668519661E+02  0.47000000000E+01 0. -1.
        -11    1    6    6    0    0 -0.25572924094E+01  0.12931542728E+02 -0.78802338990E+02  0.79897266362E+02  0.00000000000E+00 0.  1.
         12    1    6    6    0    0  0.10543947351E+03 -0.57376798712E+02 -0.32915964138E+03  0.35036502268E+03  0.00000000000E+00 0. -1.
         -5    1    3    3    0  503 -0.53907472062E+02  0.23867685713E+02 -0.60225608678E+02  0.84409098480E+02  0.47000000000E+01 0.  1.
         13    1    4    4    0    0 -0.18449249973E+02  0.13335457117E+02 -0.15714520646E+02  0.27661442483E+02  0.00000000000E+00 0. -1.
        -14    1    4    4    0    0 -0.25230727140E+02 -0.13092009368E+02  0.77963380821E+02  0.82983607118E+02  0.00000000000E+00 0.  1.
</event>
<event>
12    1  0.1046899E+000  0.1976947E+03  0.7818608E-02  0.1151746E+00
         21   -1    0    0  503  502  0.00000000000E+00  0.00000000000E+00  0.23412799253E+03  0.23412799253E+03  0.00000000000E+00 0.  1.
         21   -1    0    0  501  503 -0.00000000000E+00 -0.00000000000E+00 -0.17948053180E+03  0.17948053180E+03  0.00000000000E+00 0.  1.
          6    2    1    2  501    0  0.43264685797E+02  0.87394320892E+02  0.82400103784E+02  0.21397535299E+03  0.17171509608E+03 0.  0.
         24    2    3    3    0    0 -0.39474057421E+02  0.27421222187E+02  0.29697190904E+02  0.98900771852E+02  0.81174595101E+02 0.  0.
         -6    2    1    2    0  502 -0.43264685797E+02 -0.87394320892E+02 -0.27752643052E+02  0.19963317134E+03  0.17196974600E+03 0.  0.
        -24    2    5    5    0    0 -0.50484079772E+02 -0.81866648053E+02 -0.78879501000E+02  0.14749182095E+03  0.79253209367E+02 0.  0.
          5    1    3    3  501    0  0.82738743218E+02  0.59973098705E+02  0.52702912880E+02  0.11507458114E+03  0.47000000000E+01 0. -1.
        -11    1    4    4    0    0  0.66986159250E+01 -0.13000936407E+02  0.34374201982E+02  0.37356144938E+02  0.00000000000E+00 0.  1.
         12    1    4    4    0    0 -0.46172673346E+02  0.40422158594E+02 -0.46770110780E+01  0.61544626914E+02  0.00000000000E+00 0. -1.
         -5    1    5    5    0  502  0.72193939754E+01 -0.55276728390E+01  0.51126857948E+02  0.52141350386E+02  0.47000000000E+01 0.  1.
         11    1    6    6    0    0  0.92087625008E+01 -0.59305760315E+02 -0.29925688183E+02  0.67063561839E+02  0.00000000000E+00 0. -1.
        -12    1    6    6    0    0 -0.59692842273E+02 -0.22560887739E+02 -0.48953812817E+02  0.80428259111E+02  0.00000000000E+00 0.  1.
</event>
<event>
12    1  0.1046899E+000  0.1863635E+03  0.7818608E-02  0.1162123E+00
         21   -1    0    0  503  502  0.00000000000E+00  0.00000000000E+00  0.32578877767E+02  0.32578877767E+02  0.00000000000E+00 0. -1.
         21   -1    0    0  501  503 -0.00000000000E+00 -0.00000000000E+00 -0.14043091078E+04  0.14043091078E+04  0.00000000000E+00 0. -1.
          6    2    1    2  501    0  0.41448366683E+02 -0.55363179469E+02 -0.10448325003E+04  0.10613229104E+04  0.17305582233E+03 0.  0.
         24    2    3    3    0    0  0.35492438270E+02 -0.70346620537E+02 -0.10357183125E+04  0.10422144042E+04  0.85381972371E+02 0.  0.
         -6    2    1    2    0  502 -0.41448366683E+02  0.55363179469E+02 -0.32689772971E+03  0.37556507518E+03  0.17147580373E+03 0.  0.
        -24    2    5    5    0    0 -0.44721450694E+02  0.86157231009E+02 -0.14860243742E+03  0.19453941970E+03  0.79623016787E+02 0.  0.
          5    1    3    3  501    0  0.59559284125E+01  0.14983441068E+02 -0.91141877762E+01  0.19108506177E+02  0.47000000000E+01 0. -1.
        -11    1    4    4    0    0  0.20978780154E+02  0.13839605976E+02 -0.12522263122E+03  0.12771981554E+03  0.00000000000E+00 0.  1.
         12    1    4    4    0    0  0.14513658116E+02 -0.84186226513E+02 -0.91049568130E+03  0.91449458865E+03  0.00000000000E+00 0. -1.
         -5    1    5    5    0  502  0.32730840110E+01 -0.30794051540E+02 -0.17829529229E+03  0.18102565548E+03  0.47000000000E+01 0.  1.
         11    1    6    6    0    0 -0.63451935603E+02  0.38289353179E+02 -0.90115789812E+02  0.11667509705E+03  0.00000000000E+00 0. -1.
        -12    1    6    6    0    0  0.18730484909E+02  0.47867877830E+02 -0.58486647608E+02  0.77864322647E+02  0.00000000000E+00 0.  1.
</event>
<event>
12    1  0.1046899E+000  0.1744378E+03  0.7818608E-02  0.1174006E+00
         21   -1    0    0  503  502  0.00000000000E+00  0.00000000000E+00  0.11992327064E+03  0.11992327064E+03  0.00000000000E+00 0. -1.
         21   -1    0    0  501  503 -0.00000000000E+00 -0.00000000000E+00 -0.28789946714E+03  0.28789946714E+03  0.00000000000E+00 0. -1.
          6    2    1    2  501    0 -0.42398314965E+01 -0.29062368546E+02 -0.91223974348E+01  0.17189253096E+03  0.16911897182E+03 0.  0.
         24    2    3    3    0    0  0.54036365760E+02 -0.44737044586E+02  0.14151874131E+02  0.10704199239E+03  0.79601385735E+02 0.  0.
         -6    2    1    2    0  502  0.42398314965E+01  0.29062368546E+02 -0.15885379907E+03  0.23593020681E+03  0.17194747911E+03 0.  0.
        -24    2    5    5    0    0  0.67406157226E+02  0.32407734677E+02 -0.86860190403E+02  0.13998050192E+03  0.80349218675E+02 0.  0.
          5    1    3    3  501    0 -0.58276197257E+02  0.15674676040E+02 -0.23274271566E+02  0.64850538568E+02  0.47000000000E+01 0. -1.
        -13    1    4    4    0    0 -0.77796089226E+01 -0.64841320978E+00  0.28691578431E+02  0.29734650284E+02  0.00000000000E+00 0.  1.
         14    1    4    4    0    0  0.61815974683E+02 -0.44088631376E+02 -0.14539704300E+02  0.77307342108E+02  0.00000000000E+00 0. -1.
         -5    1    5    5    0  502 -0.63166325729E+02 -0.33453661313E+01 -0.71993608665E+02  0.95949704895E+02  0.47000000000E+01 0.  1.
         11    1    6    6    0    0  0.26090785305E+02  0.11900671658E+02  0.11847517014E+02  0.31027708957E+02  0.00000000000E+00 0. -1.
        -12    1    6    6    0    0  0.41315371921E+02  0.20507063019E+02 -0.98707707417E+02  0.10895279296E+03  0.00000000000E+00 0.  1.
</event>
<event>
12    1  0.1046899E+000  0.1797869E+03  0.7818608E-02  0.1168028E+00
         21   -1    0    0  501  502  0.00000000000E+00  0.00000000000E+00  0.27296208615E+03  0.27296208615E+03  0.00000000000E+00 0. -1.
         21   -1    0    0  502  503 -0.00000000000E+00 -0.00000000000E+00 -0.16117098715E+03  0.16117098715E+03  0.00000000000E+00 0. -1.
         -6    2    1    2    0  503  0.47575481140E+02  0.20520854055E+02 -0.55960993792E+02  0.18829486948E+03  0.17215920884E+03 0.  0.
        -24    2    3    3    0    0  0.77541198219E+02 -0.13614326899E+02 -0.73316623882E+01  0.12158612454E+03  0.92365822081E+02 0.  0.
          6    2    1    2  501    0 -0.47575481140E+02 -0.20520854055E+02  0.16775209280E+03  0.24583820382E+03  0.17207883647E+03 0.  0.
         24    2    5    5    0    0 -0.57940643643E+00 -0.73249479221E+02  0.10856461924E+03  0.15356585706E+03  0.80189612714E+02 0.  0.
          5    1    5    5  501    0 -0.46996074703E+02  0.52728625167E+02  0.59187473561E+02  0.92272346757E+02  0.47000000000E+01 0. -1.
        -13    1    6    6    0    0  0.17735725923E+01  0.13810744711E+02  0.41116397307E+02  0.43410141174E+02  0.00000000000E+00 0.  1.
         14    1    6    6    0    0 -0.23529790287E+01 -0.87060223932E+02  0.67448221932E+02  0.11015571589E+03  0.00000000000E+00 0. -1.
         -5    1    3    3    0  503 -0.29965717079E+02  0.34135180954E+02 -0.48629331404E+02  0.66708744941E+02  0.47000000000E+01 0.  1.
         11    1    4    4    0    0  0.48356292383E+02 -0.61971695135E+01  0.41628585373E+02  0.64106747251E+02  0.00000000000E+00 0. -1.
        -12    1    4    4    0    0  0.29184905836E+02 -0.74171573854E+01 -0.48960247762E+02  0.57479377286E+02  0.00000000000E+00 0.  1.
</event>
<event>
12    1  0.1046899E+000  0.1960920E+03  0.7818608E-02  0.1153235E+00
         21   -1    0    0  503  502  0.00000000000E+00  0.00000000000E+00  0.16441769915E+04  0.16441769915E+04  0.00000000000E+00 0.  1.
         21   -1    0    0  501  503 -0.00000000000E+00 -0.00000000000E+00 -0.91264938253E+02  0.91264938253E+02  0.00000000000E+00 0.  1.
          6    2    1    2  501    0 -0.75919831661E+02 -0.56183470408E+02  0.15248934974E+04  0.15373582830E+04  0.17102604729E+03 0.  0.
         24    2    3    3    0    0  0.15171520584E+02 -0.25755882071E+02  0.10214376940E+04  0.10248026192E+04  0.77407396620E+02 0.  0.
         -6    2    1    2    0  502  0.75919831661E+02  0.56183470408E+02  0.28018555889E+02  0.19808364675E+03  0.17184786425E+03 0.  0.
        -24    2    5    5    0    0  0.58349878743E+02 -0.11228348871E+02 -0.33104302251E+02  0.10528736228E+03  0.80366346568E+02 0.  0.
          5    1    3    3  501    0 -0.91091352245E+02 -0.30427588337E+02  0.50345580339E+03  0.51255566385E+03  0.47000000000E+01 0. -1.
        -13    1    4    4    0    0  0.35387219026E+01 -0.45028287639E+02  0.33923955952E+03  0.34223317780E+03  0.00000000000E+00 0.  1.
         14    1    4    4    0    0  0.11632798682E+02  0.19272405568E+02  0.68219813447E+03  0.68256944138E+03  0.00000000000E+00 0. -1.
         -5    1    5    5    0  502  0.17569952918E+02  0.67411819279E+02  0.61122858140E+02  0.92796284469E+02  0.47000000000E+01 0.  1.
         13    1    6    6    0    0  0.61907493295E+02  0.15342414025E+02 -0.14368008493E+01  0.63796487292E+02  0.00000000000E+00 0. -1.
        -14    1    6    6    0    0 -0.35576145517E+01 -0.26570762897E+02 -0.31667501402E+02  0.41490874988E+02  0.00000000000E+00 0.  1.
</event>
<event>
12    1  0.1046899E+000  0.1772385E+03  0.7818608E-02  0.1170579E+00
         21   -1    0    0  501  502  0.00000000000E+00  0.00000000000E+00  0.16599962133E+02  0.16599962133E+02  0.00000000000E+00 0.  1.
         21   -1    0    0  502  503 -0.00000000000E+00 -0.00000000000E+00 -0.18909590882E+04  0.18909590882E+04  0.00000000000E+00 0.  1.
         -6    2    1    2    0  503 -0.31785232248E+02 -0.29224783342E+02 -0.90797987514E+03  0.92511672138E+03  0.17189853278E+03 0.  0.
        -24    2    3    3    0    0 -0.49051443640E+02  0.77820466311E+01 -0.26900120218E+03  0.28481721176E+03  0.79325865701E+02 0.  0.
          6    2    1    2  501    0  0.31785232248E+02  0.29224783342E+02 -0.96637925094E+03  0.98244232896E+03  0.17157996428E+03 0.  0.
         24    2    5    5    0    0 -0.60967685867E+01  0.74971593747E+02 -0.46069384169E+03  0.47325902231E+03  0.77957526696E+02 0.  0.
          5    1    5    5  501    0  0.37882000834E+02 -0.45746810405E+02 -0.50568540925E+03  0.50918330665E+03  0.47000000000E+01 0. -1.
        -13    1    6    6    0    0  0.18068725192E+02  0.79405107341E+02 -0.39017824113E+03  0.39858588755E+03  0.00000000000E+00 0.  1.
         14    1    6    6    0    0 -0.24165493779E+02 -0.44335135942E+01 -0.70515600557E+02  0.74673134756E+02  0.00000000000E+00 0. -1.
         -5    1    3    3    0  503  0.17266211393E+02 -0.37006829973E+02 -0.63897867296E+03  0.64029950962E+03  0.47000000000E+01 0.  1.
         13    1    4    4    0    0 -0.98278039509E+01 -0.34124441511E+02 -0.86612430607E+02  0.93609702353E+02  0.00000000000E+00 0. -1.
        -14    1    4    4    0    0 -0.39223639689E+02  0.41906488142E+02 -0.18238877157E+03  0.19120750941E+03  0.00000000000E+00 0.  1.
</event>
<event>
12    1  0.1046899E+000  0.2850464E+03  0.7818608E-02  0.1093193E+00
         21   -1    0    0  501  502  0.00000000000E+00  0.00000000000E+00  0.40416070866E+02  0.40416070866E+02  0.00000000000E+00 0.  1.
         21   -1    0    0  502  503 -0.00000000000E+00 -0.00000000000E+00 -0.20065348545E+04  0.20065348545E+04  0.00000000000E+00 0.  1.
         -6    2    1    2    0  503 -0.11727748894E+03  0.19252885795E+03 -0.91479467493E+03  0.95766959404E+03  0.17164027354E+03 0.  0.
        -24    2    3    3    0    0  0.67135006584E+01  0.10606905818E+03 -0.47596420852E+03  0.49351085962E+03  0.75599765760E+02 0.  0.
          6    2    1    2  501    0  0.11727748894E+03 -0.19252885795E+03 -0.10513241087E+04  0.10892813314E+04  0.17444215859E+03 0.  0.
         24    2    5    5    0    0  0.10428904292E+03 -0.17162231451E+03 -0.60706125851E+03  0.64431239607E+03  0.79275903216E+02 0.  0.
          5    1    5    5  501    0  0.12988446016E+02 -0.20906543435E+02 -0.44426285022E+03  0.44496893529E+03  0.47000000000E+01 0. -1.
        -11    1    6    6    0    0  0.27052641878E+02 -0.58583320617E+02 -0.99349413032E+02  0.11846584637E+03  0.00000000000E+00 0.  1.
         12    1    6    6    0    0  0.77236401043E+02 -0.11303899390E+03 -0.50771184548E+03  0.52584654970E+03  0.00000000000E+00 0. -1.
         -5    1    3    3    0  503 -0.12399098960E+03  0.86459799771E+02 -0.43883046642E+03  0.46415873441E+03  0.47000000000E+01 0.  1.
         11    1    4    4    0    0  0.24478670010E+02  0.10161959281E+03 -0.32391182421E+03  0.34035954047E+03  0.00000000000E+00 0. -1.
        -12    1    4    4    0    0 -0.17765169351E+02  0.44494653713E+01 -0.15205238431E+03  0.15315131915E+03  0.00000000000E+00 0.  1.
</event>
<event>
12    1  0.1046899E+000  0.2783415E+03  0.7818608E-02  0.1096825E+00
         21   -1    0    0  503  502  0.00000000000E+00  0.00000000000E+00  0.12097911341E+04  0.12097911341E+04  0.00000000000E+00 0. -1.
         21   -1    0    0  501  503 -0.00000000000E+00 -0.00000000000E+00 -0.68345889742E+02  0.68345889742E+02  0.00000000000E+00 0. -1.
          6    2    1    2  501    0  0.21756323542E+03 -0.11277964244E+02  0.73644640462E+03  0.78671248742E+03  0.17059389527E+03 0.  0.
         24    2    3    3    0    0  0.21593160809E+03  0.30127868701E+02  0.57421057942E+03  0.61920231404E+03  0.78482917547E+02 0.  0.
         -6    2    1    2    0  502 -0.21756323542E+03  0.11277964244E+02  0.40499883978E+03  0.49142453646E+03  0.17324278031E+03 0.  0.
        -24    2    5    5    0    0 -0.19920163335E+03  0.13015453370E+02  0.23101083595E+03  0.31639858760E+03  0.83014258724E+02 0.  0.
          5    1    3    3  501    0  0.16316273343E+01 -0.41405832944E+02  0.16223582520E+03  0.16751017339E+03  0.47000000000E+01 0. -1.
        -11    1    4    4    0    0  0.12805767580E+03 -0.12369138167E+02  0.25848351876E+03  0.28873083206E+03  0.00000000000E+00 0.  1.
         12    1    4    4    0    0  0.87873932288E+02  0.42497006867E+02  0.31572706066E+03  0.33047148198E+03  0.00000000000E+00 0. -1.
         -5    1    5    5    0  502 -0.18361602073E+02 -0.17374891261E+01  0.17398800383E+03  0.17502594887E+03  0.47000000000E+01 0.  1.
         13    1    6    6    0    0 -0.84760319056E+02  0.41531582064E+02  0.73526370066E+02  0.11964660919E+03  0.00000000000E+00 0. -1.
        -14    1    6    6    0    0 -0.11444131429E+03 -0.28516128694E+02  0.15748446588E+03  0.19675197841E+03  0.00000000000E+00 0.  1.
</event>
<event>
12    1  0.1046899E+000  0.5473098E+03  0.7818608E-02  0.1002303E+00
         21   -1    0    0  503  502  0.00000000000E+00  0.00000000000E+00  0.69650112738E+03  0.69650112738E+03  0.00000000000E+00 0.  1.
         21   -1    0    0  501  503 -0.00000000000E+00 -0.00000000000E+00 -0.67443105883E+03  0.67443105883E+03  0.00000000000E+00 0.  1.
          6    2    1    2  501    0 -0.19474813961E+03  0.47781372154E+03  0.42570344840E+03  0.69088227978E+03  0.17280656284E+03 0.  0.
         24    2    3    3    0    0 -0.13592263578E+03  0.44229565591E+03  0.40177570290E+03  0.61796726150E+03  0.79745913284E+02 0.  0.
         -6    2    1    2    0  502  0.19474813961E+03 -0.47781372154E+03 -0.40363337985E+03  0.68004990644E+03  0.18252446285E+03 0.  0.
        -24    2    5    5    0    0  0.41337854723E+02 -0.29438441947E+03 -0.21743446305E+03  0.37694406521E+03  0.80237634031E+02 0.  0.
          5    1    3    3  501    0 -0.58825503825E+02  0.35518065629E+02  0.23927745498E+02  0.72915018281E+02  0.47000000000E+01 0. -1.
        -13    1    4    4    0    0 -0.11317402139E+02  0.88005668265E+01  0.30742280478E+02  0.33920810377E+02  0.00000000000E+00 0.  1.
         14    1    4    4    0    0 -0.12460523364E+03  0.43349508909E+03  0.37103342243E+03  0.58404645112E+03  0.00000000000E+00 0. -1.
         -5    1    5    5    0  502  0.15341028489E+03 -0.18342930207E+03 -0.18619891680E+03  0.30310584122E+03  0.47000000000E+01 0.  1.
         13    1    6    6    0    0 -0.56673463356E+01 -0.15191588077E+03 -0.72794611949E+02  0.16855150303E+03  0.00000000000E+00 0. -1.
        -14    1    6    6    0    0  0.47005201059E+02 -0.14246853871E+03 -0.14463985110E+03  0.20839256218E+03  0.00000000000E+00 0.  1.
</event>
<event>
12    1  0.1046899E+000  0.2413683E+03  0.7818608E-02  0.1118973E+00
         21   -1    0    0  503  502  0.00000000000E+00  0.00000000000E+00  0.39401756362E+03  0.39401756362E+03  0.00000000000E+00 0.  1.
         21   -1    0    0  501  503 -0.00000000000E+00 -0.00000000000E+00 -0.15522094403E+03  0.15522094403E+03  0.00000000000E+00 0.  1.
          6    2    1    2  501    0  0.12286169140E+03 -0.11525151191E+03  0.18040257329E+03  0.30090708206E+03  0.17211065445E+03 0.  0.
         24    2    3    3    0    0  0.13304946462E+02 -0.76297606350E+02  0.29680614616E+02  0.11048836989E+03  0.72995853723E+02 0.  0.
         -6    2    1    2    0  502 -0.12286169140E+03  0.11525151191E+03  0.58394046296E+02  0.24833142558E+03  0.17286042369E+03 0.  0.
        -24    2    5    5    0    0 -0.27583364529E+02  0.10867270964E+03  0.31776690027E-01  0.13630694288E+03  0.77517622835E+02 0.  0.
          5    1    3    3  501    0  0.10955674494E+03 -0.38953905556E+02  0.15072195868E+03  0.19041871218E+03  0.47000000000E+01 0. -1.
        -11    1    4    4    0    0  0.49928964522E+01  0.12419945847E+02 -0.57865323885E+01  0.14583141874E+02  0.00000000000E+00 0.  1.
         12    1    4    4    0    0  0.83120500098E+01 -0.88717552197E+02  0.35467147005E+02  0.95905228011E+02  0.00000000000E+00 0. -1.
         -5    1    5    5    0  502 -0.95278326872E+02  0.65788022707E+01  0.58362269606E+02  0.11202448270E+03  0.47000000000E+01 0.  1.
         13    1    6    6    0    0 -0.20785393938E+02  0.58439812451E+02 -0.38172825394E+02  0.72831372904E+02  0.00000000000E+00 0. -1.
        -14    1    6    6    0    0 -0.67979705905E+01  0.50232897184E+02  0.38204602084E+02  0.63475569979E+02  0.00000000000E+00 0.  1.
</event>
<event>
12    1  0.1046899E+000  0.1912589E+03  0.7818608E-02  0.1157848E+00
         21   -1    0    0  501  502  0.00000000000E+00  0.00000000000E+00  0.10858368720E+04  0.10858368720E+04  0.00000000000E+00 0. -1.
         21   -1    0    0  502  503 -0.00000000000E+00 -0.00000000000E+00 -0.34232078433E+02  0.34232078433E+02  0.00000000000E+00 0. -1.
         -6    2    1    2    0  503  0.67033423889E+02 -0.47998751876E+02  0.61586886229E+03  0.64420577428E+03  0.17002724479E+03 0.  0.
        -24    2    3    3    0    0  0.89817554531E+02 -0.60967365835E+02  0.32616597148E+03  0.35328111650E+03  0.81480632825E+02 0.  0.
          6    2    1    2  501    0 -0.67033423889E+02  0.47998751876E+02  0.43573593131E+03  0.47586317619E+03  0.17257636142E+03 0.  0.
         24    2    5    5    0    0 -0.55351000688E+02  0.66145169576E+02  0.43809386409E+03  0.45365008694E+03  0.80207548843E+02 0.  0.
          5    1    5    5  501    0 -0.11682423201E+02 -0.18146417700E+02 -0.23579327787E+01  0.22213089254E+02  0.47000000000E+01 0. -1.
        -13    1    6    6    0    0 -0.30801079724E+02 -0.60690631294E+01  0.57725424961E+02  0.65709700398E+02  0.00000000000E+00 0.  1.
         14    1    6    6    0    0 -0.24549920964E+02  0.72214232705E+02  0.38036843913E+03  0.38794038654E+03  0.00000000000E+00 0. -1.
         -5    1    3    3    0  503 -0.22784130643E+02  0.12968613960E+02  0.28970289081E+03  0.29092465778E+03  0.47000000000E+01 0.  1.
         11    1    4    4    0    0  0.40732300972E+01  0.59666493679E+01 -0.20499318141E+01  0.75096157390E+01  0.00000000000E+00 0. -1.
        -12    1    4    4    0    0  0.85744324434E+02 -0.66934015203E+02  0.32821590329E+03  0.34577150076E+03  0.00000000000E+00 0.  1.
</event>
<event>
12    1  0.1046899E+000  0.2007988E+03  0.7818608E-02  0.1149961E+00
         21   -1    0    0  501  502  0.00000000000E+00  0.00000000000E+00  0.32449421812E+03  0.32449421812E+03  0.00000000000E+00 0. -1.
         21   -1    0    0  502  503 -0.00000000000E+00 -0.00000000000E+00 -0.17613120424E+03  0.17613120424E+03  0.00000000000E+00 0. -1.
         -6    2    1    2    0  503  0.41230120066E+01  0.99741226166E+02  0.21392154172E+03  0.29339833023E+03  0.17422641230E+03 0.  0.
        -24    2    3    3    0    0 -0.10827821950E+01  0.75832825253E+02  0.44290706013E+02  0.12194739745E+03  0.84603258229E+02 0.  0.
          6    2    1    2  501    0 -0.41230120066E+01 -0.99741226166E+02 -0.65558527836E+02  0.20722709213E+03  0.16935122000E+03 0.  0.
         24    2    5    5    0    0 -0.31304520366E+02 -0.94949394871E+02 -0.10071631206E+03  0.16228317335E+03  0.78719071747E+02 0.  0.
          5    1    5    5  501    0  0.27181508360E+02 -0.47918312955E+01  0.35157784223E+02  0.44943918780E+02  0.47000000000E+01 0. -1.
        -11    1    6    6    0    0  0.24814397653E+02 -0.41996104029E+02 -0.27920411562E+02  0.56204772629E+02  0.00000000000E+00 0.  1.
         12    1    6    6    0    0 -0.56118918020E+02 -0.52953290842E+02 -0.72795900497E+02  0.10607840072E+03  0.00000000000E+00 0. -1.
         -5    1    3    3    0  503  0.52057942016E+01  0.23908400913E+02  0.16963083570E+03  0.17145093277E+03  0.47000000000E+01 0.  1.
         13    1    4    4    0    0  0.89674118902E+01 -0.11932843223E+02  0.28550204503E+02  0.32216787558E+02  0.00000000000E+00 0. -1.
        -14    1    4    4    0    0 -0.10050194085E+02  0.87765668476E+02  0.15740501510E+02  0.89730609894E+02  0.00000000000E+00 0.  1.
</event>
<event>
12    1  0.1046899E+000  0.5270021E+03  0.7818608E-02  0.1006995E+00
         21   -1    0    0  501  502  0.00000000000E+00  0.00000000000E+00  0.58085844110E+03  0.58085844110E+03  0.00000000000E+00 0. -1.
         21   -1    0    0  502  503 -0.00000000000E+00 -0.00000000000E+00 -0.48100158408E+03  0.48100158408E+03  0.00000000000E+00 0. -1.
         -6    2    1    2    0  503 -0.47033209064E+02  0.49559521220E+03  0.94236975371E+02  0.53482799288E+03  0.17127065518E+03 0.  0.
        -24    2    3    3    0    0 -0.24553631467E+02  0.10965035602E+03  0.71606424041E+01  0.13851606878E+03  0.80680512614E+02 0.  0.
          6    2    1    2  501    0  0.47033209064E+02 -0.49559521220E+03  0.56198816485E+01  0.52703203230E+03  0.17292901111E+03 0.  0.
         24    2    5    5    0    0  0.76046055925E+02 -0.47209671918E+03  0.22375440231E+02  0.48584024670E+03  0.82956434979E+02 0.  0.
          5    1    5    5  501    0 -0.29012846861E+02 -0.23498493024E+02 -0.16755558582E+02  0.41191785599E+02  0.47000000000E+01 0. -1.
        -11    1    6    6    0    0  0.66246493161E+02 -0.17083066620E+03 -0.39410199220E+01  0.18326823514E+03  0.00000000000E+00 0.  1.
         12    1    6    6    0    0  0.97995627637E+01 -0.30126605297E+03  0.26316460153E+02  0.30257201156E+03  0.00000000000E+00 0. -1.
         -5    1    3    3    0  503 -0.22479577597E+02  0.38594485618E+03  0.87076332967E+02  0.39631192410E+03  0.47000000000E+01 0.  1.
         11    1    4    4    0    0  0.14304340109E+02  0.27332801165E+02 -0.27289042803E+02  0.41187231305E+02  0.00000000000E+00 0. -1.
        -12    1    4    4    0    0 -0.38857971575E+02  0.82317554858E+02  0.34449685207E+02  0.97328837472E+02  0.00000000000E+00 0.  1.
</event>
<event>
12    1  0.1046899E+000  0.2115572E+03  0.7818608E-02  0.1141440E+00
         21   -1    0    0  503  502  0.00000000000E+00  0.00000000000E+00  0.41203961158E+03  0.41203961158E+03  0.00000000000E+00 0. -1.
         21   -1    0    0  501  503 -0.00000000000E+00 -0.00000000000E+00 -0.11565035065E+03  0.11565035065E+03  0.00000000000E+00 0. -1.
          6    2    1    2  501    0 -0.41161623474E+02 -0.10662230608E+03  0.72990322656E+02  0.22379464688E+03  0.17802769832E+03 0.  0.
         24    2    3    3    0    0 -0.92097660625E+02 -0.10471232088E+03  0.56074830618E+02  0.16988405613E+03  0.79180532097E+02 0.  0.
         -6    2    1    2    0  502  0.41161623474E+02  0.10662230608E+03  0.22339893828E+03  0.30389531535E+03  0.17141377328E+03 0.  0.
        -24    2    5    5    0    0  0.41122654495E+02  0.22852052055E+02  0.19339057507E+03  0.21478836365E+03  0.80751703634E+02 0.  0.
          5    1    3    3  501    0  0.50936037151E+02 -0.19099852039E+01  0.16915492038E+02  0.53910590750E+02  0.47000000000E+01 0. -1.
        -13    1    4    4    0    0 -0.44062285002E+02 -0.55012233810E+02  0.70043098861E+02  0.99367331283E+02  0.00000000000E+00 0.  1.
         14    1    4    4    0    0 -0.48035375623E+02 -0.49700087070E+02 -0.13968268243E+02  0.70516724851E+02  0.00000000000E+00 0. -1.
         -5    1    5    5    0  502  0.38968979039E-01  0.83770254028E+02  0.30008363207E+02  0.89106951698E+02  0.47000000000E+01 0.  1.
         11    1    6    6    0    0  0.26529445304E+02 -0.27935314913E+02  0.10452592485E+03  0.11139956128E+03  0.00000000000E+00 0. -1.
        -12    1    6    6    0    0  0.14593209192E+02  0.50787366968E+02  0.88864650223E+02  0.10338880238E+03  0.00000000000E+00 0.  1.
</event>
<event>
12    1  0.1046899E+000  0.2395798E+03  0.7818608E-02  0.1120171E+00
         21   -1    0    0  501  502  0.00000000000E+00  0.00000000000E+00  0.12077355008E+03  0.12077355008E+03  0.00000000000E+00 0.  1.
         21   -1    0    0  502  503 -0.00000000000E+00 -0.00000000000E+00 -0.55648243342E+03  0.55648243342E+03  0.00000000000E+00 0.  1.
         -6    2    1    2    0  503 -0.23234046804E+02 -0.16431230986E+03 -0.87338121504E+02  0.25445501165E+03  0.17199142241E+03 0.  0.
        -24    2    3    3    0    0 -0.73960740692E+02 -0.14508298603E+03 -0.85582378242E+02  0.19997440040E+03  0.78397406525E+02 0.  0.
          6    2    1    2  501    0  0.23234046804E+02  0.16431230986E+03 -0.34837076184E+03  0.42280097185E+03  0.17280080437E+03 0.  0.
         24    2    5    5    0    0  0.76111002264E+02  0.14625594833E+03 -0.27660725147E+03  0.33172904406E+03  0.79679985081E+02 0.  0.
          5    1    5    5  501    0 -0.52876955460E+02  0.18056361533E+02 -0.71763510370E+02  0.91071927789E+02  0.47000000000E+01 0. -1.
        -11    1    6    6    0    0  0.32658572998E+02  0.59465241792E+02 -0.47237857595E+02  0.82668691545E+02  0.00000000000E+00 0.  1.
         12    1    6    6    0    0  0.43452429266E+02  0.86790706539E+02 -0.22936939387E+03  0.24906035252E+03  0.00000000000E+00 0. -1.
         -5    1    3    3    0  503  0.50726693888E+02 -0.19229323835E+02 -0.17557432619E+01  0.54480611251E+02  0.47000000000E+01 0.  1.
         13    1    4    4    0    0 -0.66317849225E+02 -0.15476272652E+03 -0.80635654277E+02  0.18668601283E+03  0.00000000000E+00 0. -1.
        -14    1    4    4    0    0 -0.76428914668E+01  0.96797404959E+01 -0.49467239648E+01  0.13288387563E+02  0.00000000000E+00 0.  1.
</event>
<event>
12    1  0.1046899E+000  0.2089990E+03  0.7818608E-02  0.1142409E+00
         21   -1    0    0  503  502  0.00000000000E+00  0.00000000000E+00  0.42793460196E+02  0.42793460196E+02  0.00000000000E+00 0. -1.
         21   -1    0    0  501  503 -0.00000000000E+00 -0.00000000000E+00 -0.10206921213E+04  0.10206921213E+04  0.00000000000E+00 0. -1.
          6    2    1    2  501    0  0.11634945277E+03  0.11016198839E+02 -0.47152951002E+03  0.51577191772E+03  0.17326869449E+03 0.  0.
         24    2    3    3    0    0  0.98380760185E+02 -0.39515504492E+01 -0.16658310357E+03  0.20989398743E+03  0.81309082139E+02 0.  0.
         -6    2    1    2    0  502 -0.11634945277E+03 -0.11016198839E+02 -0.50636915112E+03  0.54771366381E+03  0.17297973443E+03 0.  0.
        -24    2    5    5    0    0 -0.84042945714E+02  0.47474479371E+02 -0.41892391733E+03  0.43756091192E+03  0.81518465492E+02 0.  0.
          5    1    3    3  501    0  0.17968692590E+02  0.14967749288E+02 -0.30494640645E+03  0.30587793029E+03  0.47000000000E+01 0. -1.
        -13    1    4    4    0    0  0.10871830545E+03  0.46475577538E+00 -0.16625607780E+03  0.19864785260E+03  0.00000000000E+00 0.  1.
         14    1    4    4    0    0 -0.10337545264E+02 -0.44163062246E+01 -0.32702577144E+00  0.11246134829E+02  0.00000000000E+00 0. -1.
         -5    1    5    5    0  502 -0.32306507060E+02 -0.58490678210E+02 -0.87445233788E+02  0.11015275189E+03  0.47000000000E+01 0.  1.
         11    1    6    6    0    0 -0.30534004898E+02 -0.12142628250E+02 -0.48564990247E+02  0.58637250563E+02  0.00000000000E+00 0. -1.
        -12    1    6    6    0    0 -0.53508940816E+02  0.59617107622E+02 -0.37035892708E+03  0.37892366136E+03  0.00000000000E+00 0.  1.
</event>
<event>
12    1  0.1046899E+000  0.1743090E+03  0.7818608E-02  0.1173905E+00
         21   -1    0    0  501  502  0.00000000000E+00  0.00000000000E+00  0.60264597847E+02  0.60264597847E+02  0.00000000000E+00 0. -1.
         21   -1    0    0  502  503 -0.00000000000E+00 -0.00000000000E+00 -0.11731455015E+04  0.11731455015E+04  0.00000000000E+00 0. -1.
         -6    2    1    2    0  503 -0.51164403621E+01 -0.22358810940E+01 -0.10227394399E+04  0.10371727513E+04  0.17233739294E+03 0.  0.
        -24    2    3    3    0    0 -0.23966882800E+02 -0.45362154052E+02 -0.90897864610E+03  0.91397038605E+03  0.80421085656E+02 0.  0.
          6    2    1    2  501    0  0.51164403621E+01  0.22358810940E+01 -0.90141463772E+02  0.19623734806E+03  0.17421950567E+03 0.  0.
         24    2    5    5    0    0  0.50790009687E+01  0.28186185180E+02 -0.12558812415E+03  0.15205618221E+03  0.80798813934E+02 0.  0.
          5    1    5    5  501    0  0.37439393423E-01 -0.25950304086E+02  0.35446660379E+02  0.44181165851E+02  0.47000000000E+01 0. -1.
        -13    1    6    6    0    0 -0.26999212911E+02 -0.14722859961E+02 -0.59529665514E+02  0.67003740041E+02  0.00000000000E+00 0.  1.
         14    1    6    6    0    0  0.32078213879E+02  0.42909045141E+02 -0.66058458637E+02  0.85052442164E+02  0.00000000000E+00 0. -1.
         -5    1    3    3    0  503  0.18850442438E+02  0.43126272958E+02 -0.11376079377E+03  0.12320236523E+03  0.47000000000E+01 0.  1.
         11    1    4    4    0    0 -0.37941876698E+02 -0.52468484969E+02 -0.44088985354E+03  0.44561910964E+03  0.00000000000E+00 0. -1.
        -12    1    4    4    0    0  0.13974993898E+02  0.71063309167E+01 -0.46808879256E+03  0.46835127641E+03  0.00000000000E+00 0.  1.
</event>
<event>
12    1  0.1046899E+000  0.1913140E+03  0.7818608E-02  0.1157414E+00
         21   -1    0    0  501  502  0.00000000000E+00  0.00000000000E+00  0.76441006442E+02  0.76441006442E+02  0.00000000000E+00 0.  1.
         21   -1    0    0  502  503 -0.00000000000E+00 -0.00000000000E+00 -0.55081371534E+03  0.55081371534E+03  0.00000000000E+00 0.  1.
         -6    2    1    2    0  503  0.60785570332E+02 -0.57184312863E+02 -0.12295764391E+03  0.22741946183E+03  0.17215138171E+03 0.  0.
        -24    2    3    3    0    0 -0.19160286982E+02 -0.52415443079E+01 -0.17891721217E+02  0.85467605842E+02  0.81178861635E+02 0.  0.
          6    2    1    2  501    0 -0.60785570332E+02  0.57184312863E+02 -0.35141506499E+03  0.39983525995E+03  0.17149564427E+03 0.  0.
         24    2    5    5    0    0 -0.69045783036E+00 -0.15729389478E+02 -0.24818432360E+03  0.25981202437E+03  0.75225920407E+02 0.  0.
          5    1    5    5  501    0 -0.60095112502E+02  0.72913702341E+02 -0.10323074139E+03  0.14002323559E+03  0.47000000000E+01 0. -1.
        -13    1    6    6    0    0  0.28651493438E+02 -0.13316736106E+02 -0.20576798825E+03  0.20817951034E+03  0.00000000000E+00 0.  1.
         14    1    6    6    0    0 -0.29341951269E+02 -0.24126533719E+01 -0.42416335348E+02  0.51632514029E+02  0.00000000000E+00 0. -1.
         -5    1    3    3    0  503  0.79945857315E+02 -0.51942768555E+02 -0.10506592270E+03  0.14195185599E+03  0.47000000000E+01 0.  1.
         11    1    4    4    0    0 -0.15906889745E+01 -0.26229980431E+02 -0.41634122965E+02  0.49233549130E+02  0.00000000000E+00 0. -1.
        -12    1    4    4    0    0 -0.17569598008E+02  0.20988436123E+02  0.23742401749E+02  0.36234056712E+02  0.00000000000E+00 0.  1.
</event>
<event>
12    1  0.1046899E+000  0.1886561E+03  0.7818608E-02  0.1160348E+00
         21   -1    0    0  501  502  0.00000000000E+00  0.00000000000E+00  0.55737910878E+02  0.55737910878E+02  0.00000000000E+00 0. -1.
         21   -1    0    0  502  503 -0.00000000000E+00 -0.00000000000E+00 -0.64888246875E+03  0.64888246875E+03  0.00000000000E+00 0. -1.
         -6    2    1    2    0  503 -0.49016431118E+02  0.53880950328E+02 -0.36090619691E+03  0.40724000734E+03  0.17402693262E+03 0.  0.
        -24    2    3    3    0    0  0.36212713017E+02  0.49162828199E+02 -0.22895042623E+03  0.25001188293E+03  0.79745217267E+02 0.  0.
          6    2    1    2  501    0  0.49016431118E+02 -0.53880950328E+02 -0.23223836096E+03  0.29738037229E+03  0.17086445563E+03 0.  0.
         24    2    5    5    0    0  0.47628414839E+02 -0.70869962916E+02 -0.24712661020E+03  0.27426537493E+03  0.82818578056E+02 0.  0.
          5    1    5    5  501    0  0.13880162792E+01  0.16989012588E+02  0.14888249239E+02  0.23114997368E+02  0.47000000000E+01 0. -1.
        -13    1    6    6    0    0 -0.17154330230E+02  0.39070191300E+01 -0.60884521676E+02  0.63375553835E+02  0.00000000000E+00 0.  1.
         14    1    6    6    0    0  0.64782745069E+02 -0.74776982046E+02 -0.18624208852E+03  0.21088982109E+03  0.00000000000E+00 0. -1.
         -5    1    3    3    0  503 -0.85229144135E+02  0.47181221291E+01 -0.13195577069E+03  0.15722812440E+03  0.47000000000E+01 0.  1.
         13    1    4    4    0    0  0.41370560169E+01  0.27227876941E+02 -0.12752575106E+02  0.30349640641E+02  0.00000000000E+00 0. -1.
        -14    1    4    4    0    0  0.32075657000E+02  0.21934951258E+02 -0.21619785112E+03  0.21966224229E+03  0.00000000000E+00 0.  1.
</event>
<event>
12    1  0.1046899E+000  0.2006124E+03  0.7818608E-02  0.1149353E+00
         21   -1    0    0  503  502  0.00000000000E+00  0.00000000000E+00  0.25119164944E+03  0.25119164944E+03  0.00000000000E+00 0. -1.
         21   -1    0    0  501  503 -0.00000000000E+00 -0.00000000000E+00 -0.16836447130E+03  0.16836447130E+03  0.00000000000E+00 0. -1.
          6    2    1    2  501    0 -0.10459117222E+03 -0.48474068645E+01 -0.61633051348E+01  0.20009168548E+03  0.17039919486E+03 0.  0.
         24    2    3    3    0    0 -0.74642668993E+02  0.79560821865E+01  0.59899847485E+02  0.12628604673E+03  0.82008210520E+02 0.  0.
         -6    2    1    2    0  502  0.10459117222E+03  0.48474068645E+01  0.88990483280E+02  0.21946443526E+03  0.17112136503E+03 0.  0.
        -24    2    5    5    0    0  0.98725327214E+01  0.32641353037E+02  0.83786099993E+02  0.12050333322E+03  0.79611669588E+02 0.  0.
          5    1    3    3  501    0 -0.29948503223E+02 -0.12803489051E+02 -0.66063152620E+02  0.73805638750E+02  0.47000000000E+01 0. -1.
        -11    1    4    4    0    0 -0.82415021552E+02 -0.12224879964E+02  0.28294528756E+02  0.87990134816E+02  0.00000000000E+00 0.  1.
         12    1    4    4    0    0  0.77723525583E+01  0.20180962150E+02  0.31605318729E+02  0.38295911917E+02  0.00000000000E+00 0. -1.
         -5    1    5    5    0  502  0.94718639495E+02 -0.27793946172E+02  0.52043832871E+01  0.98961102041E+02  0.47000000000E+01 0.  1.
         13    1    6    6    0    0 -0.19966670928E+02 -0.44184354493E+01 -0.38267726960E+01  0.20804679980E+02  0.00000000000E+00 0. -1.
        -14    1    6    6    0    0  0.29839203650E+02  0.37059788486E+02  0.87612872689E+02  0.99698653240E+02  0.00000000000E+00 0.  1.
</event>
<event>
12    1  0.1046899E+000  0.2100691E+03  0.7818608E-02  0.1141583E+00
         21   -1    0    0  501  502  0.00000000000E+00  0.00000000000E+00  0.22707069013E+02  0.22707069013E+02  0.00000000000E+00 0. -1.
         21   -1    0    0  502  503 -0.00000000000E+00 -0.00000000000E+00 -0.21145422023E+04  0.21145422023E+04  0.00000000000E+00 0. -1.
         -6    2    1    2    0  503 -0.38492567253E+02  0.11355312446E+03 -0.13536921110E+04  0.13698946456E+04  0.17249063407E+03 0.  0.
        -24    2    3    3    0    0 -0.69413416278E+02  0.14809151926E+02 -0.64942178308E+03  0.65804827467E+03  0.79002190567E+02 0.  0.
          6    2    1    2  501    0  0.38492567253E+02 -0.11355312446E+03 -0.73814302224E+03  0.76735462567E+03  0.17205234798E+03 0.  0.
         24    2    5    5    0    0  0.58923094373E+02 -0.16665044186E+02 -0.48828587058E+03  0.49855099330E+03  0.79877072848E+02 0.  0.
          5    1    5    5  501    0 -0.20430527120E+02 -0.96888080274E+02 -0.24985715166E+03  0.26880363237E+03  0.47000000000E+01 0. -1.
        -11    1    6    6    0    0 -0.19587247703E+02 -0.12255037013E+01 -0.12728194550E+03  0.12878608536E+03  0.00000000000E+00 0.  1.
         12    1    6    6    0    0  0.78510342076E+02 -0.15439540485E+02 -0.36100392508E+03  0.36976490794E+03  0.00000000000E+00 0. -1.
         -5    1    3    3    0  503  0.30920849024E+02  0.98743972534E+02 -0.70427032795E+03  0.71184637096E+03  0.47000000000E+01 0.  1.
         13    1    4    4    0    0 -0.51988196479E+02  0.31782352686E+02 -0.59872390273E+03  0.60181658519E+03  0.00000000000E+00 0. -1.
        -14    1    4    4    0    0 -0.17425219799E+02 -0.16973200759E+02 -0.50697880355E+02  0.56231689478E+02  0.00000000000E+00 0.  1.
</event>
<event>
12    1  0.1046899E+000  0.2326984E+03  0.7818608E-02  0.1125424E+00
         21   -1    0    0  501  502  0.00000000000E+00  0.00000000000E+00  0.11969704108E+03  0.11969704108E+03  0.00000000000E+00 0.  1.
         21   -1    0    0  502  503 -0.00000000000E+00 -0.00000000000E+00 -0.46989006189E+03  0.46989006189E+03  0.00000000000E+00 0.  1.
         -6    2    1    2    0  503 -0.60934213183E+02 -0.14213924930E+03 -0.24160479187E+03  0.33279930911E+03  0.16871858274E+03 0.  0.
        -24    2    3    3    0    0  0.18512582115E+02 -0.91648430682E+02 -0.90778390972E+02  0.15494597275E+03  0.83817585623E+02 0.  0.
          6    2    1    2  501    0  0.60934213183E+02  0.14213924930E+03 -0.10858822893E+03  0.25678779386E+03  0.17387358363E+03 0.  0.
         24    2    5    5    0    0  0.37151545979E+02  0.54608946297E+02 -0.12654270249E+03  0.16420473751E+03  0.81165053323E+02 0.  0.
          5    1    5    5  501    0  0.23782667204E+02  0.87530303000E+02  0.17954473562E+02  0.92583056352E+02  0.47000000000E+01 0. -1.
        -11    1    6    6    0    0 -0.18935871564E+02 -0.66211640859E+01 -0.14523117738E+02  0.24765459708E+02  0.00000000000E+00 0.  1.
         12    1    6    6    0    0  0.56087417542E+02  0.61230110383E+02 -0.11201958476E+03  0.13943927780E+03  0.00000000000E+00 0. -1.
         -5    1    3    3    0  503 -0.79446795298E+02 -0.50490818616E+02 -0.15082640090E+03  0.17785333637E+03  0.47000000000E+01 0.  1.
         13    1    4    4    0    0 -0.29945148874E+02 -0.37718951365E+02 -0.15896338218E+02  0.50716119744E+02  0.00000000000E+00 0. -1.
        -14    1    4    4    0    0  0.48457730990E+02 -0.53929479317E+02 -0.74882052755E+02  0.10422985300E+03  0.00000000000E+00 0.  1.
</event>
<event>
12    1  0.1046899E+000  0.2006650E+03  0.7818608E-02  0.1149240E+00
         21   -1    0    0  503  502  0.00000000000E+00  0.00000000000E+00  0.93319583864E+02  0.93319583864E+02  0.00000000000E+00 0. -1.
         21   -1    0    0  501  503 -0.00000000000E+00 -0.00000000000E+00 -0.58198618499E+03  0.58198618499E+03  0.00000000000E+00 0. -1.
          6    2    1    2  501    0  0.30784153246E+02  0.97975071276E+02 -0.72406329134E+02  0.21332863519E+03  0.17239388450E+03 0.  0.
         24    2    3    3    0    0 -0.46684942326E+01  0.96854871432E+02 -0.10665998181E+03  0.16379533546E+03  0.77781098226E+02 0.  0.
         -6    2    1    2    0  502 -0.30784153246E+02 -0.97975071276E+02 -0.41626027199E+03  0.46197713366E+03  0.17205661657E+03 0.  0.
        -24    2    5    5    0    0 -0.73896471566E+02 -0.49303015100E+02 -0.18041386904E+03  0.21728700956E+03  0.82298265941E+02 0.  0.
          5    1    3    3  501    0  0.35452647478E+02  0.11201998431E+01  0.34253652672E+02  0.49533299732E+02  0.47000000000E+01 0. -1.
        -11    1    4    4    0    0 -0.18654191599E+01  0.87245675381E+02 -0.39319073112E+02  0.95714560918E+02  0.00000000000E+00 0.  1.
         12    1    4    4    0    0 -0.28030750726E+01  0.96091960517E+01 -0.67340908695E+02  0.68080774543E+02  0.00000000000E+00 0. -1.
         -5    1    5    5    0  502  0.43112318320E+02 -0.48672056176E+02 -0.23584640296E+03  0.24469012410E+03  0.47000000000E+01 0.  1.
         11    1    6    6    0    0 -0.41201482199E+02 -0.75151514376E+01 -0.16525156133E+02  0.45023554078E+02  0.00000000000E+00 0. -1.
        -12    1    6    6    0    0 -0.32694989367E+02 -0.41787863662E+02 -0.16388871290E+03  0.17226345549E+03  0.00000000000E+00 0.  1.
</event>
<event>
12    1  0.1046899E+000  0.1846315E+03  0.7818608E-02  0.1163409E+00
         21   -1    0    0  501  502  0.00000000000E+00  0.00000000000E+00  0.63160962066E+03  0.63160962066E+03  0.00000000000E+00 0.  1.
         21   -1    0    0  502  503 -0.00000000000E+00 -0.00000000000E+00 -0.59492900934E+02  0.59492900934E+02  0.00000000000E+00 0.  1.
         -6    2    1    2    0  503 -0.47089058525E+02 -0.45277112524E+02  0.18056682602E+03  0.25820519878E+03  0.17262140558E+03 0.  0.
        -24    2    3    3    0    0 -0.37254554198E+02 -0.40980147414E+02  0.20814458163E+03  0.22824182132E+03  0.75517467156E+02 0.  0.
          6    2    1    2  501    0  0.47089058525E+02  0.45277112524E+02  0.39154989370E+03  0.43289732282E+03  0.17268866927E+03 0.  0.
         24    2    5    5    0    0 -0.54814040965E+01  0.41036050873E+02  0.36056056899E+03  0.37154531885E+03  0.79548707039E+02 0.  0.
          5    1    5    5  501    0  0.52570462621E+02  0.42410616501E+01  0.30989324716E+02  0.61352003965E+02  0.47000000000E+01 0. -1.
        -13    1    6    6    0    0  0.33984585333E+00 -0.22539897007E+02  0.14457824568E+03  0.14632508868E+03  0.00000000000E+00 0.  1.
         14    1    6    6    0    0 -0.58212499498E+01  0.63575947880E+02  0.21598232330E+03  0.22522023017E+03  0.00000000000E+00 0. -1.
         -5    1    3    3    0  503 -0.98345043270E+01 -0.42969651096E+01 -0.27577755606E+02  0.29963377460E+02  0.47000000000E+01 0.  1.
         11    1    4    4    0    0 -0.49399496464E+02  0.15052966014E+01  0.10657976786E+03  0.11748116056E+03  0.00000000000E+00 0. -1.
        -12    1    4    4    0    0  0.12144942266E+02 -0.42485444015E+02  0.10156481377E+03  0.11076066076E+03  0.00000000000E+00 0.  1.
</event>
<event>
12    1  0.1046899E+000  0.2145159E+03  0.7818608E-02  0.1138510E+00
         21   -1    0    0  503  502  0.00000000000E+00  0.00000000000E+00  0.67647130808E+03  0.67647130808E+03  0.00000000000E+00 0. -1.
         21   -1    0    0  501  503 -0.00000000000E+00 -0.00000000000E+00 -0.68041373503E+02  0.68041373503E+02  0.00000000000E+00 0.  1.
          6    2    1    2  501    0 -0.12506878543E+03 -0.18749359723E+02  0.34247373397E+03  0.40282600789E+03  0.17025508685E+03 0.  0.
         24    2    3    3    0    0 -0.12240466813E+03 -0.66897901474E+02  0.27938091704E+03  0.32327619242E+03  0.83639510865E+02 0.  0.
         -6    2    1    2    0  502  0.12506878543E+03  0.18749359723E+02  0.26595620061E+03  0.34168667369E+03  0.17327245239E+03 0.  0.
        -24    2    5    5    0    0  0.11668912218E+03  0.63613211783E+02  0.15077738938E+03  0.21770589884E+03  0.83660296983E+02 0.  0.
          5    1    3    3  501    0 -0.26641172985E+01  0.48148541751E+02  0.63092816932E+02  0.79549815475E+02  0.47000000000E+01 0. -1.
        -11    1    4    4    0    0 -0.45559110690E+02  0.87775852523E+01  0.13710014721E+03  0.14473813918E+03  0.00000000000E+00 0.  1.
         12    1    4    4    0    0 -0.76845557440E+02 -0.75675486727E+02  0.14228076983E+03  0.17853805324E+03  0.00000000000E+00 0. -1.
         -5    1    5    5    0  502  0.83796632496E+01 -0.44863852060E+02  0.11517881122E+03  0.12398077485E+03  0.47000000000E+01 0.  1.
         11    1    6    6    0    0  0.53288254006E+00 -0.14798026312E+02  0.26681899520E+02  0.30515394615E+02  0.00000000000E+00 0. -1.
        -12    1    6    6    0    0  0.11615623964E+03  0.78411238095E+02  0.12409548986E+03  0.18719050422E+03  0.00000000000E+00 0.  1.
</event>
<event>
12    1  0.1046899E+000  0.3216971E+03  0.7818608E-02  0.1075049E+00
         21   -1    0    0  501  502  0.00000000000E+00  0.00000000000E+00  0.35231484083E+04  0.35231484083E+04  0.00000000000E+00 0.  1.
         21   -1    0    0  502  503 -0.00000000000E+00 -0.00000000000E+00 -0.29618445316E+02  0.29618445316E+02  0.00000000000E+00 0.  1.
         -6    2    1    2    0  503 -0.15596245554E+03 -0.22056433878E+03  0.19454218636E+04  0.19715876399E+04  0.17181000971E+03 0.  0.
        -24    2    3    3    0    0 -0.85640809643E+02 -0.14299733436E+03  0.79149577829E+03  0.81291198452E+03  0.81103277484E+02 0.  0.
          6    2    1    2  501    0  0.15596245554E+03  0.22056433878E+03  0.15481080994E+04  0.15811792137E+04  0.17468858968E+03 0.  0.
         24    2    5    5    0    0  0.13951124039E+03  0.21307756127E+03  0.10720764201E+04  0.11047813295E+04  0.79551884432E+02 0.  0.
          5    1    5    5  501    0  0.16451215145E+02  0.74867775139E+01  0.47603167937E+03  0.47639788421E+03  0.47000000000E+01 0. -1.
        -11    1    6    6    0    0  0.11588599513E+03  0.10588213259E+03  0.61747209021E+03  0.63711252700E+03  0.00000000000E+00 0.  1.
         12    1    6    6    0    0  0.23625245259E+02  0.10719542867E+03  0.45460432986E+03  0.46766880254E+03  0.00000000000E+00 0. -1.
         -5    1    3    3    0  503 -0.70321645893E+02 -0.77567004421E+02  0.11539260853E+04  0.11586756554E+04  0.47000000000E+01 0.  1.
         13    1    4    4    0    0 -0.39046300320E+02 -0.46531915272E+01  0.15946048629E+03  0.16423736617E+03  0.00000000000E+00 0. -1.
        -14    1    4    4    0    0 -0.46594509322E+02 -0.13834414283E+03  0.63203529200E+03  0.64867461835E+03  0.00000000000E+00 0.  1.
</event>
<event>
12    1  0.1046899E+000  0.2989169E+03  0.7818608E-02  0.1085942E+00
         21   -1    0    0  501  502  0.00000000000E+00  0.00000000000E+00  0.19078800609E+04  0.19078800609E+04  0.00000000000E+00 0.  1.
         21   -1    0    0  502  503 -0.00000000000E+00 -0.00000000000E+00 -0.46700548475E+02  0.46700548475E+02  0.00000000000E+00 0.  1.
         -6    2    1    2    0  503  0.16783711964E+03  0.17727008123E+03  0.96895684553E+03  0.10140161242E+04  0.17250319202E+03 0.  0.
        -24    2    3    3    0    0  0.13411380005E+03  0.51328435967E+02  0.61491872991E+03  0.63670506209E+03  0.81530190701E+02 0.  0.
          6    2    1    2  501    0 -0.16783711964E+03 -0.17727008123E+03  0.89222266694E+03  0.94056448520E+03  0.17031231014E+03 0.  0.
         24    2    5    5    0    0 -0.17743144847E+03 -0.17380700726E+03  0.89196941638E+03  0.92933068963E+03  0.79720111905E+02 0.  0.
          5    1    5    5  501    0  0.95943288303E+01 -0.34630739750E+01  0.25325055665E+00  0.11233795570E+02  0.47000000000E+01 0. -1.
        -13    1    6    6    0    0 -0.74553958655E+02 -0.12520905810E+03  0.54723853362E+03  0.56630876177E+03  0.00000000000E+00 0.  1.
         14    1    6    6    0    0 -0.10287748981E+03 -0.48597949155E+02  0.34473088277E+03  0.36302192786E+03  0.00000000000E+00 0. -1.
         -5    1    3    3    0  503  0.33723319590E+02  0.12594164526E+03  0.35403811562E+03  0.37731106213E+03  0.47000000000E+01 0.  1.
         11    1    4    4    0    0  0.44035704224E+02  0.47191414105E+02  0.15284446694E+03  0.16591444749E+03  0.00000000000E+00 0. -1.
        -12    1    4    4    0    0  0.90078095824E+02  0.41370218617E+01  0.46207426297E+03  0.47079061460E+03  0.00000000000E+00 0.  1.
</event>
<event>
12    1  0.1046899E+000  0.1795765E+03  0.7818608E-02  0.1168804E+00
         21   -1    0    0  503  502  0.00000000000E+00  0.00000000000E+00  0.31114053575E+02  0.31114053575E+02  0.00000000000E+00 0. -1.
         21   -1    0    0  501  503 -0.00000000000E+00 -0.00000000000E+00 -0.14391570274E+04  0.14391570274E+04  0.00000000000E+00 0. -1.
          6    2    1    2  501    0  0.44543471128E+02  0.10994906472E+02 -0.31188120760E+03  0.35988554957E+03  0.17361656704E+03 0.  0.
         24    2    3    3    0    0  0.81555486740E+02 -0.19926549668E+02 -0.27676116470E+03  0.30003963774E+03  0.79866620896E+02 0.  0.
         -6    2    1    2    0  502 -0.44543471128E+02 -0.10994906472E+02 -0.10961617663E+04  0.11103855314E+04  0.17111517121E+03 0.  0.
        -24    2    5    5    0    0 -0.19305864050E+02 -0.71494511524E+02 -0.57781388621E+03  0.58788792017E+03  0.79114714321E+02 0.  0.
          5    1    3    3  501    0 -0.37012015611E+02  0.30921456140E+02 -0.35120042901E+02  0.59845911830E+02  0.47000000000E+01 0. -1.
        -11    1    4    4    0    0  0.94298758721E+02 -0.10313786683E+02 -0.19640789341E+03  0.21811623205E+03  0.00000000000E+00 0.  1.
         12    1    4    4    0    0 -0.12743271981E+02 -0.96127629844E+01 -0.80353271288E+02  0.81923405689E+02  0.00000000000E+00 0. -1.
         -5    1    5    5    0  502 -0.25237607079E+02  0.60499605052E+02 -0.51834788006E+03  0.52249761127E+03  0.47000000000E+01 0.  1.
         13    1    6    6    0    0  0.19255548987E+02 -0.37916602942E+02 -0.12168055420E+03  0.12889764240E+03  0.00000000000E+00 0. -1.
        -14    1    6    6    0    0 -0.38561413036E+02 -0.33577908583E+02 -0.45613333201E+03  0.45899027777E+03  0.00000000000E+00 0.  1.
</event>
<event>
12    1  0.1046899E+000  0.2538016E+03  0.7818608E-02  0.1111083E+00
         21   -1    0    0  501  502  0.00000000000E+00  0.00000000000E+00  0.68643810382E+03  0.68643810382E+03  0.00000000000E+00 0. -1.
         21   -1    0    0  502  503 -0.00000000000E+00 -0.00000000000E+00 -0.96319851099E+02  0.96319851099E+02  0.00000000000E+00 0. -1.
         -6    2    1    2    0  503  0.62285249746E+02 -0.17568079642E+03  0.36185955682E+03  0.44141169117E+03  0.17075932675E+03 0.  0.
        -24    2    3    3    0    0 -0.26916584892E+02 -0.50829711253E+02  0.12021887153E+03  0.15513023603E+03  0.79401832283E+02 0.  0.
          6    2    1    2  501    0 -0.62285249746E+02  0.17568079642E+03  0.22825869590E+03  0.34134626375E+03  0.17225575448E+03 0.  0.
         24    2    5    5    0    0 -0.66477465852E+02  0.17804979431E+03  0.12941668788E+03  0.24227548411E+03  0.76339690727E+02 0.  0.
          5    1    5    5  501    0  0.41922161060E+01 -0.23689978903E+01  0.98842008022E+02  0.99070779631E+02  0.47000000000E+01 0. -1.
        -13    1    6    6    0    0 -0.24400954250E+02  0.65122590270E+02  0.60352851882E+01  0.69805322140E+02  0.00000000000E+00 0.  1.
         14    1    6    6    0    0 -0.42076511602E+02  0.11292720404E+03  0.12338140269E+03  0.17247016197E+03  0.00000000000E+00 0. -1.
         -5    1    3    3    0  503  0.89201834638E+02 -0.12485108517E+03  0.24164068529E+03  0.28628145514E+03  0.47000000000E+01 0.  1.
         11    1    4    4    0    0  0.10906316033E+01  0.16512674026E+02  0.26258671091E+01  0.16755687358E+02  0.00000000000E+00 0. -1.
        -12    1    4    4    0    0 -0.28007216495E+02 -0.67342385279E+02  0.11759300442E+03  0.13837454867E+03  0.00000000000E+00 0.  1.
</event>
<event>
12    1  0.1046899E+000  0.1918122E+03  0.7818608E-02  0.1156970E+00
         21   -1    0    0  503  502  0.00000000000E+00  0.00000000000E+00  0.11447824691E+03  0.11447824691E+03  0.00000000000E+00 0. -1.
         21   -1    0    0  501  503 -0.00000000000E+00 -0.00000000000E+00 -0.38233573267E+03  0.38233573267E+03  0.00000000000E+00 0. -1.
          6    2    1    2  501    0 -0.80907490472E+02 -0.23575011841E+02 -0.34114495514E+02  0.19482222819E+03  0.17230815011E+03 0.  0.
         24    2    3    3    0    0 -0.51857023041E+01 -0.44369744117E+02 -0.62454092313E+02  0.11120743978E+03  0.80442621253E+02 0.  0.
         -6    2    1    2    0  502  0.80907490472E+02  0.23575011841E+02 -0.23374299024E+03  0.30199175140E+03  0.17164331979E+03 0.  0.
        -24    2    5    5    0    0  0.79518108808E+02  0.52180495018E+02 -0.84546272678E+02  0.14999847990E+03  0.79407418162E+02 0.  0.
          5    1    3    3  501    0 -0.75721788167E+02  0.20794732276E+02  0.28339596800E+02  0.83614788408E+02  0.47000000000E+01 0. -1.
        -13    1    4    4    0    0  0.15728358565E+02 -0.30271955862E+02  0.91260362011E+01  0.35313695808E+02  0.00000000000E+00 0.  1.
         14    1    4    4    0    0 -0.20914060869E+02 -0.14097788254E+02 -0.71580128515E+02  0.75893743970E+02  0.00000000000E+00 0. -1.
         -5    1    5    5    0  502  0.13893816631E+01 -0.28605483177E+02 -0.14919671756E+03  0.15199327150E+03  0.47000000000E+01 0.  1.
         11    1    6    6    0    0  0.89865392431E+02  0.61250773172E+02 -0.67136201702E+02  0.12780733762E+03  0.00000000000E+00 0. -1.
        -12    1    6    6    0    0 -0.10347283622E+02 -0.90702781541E+01 -0.17410070976E+02  0.22191142276E+02  0.00000000000E+00 0.  1.
</event>
<event>
12    1  0.1046899E+000  0.1861555E+03  0.7818608E-02  0.1162017E+00
         21   -1    0    0  501  502  0.00000000000E+00  0.00000000000E+00  0.42147150653E+03  0.42147150653E+03  0.00000000000E+00 0.  1.
         21   -1    0    0  502  503 -0.00000000000E+00 -0.00000000000E+00 -0.15149446497E+03  0.15149446497E+03  0.00000000000E+00 0.  1.
         -6    2    1    2    0  503 -0.27664775403E+02  0.65030443118E+02  0.32878741502E+03  0.37774170974E+03  0.17202713935E+03 0.  0.
        -24    2    3    3    0    0  0.67748089809E+01  0.70666632137E+02  0.32585761200E+03  0.34240723161E+03  0.77587744031E+02 0.  0.
          6    2    1    2  501    0  0.27664775403E+02 -0.65030443118E+02 -0.58810373461E+02  0.19522426176E+03  0.17221949373E+03 0.  0.
         24    2    5    5    0    0  0.52919348004E+02 -0.90963590245E+01 -0.88677493801E+02  0.12680971595E+03  0.73032903621E+02 0.  0.
          5    1    5    5  501    0 -0.25254572600E+02 -0.55934084094E+02  0.29867120340E+02  0.68414545808E+02  0.47000000000E+01 0. -1.
        -13    1    6    6    0    0 -0.10367719605E+02  0.10485243720E+02  0.16013573839E+01  0.14832204528E+02  0.00000000000E+00 0.  1.
         14    1    6    6    0    0  0.63287067609E+02 -0.19581602745E+02 -0.90278851185E+02  0.11197751142E+03  0.00000000000E+00 0. -1.
         -5    1    3    3    0  503 -0.34439584384E+02 -0.56361890190E+01  0.29298030161E+01  0.35334478133E+02  0.47000000000E+01 0.  1.
         11    1    4    4    0    0  0.29746326879E+01  0.77252916208E+02  0.17450171343E+03  0.19086044507E+03  0.00000000000E+00 0. -1.
        -12    1    4    4    0    0  0.38001762929E+01 -0.65862840701E+01  0.15135589857E+03  0.15154678654E+03  0.00000000000E+00 0.  1.
</event>
<event>
12    1  0.1046899E+000  0.2364376E+03  0.7818608E-02  0.1124445E+00
         21   -1    0    0  503  502  0.00000000000E+00  0.00000000000E+00  0.54217840486E+02  0.54217840486E+02  0.00000000000E+00 0.  1.
         21   -1    0    0  501  503 -0.00000000000E+00 -0.00000000000E+00 -0.98419450206E+03  0.98419450206E+03  0.00000000000E+00 0.  1.
          6    2    1    2  501    0  0.79955822593E+02 -0.11895302184E+03 -0.42944214929E+03  0.49022781933E+03  0.18804254915E+03 0.  0.
         24    2    3    3    0    0  0.20192944829E+02  0.14462066557E+02 -0.17713106885E+03  0.19858735801E+03  0.86282192940E+02 0.  0.
         -6    2    1    2    0  502 -0.79955822593E+02  0.11895302184E+03 -0.50053451229E+03  0.54818452321E+03  0.17154800648E+03 0.  0.
        -24    2    5    5    0    0 -0.80443223514E+00  0.67086646107E+02 -0.13327029159E+03  0.16889550237E+03  0.79141992034E+02 0.  0.
          5    1    3    3  501    0  0.59762877764E+02 -0.13341508840E+03 -0.25231108043E+03  0.29164046132E+03  0.47000000000E+01 0. -1.
        -13    1    4    4    0    0 -0.31328313986E+02  0.15571604260E+02 -0.46746020725E+02  0.58387743321E+02  0.00000000000E+00 0.  1.
         14    1    4    4    0    0  0.51521258815E+02 -0.11095377023E+01 -0.13038504813E+03  0.14019961469E+03  0.00000000000E+00 0. -1.
         -5    1    5    5    0  502 -0.79151390358E+02  0.51866375734E+02 -0.36726422070E+03  0.37928902085E+03  0.47000000000E+01 0.  1.
         13    1    6    6    0    0 -0.27560599156E+02  0.68606162770E+02 -0.78011796093E+02  0.10748131245E+03  0.00000000000E+00 0. -1.
        -14    1    6    6    0    0  0.26756166921E+02 -0.15195166633E+01 -0.55258495492E+02  0.61414189918E+02  0.00000000000E+00 0.  1.
</event>
<event>
12    1  0.1046899E+000  0.1792292E+03  0.7818608E-02  0.1168627E+00
         21   -1    0    0  501  502  0.00000000000E+00  0.00000000000E+00  0.99862589630E+03  0.99862589630E+03  0.00000000000E+00 0.  1.
         21   -1    0    0  502  503 -0.00000000000E+00 -0.00000000000E+00 -0.35135244408E+02  0.35135244408E+02  0.00000000000E+00 0.  1.
         -6    2    1    2    0  503 -0.25842423990E+02 -0.42603730612E+02  0.63376894217E+03  0.65862445644E+03  0.17216327664E+03 0.  0.
        -24    2    3    3    0    0  0.38144682245E+02 -0.66047645651E+02  0.35551811549E+03  0.37211166535E+03  0.79099006070E+02 0.  0.
          6    2    1    2  501    0  0.25842423990E+02  0.42603730612E+02  0.32972170972E+03  0.37513668426E+03  0.17183776442E+03 0.  0.
         24    2    5    5    0    0  0.81134825411E+02  0.40930088220E+02  0.25477175341E+03  0.28186484133E+03  0.79252825971E+02 0.  0.
          5    1    5    5  501    0 -0.55292401421E+02  0.16736423924E+01  0.74949956307E+02  0.93271842933E+02  0.47000000000E+01 0. -1.
        -11    1    6    6    0    0  0.13339519489E+02  0.43904929408E+02  0.59507042719E+02  0.75144352679E+02  0.00000000000E+00 0.  1.
         12    1    6    6    0    0  0.67795305922E+02 -0.29748411880E+01  0.19526471069E+03  0.20672048865E+03  0.00000000000E+00 0. -1.
         -5    1    3    3    0  503 -0.63987106235E+02  0.23443915039E+02  0.27825082667E+03  0.28651279110E+03  0.47000000000E+01 0.  1.
         11    1    4    4    0    0 -0.16870572556E+02 -0.38541943258E+02  0.87000842812E+02  0.96639765410E+02  0.00000000000E+00 0. -1.
        -12    1    4    4    0    0  0.55015254801E+02 -0.27505702393E+02  0.26851727268E+03  0.27547189994E+03  0.00000000000E+00 0.  1.
</event>
<event>
12    1  0.1046899E+000  0.2011098E+03  0.7818608E-02  0.1148853E+00
         21   -1    0    0  501  502  0.00000000000E+00  0.00000000000E+00  0.35208298631E+02  0.35208298631E+02  0.00000000000E+00 0. -1.
         21   -1    0    0  502  503 -0.00000000000E+00 -0.00000000000E+00 -0.11483524047E+04  0.11483524047E+04  0.00000000000E+00 0. -1.
         -6    2    1    2    0  503 -0.10180285628E+03  0.21230021722E+02 -0.57331574562E+03  0.60756571962E+03  0.17213548187E+03 0.  0.
        -24    2    3    3    0    0 -0.28882306890E+02 -0.80918814663E+01 -0.11949542086E+03  0.14696593923E+03  0.80125935199E+02 0.  0.
          6    2    1    2  501    0  0.10180285628E+03 -0.21230021722E+02 -0.53982836047E+03  0.57599498373E+03  0.17187503351E+03 0.  0.
         24    2    5    5    0    0  0.48887540620E+02  0.48747215467E+02 -0.37920073932E+03  0.39290984770E+03  0.76280174879E+02 0.  0.
          5    1    5    5  501    0  0.52915315660E+02 -0.69977237189E+02 -0.16062762115E+03  0.18308513603E+03  0.47000000000E+01 0. -1.
        -13    1    6    6    0    0  0.55231582426E+02  0.44168330044E+02 -0.17767445498E+03  0.19123174692E+03  0.00000000000E+00 0.  1.
         14    1    6    6    0    0 -0.63440418065E+01  0.45788854229E+01 -0.20152628434E+03  0.20167810079E+03  0.00000000000E+00 0. -1.
         -5    1    3    3    0  503 -0.72920549390E+02  0.29321903189E+02 -0.45382032476E+03  0.46059978039E+03  0.47000000000E+01 0.  1.
         11    1    4    4    0    0 -0.26756277783E+01 -0.41187602303E+02 -0.75158543043E+02  0.85746044573E+02  0.00000000000E+00 0. -1.
        -12    1    4    4    0    0 -0.26206679112E+02  0.33095720837E+02 -0.44336877817E+02  0.61219894661E+02  0.00000000000E+00 0.  1.
</event>
<event>
12    1  0.1046899E+000  0.3818331E+03  0.7818608E-02  0.1050535E+00
         21   -1    0    0  501  502  0.00000000000E+00  0.00000000000E+00  0.16422619951E+03  0.16422619951E+03  0.00000000000E+00 0. -1.
         21   -1    0    0  502  503 -0.00000000000E+00 -0.00000000000E+00 -0.11611121870E+04  0.11611121870E+04  0.00000000000E+00 0. -1.
         -6    2    1    2    0  503  0.14205394378E+03  0.30489399560E+03 -0.82552909281E+03  0.90955745390E+03  0.18071194586E+03 0.  0.
        -24    2    3    3    0    0  0.96285464760E+02  0.23713736631E+03 -0.75599291383E+03  0.80211870544E+03  0.79775376060E+02 0.  0.
          6    2    1    2  501    0 -0.14205394378E+03 -0.30489399560E+03 -0.17135689472E+03  0.41578093264E+03  0.17427256549E+03 0.  0.
         24    2    5    5    0    0 -0.81229410054E+02 -0.29594456295E+03 -0.14294474278E+03  0.34789089931E+03  0.80084186555E+02 0.  0.
          5    1    5    5  501    0 -0.60824533726E+02 -0.89494326465E+01 -0.28412151937E+02  0.67890033328E+02  0.47000000000E+01 0. -1.
        -13    1    6    6    0    0 -0.52856364690E+02 -0.18937982965E+03 -0.48046704584E+02  0.20240306566E+03  0.00000000000E+00 0.  1.
         14    1    6    6    0    0 -0.28373045363E+02 -0.10656473330E+03 -0.94898038199E+02  0.14548783365E+03  0.00000000000E+00 0. -1.
         -5    1    3    3    0  503  0.45768479020E+02  0.67756629290E+02 -0.69536178976E+02  0.10743874846E+03  0.47000000000E+01 0.  1.
         11    1    4    4    0    0  0.18039738365E+02  0.14208966953E+01 -0.77863331016E+02  0.79938410195E+02  0.00000000000E+00 0. -1.
        -12    1    4    4    0    0  0.78245726395E+02  0.23571646961E+03 -0.67812958281E+03  0.72218029524E+03  0.00000000000E+00 0.  1.
</event>
<event>
12    1  0.1046899E+000  0.2442166E+03  0.7818608E-02  0.1117079E+00
         21   -1    0    0  501  502  0.00000000000E+00  0.00000000000E+00  0.42723814610E+03  0.42723814610E+03  0.00000000000E+00 0.  1.
         21   -1    0    0  502  503 -0.00000000000E+00 -0.00000000000E+00 -0.19770166089E+03  0.19770166089E+03  0.00000000000E+00 0.  1.
         -6    2    1    2    0  503 -0.24175169138E+02  0.17173754598E+03 -0.55017305490E+02  0.24995635328E+03  0.17138567950E+03 0.  0.
        -24    2    3    3    0    0  0.48488312998E+02  0.65268520221E+02 -0.42624614555E+02  0.12037508970E+03  0.77860183822E+02 0.  0.
          6    2    1    2  501    0  0.24175169138E+02 -0.17173754598E+03  0.28455379070E+03  0.37498345372E+03  0.17194041776E+03 0.  0.
         24    2    5    5    0    0  0.53506629582E+02 -0.12437960251E+03  0.27676121254E+03  0.31853946683E+03  0.80854055132E+02 0.  0.
          5    1    5    5  501    0 -0.29331460444E+02 -0.47357943469E+02  0.77925781555E+01  0.56443986887E+02  0.47000000000E+01 0. -1.
        -13    1    6    6    0    0  0.25729917317E+02  0.42171405650E+01  0.42365849876E+02  0.49746137090E+02  0.00000000000E+00 0.  1.
         14    1    6    6    0    0  0.27776712265E+02 -0.12859674307E+03  0.23439536266E+03  0.26879332974E+03  0.00000000000E+00 0. -1.
         -5    1    3    3    0  503 -0.72663482136E+02  0.10646902576E+03 -0.12392690936E+02  0.12958126358E+03  0.47000000000E+01 0.  1.
         11    1    4    4    0    0  0.14650399847E+02  0.75139223411E+02 -0.22526563844E+02  0.79799644042E+02  0.00000000000E+00 0. -1.
        -12    1    4    4    0    0  0.33837913151E+02 -0.98707031907E+01 -0.20098050711E+02  0.40575445657E+02  0.00000000000E+00 0.  1.
</event>
<event>
12    1  0.1046899E+000  0.1773458E+03  0.7818608E-02  0.1171078E+00
         21   -1    0    0  501  502  0.00000000000E+00  0.00000000000E+00  0.12937317700E+03  0.12937317700E+03  0.00000000000E+00 0. -1.
         21   -1    0    0  502  503 -0.00000000000E+00 -0.00000000000E+00 -0.25519179183E+03  0.25519179183E+03  0.00000000000E+00 0. -1.
         -6    2    1    2    0  503 -0.70787592452E+01 -0.30763491567E+02 -0.15485458596E+02  0.17802058440E+03  0.17451368942E+03 0.  0.
        -24    2    3    3    0    0 -0.36168368395E+02  0.13134426924E+02 -0.60543898995E+02  0.10855414891E+03  0.81472544439E+02 0.  0.
          6    2    1    2  501    0  0.70787592452E+01  0.30763491567E+02 -0.11033315623E+03  0.20654438442E+03  0.17172849538E+03 0.  0.
         24    2    5    5    0    0 -0.37795965016E+02 -0.18493408888E+02 -0.19476234213E+02  0.93774470886E+02  0.81509426124E+02 0.  0.
          5    1    5    5  501    0  0.44874724261E+02  0.49256900455E+02 -0.90856922020E+02  0.11276991354E+03  0.47000000000E+01 0. -1.
        -11    1    6    6    0    0  0.14612089666E+02 -0.15447382498E+02 -0.33280478309E+02  0.39493354212E+02  0.00000000000E+00 0.  1.
         12    1    6    6    0    0 -0.52408054682E+02 -0.30460263900E+01  0.13804244096E+02  0.54281116674E+02  0.00000000000E+00 0. -1.
         -5    1    3    3    0  503  0.29089609150E+02 -0.43897918491E+02  0.45058440399E+02  0.69466435489E+02  0.47000000000E+01 0.  1.
         11    1    4    4    0    0  0.23248527889E+02 -0.77198382691E+01 -0.29507209967E+02  0.38350559213E+02  0.00000000000E+00 0. -1.
        -12    1    4    4    0    0 -0.59416896284E+02  0.20854265193E+02 -0.31036689028E+02  0.70203589699E+02  0.00000000000E+00 0.  1.
</event>
<event>
12    1  0.1046899E+000  0.2375112E+03  0.7818608E-02  0.1122154E+00
         21   -1    0    0  501  502  0.00000000000E+00  0.00000000000E+00  0.42664859995E+03  0.42664859995E+03  0.00000000000E+00 0. -1.
         21   -1    0    0  502  503 -0.00000000000E+00 -0.00000000000E+00 -0.16959057672E+03  0.16959057672E+03  0.00000000000E+00 0. -1.
         -6    2    1    2    0  503 -0.59920154888E+02  0.14687351150E+03 -0.14716174915E+02  0.23796666500E+03  0.17677475641E+03 0.  0.
        -24    2    3    3    0    0 -0.21649167466E+02  0.11002046240E+02  0.30906292818E+02  0.89544216852E+02  0.80456425240E+02 0.  0.
          6    2    1    2  501    0  0.59920154888E+02 -0.14687351150E+03  0.27177419815E+03  0.35827251168E+03  0.17127674828E+03 0.  0.
         24    2    5    5    0    0  0.17180621451E+02  0.10828689668E+02  0.66510125839E+02  0.95875710335E+02  0.66000914537E+02 0.  0.
          5    1    5    5  501    0  0.42739533436E+02 -0.15770220117E+03  0.20526407231E+03  0.26239680134E+03  0.47000000000E+01 0. -1.
        -11    1    6    6    0    0  0.18484994331E+02 -0.97178325564E+01 -0.49890793571E+01  0.21471427476E+02  0.00000000000E+00 0.  1.
         12    1    6    6    0    0 -0.13043728797E+01  0.20546522225E+02  0.71499205196E+02  0.74404282859E+02  0.00000000000E+00 0. -1.
         -5    1    3    3    0  503 -0.38270987421E+02  0.13587146526E+03 -0.45622467733E+02  0.14842244814E+03  0.47000000000E+01 0.  1.
         11    1    4    4    0    0 -0.49543570292E+02  0.16629960760E+02  0.31615071040E+02  0.61078913456E+02  0.00000000000E+00 0. -1.
        -12    1    4    4    0    0  0.27894402826E+02 -0.56279145192E+01 -0.70877822163E+00  0.28465303396E+02  0.00000000000E+00 0.  1.
</event>
<event>
12    1  0.1046899E+000  0.2065106E+03  0.7818608E-02  0.1144652E+00
         21   -1    0    0  501  502  0.00000000000E+00  0.00000000000E+00  0.11942999188E+04  0.11942999188E+04  0.00000000000E+00 0. -1.
         21   -1    0    0  502  503 -0.00000000000E+00 -0.00000000000E+00 -0.45232052536E+02  0.45232052536E+02  0.00000000000E+00 0. -1.
         -6    2    1    2    0  503 -0.43885631125E+02  0.10471505597E+03  0.28488451744E+03  0.35101663734E+03  0.17076972755E+03 0.  0.
        -24    2    3    3    0    0  0.30698317948E+02  0.57884246874E+02  0.82286096303E+02  0.13005487507E+03  0.76487228494E+02 0.  0.
          6    2    1    2  501    0  0.43885631125E+02 -0.10471505597E+03  0.86418334885E+03  0.88851533402E+03  0.17249767186E+03 0.  0.
         24    2    5    5    0    0  0.40634832198E+01 -0.11823666886E+03  0.79123897600E+03  0.80418497763E+03  0.81596196878E+02 0.  0.
          5    1    5    5  501    0  0.39822147905E+02  0.13521612890E+02  0.72944372846E+02  0.84330356390E+02  0.47000000000E+01 0. -1.
        -13    1    6    6    0    0  0.23566737261E+02 -0.62595009708E+02  0.22082583854E+03  0.23073269667E+03  0.00000000000E+00 0.  1.
         14    1    6    6    0    0 -0.19503254041E+02 -0.55641659148E+02  0.57041313746E+03  0.57345228096E+03  0.00000000000E+00 0. -1.
         -5    1    3    3    0  503 -0.74583949073E+02  0.46830809092E+02  0.20259842113E+03  0.22096176227E+03  0.47000000000E+01 0.  1.
         13    1    4    4    0    0  0.49450743311E+02  0.12092776378E+02  0.36516331867E+02  0.62650249382E+02  0.00000000000E+00 0. -1.
        -14    1    4    4    0    0 -0.18752425363E+02  0.45791470495E+02  0.45769764436E+02  0.67404625684E+02  0.00000000000E+00 0.  1.
</event>
<event>
12    1  0.1046899E+000  0.2189904E+03  0.7818608E-02  0.1134679E+00
         21   -1    0    0  503  502  0.00000000000E+00  0.00000000000E+00  0.22668297640E+03  0.22668297640E+03  0.00000000000E+00 0. -1.
         21   -1    0    0  501  503 -0.00000000000E+00 -0.00000000000E+00 -0.21171453191E+03  0.21171453191E+03  0.00000000000E+00 0. -1.
          6    2    1    2  501    0 -0.52510835119E+02  0.12534738784E+03  0.16625822373E+02  0.21962060543E+03  0.17171906394E+03 0.  0.
         24    2    3    3    0    0 -0.75057096173E+02  0.39731324497E+02 -0.28742396895E+02  0.12002738524E+03  0.79801641559E+02 0.  0.
         -6    2    1    2    0  502  0.52510835119E+02 -0.12534738784E+03 -0.16573778826E+01  0.21877690288E+03  0.17143870884E+03 0.  0.
        -24    2    5    5    0    0  0.10016920588E+03 -0.70774255795E+02  0.80610752831E+01  0.14552333384E+03  0.77905036217E+02 0.  0.
          5    1    3    3  501    0  0.22546261054E+02  0.85616063341E+02  0.45368219268E+02  0.99593220196E+02  0.47000000000E+01 0. -1.
        -11    1    4    4    0    0 -0.82679857706E+02  0.27659091970E+02  0.83135887802E+00  0.87187587399E+02  0.00000000000E+00 0.  1.
         12    1    4    4    0    0  0.76227615331E+01  0.12072232527E+02 -0.29573755773E+02  0.32839797839E+02  0.00000000000E+00 0. -1.
         -5    1    5    5    0  502 -0.47658370760E+02 -0.54573132043E+02 -0.97184531656E+01  0.73253569035E+02  0.47000000000E+01 0.  1.
         13    1    6    6    0    0  0.53941296122E+02 -0.66071299192E+02 -0.24548048113E+02  0.88756333129E+02  0.00000000000E+00 0. -1.
        -14    1    6    6    0    0  0.46227909756E+02 -0.47029566024E+01  0.32609123396E+02  0.56767000713E+02  0.00000000000E+00 0.  1.
</event>
<event>
12    1  0.1046899E+000  0.2165575E+03  0.7818608E-02  0.1136520E+00
         21   -1    0    0  503  502  0.00000000000E+00  0.00000000000E+00  0.30572431533E+03  0.30572431533E+03  0.00000000000E+00 0.  1.
         21   -1    0    0  501  503 -0.00000000000E+00 -0.00000000000E+00 -0.16511953115E+03  0.16511953115E+03  0.00000000000E+00 0.  1.
          6    2    1    2  501    0  0.11208867688E+03  0.68571062681E+02  0.70996219429E+01  0.21644101891E+03  0.17184425482E+03 0.  0.
         24    2    3    3    0    0  0.57825877210E+02 -0.18647935848E+02  0.42025988150E+02  0.10784292413E+03  0.78564209532E+02 0.  0.
         -6    2    1    2    0  502 -0.11208867688E+03 -0.68571062681E+02  0.13350516224E+03  0.25440282758E+03  0.17213746894E+03 0.  0.
        -24    2    5    5    0    0 -0.14505420159E+03 -0.70000603308E+02  0.90232366790E+02  0.19978237141E+03  0.76356466960E+02 0.  0.
          5    1    3    3  501    0  0.54262799668E+02  0.87218998530E+02 -0.34926366207E+02  0.10859809477E+03  0.47000000000E+01 0. -1.
        -13    1    4    4    0    0 -0.11035990825E+02 -0.44599983321E+01 -0.13685483081E+02  0.18137726588E+02  0.00000000000E+00 0.  1.
         14    1    4    4    0    0  0.68861868035E+02 -0.14187937516E+02  0.55711471230E+02  0.89705197546E+02  0.00000000000E+00 0. -1.
         -5    1    5    5    0  502  0.32965524714E+02  0.14295406263E+01  0.43272795450E+02  0.54620456169E+02  0.47000000000E+01 0.  1.
         13    1    6    6    0    0 -0.22566660762E+02 -0.46790438666E+02  0.39181102003E+02  0.65067334989E+02  0.00000000000E+00 0. -1.
        -14    1    6    6    0    0 -0.12248754083E+03 -0.23210164642E+02  0.51051264787E+02  0.13471503642E+03  0.00000000000E+00 0.  1.
</event>
<event>
12    1  0.1425616E+000  0.8195435E+03  0.7818608E-02  0.9532716E-01
         21   -1    0    0  501  502  0.00000000000E+00  0.00000000000E+00  0.92528423205E+03  0.92528423205E+03  0.00000000000E+00 0. -1.
         21   -1    0    0  502  503 -0.00000000000E+00 -0.00000000000E+00 -0.76773684118E+03  0.76773684118E+03  0.00000000000E+00 0. -1.
         -6    2    1    2    0  503  0.51111601762E+03 -0.61728638265E+03  0.27966805726E+03  0.86442892061E+03  0.16352698514E+03 0.  0.
        -24    2    3    3    0    0  0.22155590087E+03 -0.20911517338E+03  0.75860431612E+02  0.32405087187E+03  0.80237083257E+02 0.  0.
          6    2    1    2  501    0 -0.51111601762E+03  0.61728638265E+03 -0.12212066639E+03  0.82859215261E+03  0.17137513397E+03 0.  0.
         24    2    5    5    0    0 -0.46772161737E+03  0.58836653835E+03 -0.77156620726E+02  0.75957558381E+03  0.77866736097E+02 0.  0.
          5    1    5    5  501    0 -0.43394400241E+02  0.28919844302E+02 -0.44964045666E+02  0.69016568803E+02  0.47000000000E+01 0. -1.
        -13    1    6    6    0    0 -0.30007126625E+03  0.36742933134E+03 -0.85841605732E+02  0.48209528066E+03  0.00000000000E+00 0.  1.
         14    1    6    6    0    0 -0.16765035113E+03  0.22093720700E+03  0.86849850058E+01  0.27748030315E+03  0.00000000000E+00 0. -1.
         -5    1    3    3    0  503  0.28956011675E+03 -0.40817120927E+03  0.20380762565E+03  0.54037804874E+03  0.47000000000E+01 0.  1.
         13    1    4    4    0    0  0.13450994278E+02 -0.40524089669E+02  0.30350902378E+02  0.52386146697E+02  0.00000000000E+00 0. -1.
        -14    1    4    4    0    0  0.20810490659E+03 -0.16859108371E+03  0.45509529235E+02  0.27166472517E+03  0.00000000000E+00 0.  1.
</event>
<event>
12    1  0.1046899E+000  0.1902415E+03  0.7818608E-02  0.1158331E+00
         21   -1    0    0  503  502  0.00000000000E+00  0.00000000000E+00  0.30614961669E+02  0.30614961669E+02  0.00000000000E+00 0.  1.
         21   -1    0    0  501  503 -0.00000000000E+00 -0.00000000000E+00 -0.12380775426E+04  0.12380775426E+04  0.00000000000E+00 0.  1.
          6    2    1    2  501    0 -0.24858733355E+02  0.78782988967E+02 -0.46663441061E+03  0.50392410340E+03  0.17136835429E+03 0.  0.
         24    2    3    3    0    0 -0.48527607200E+02  0.38373697113E+02 -0.12838181240E+03  0.16241270293E+03  0.77900751138E+02 0.  0.
         -6    2    1    2    0  502  0.24858733355E+02 -0.78782988967E+02 -0.74082817032E+03  0.76476840087E+03  0.17093745360E+03 0.  0.
        -24    2    5    5    0    0  0.50858346734E+02 -0.10383691145E+03 -0.67577848547E+03  0.69022156708E+03  0.79753210792E+02 0.  0.
          5    1    3    3  501    0  0.23668873845E+02  0.40409291854E+02 -0.33825259821E+03  0.34151140047E+03  0.47000000000E+01 0. -1.
        -13    1    4    4    0    0 -0.10704855689E+02 -0.15986571839E+02 -0.15120452042E+01  0.19298981714E+02  0.00000000000E+00 0.  1.
         14    1    4    4    0    0 -0.37822751511E+02  0.54360268952E+02 -0.12686976720E+03  0.14311372122E+03  0.00000000000E+00 0. -1.
         -5    1    5    5    0  502 -0.25999613379E+02  0.25053922481E+02 -0.65049684854E+02  0.74546833783E+02  0.47000000000E+01 0.  1.
         13    1    6    6    0    0 -0.19824417048E+02 -0.32048428890E+02 -0.24063689572E+03  0.24356975364E+03  0.00000000000E+00 0. -1.
        -14    1    6    6    0    0  0.70682763782E+02 -0.71788482558E+02 -0.43514158975E+03  0.44665181344E+03  0.00000000000E+00 0.  1.
</event>
<event>
12    1  0.1046899E+000  0.1864026E+03  0.7818608E-02  0.1162658E+00
         21   -1    0    0  503  502  0.00000000000E+00  0.00000000000E+00  0.93994974072E+02  0.93994974072E+02  0.00000000000E+00 0.  1.
         21   -1    0    0  501  503 -0.00000000000E+00 -0.00000000000E+00 -0.60355139867E+03  0.60355139867E+03  0.00000000000E+00 0.  1.
          6    2    1    2  501    0  0.26136122878E+02  0.56532592520E+02 -0.47704447061E+03  0.51216927785E+03  0.17568981558E+03 0.  0.
         24    2    3    3    0    0 -0.39201532710E+02  0.69199769546E+02 -0.36393844139E+03  0.38085084633E+03  0.79188444592E+02 0.  0.
         -6    2    1    2    0  502 -0.26136122878E+02 -0.56532592520E+02 -0.32511953983E+02  0.18537709489E+03  0.17154768789E+03 0.  0.
        -24    2    5    5    0    0 -0.74968638626E+02 -0.30615864919E+02 -0.54990694616E+02  0.12551328992E+03  0.78561959568E+02 0.  0.
          5    1    3    3  501    0  0.65337655588E+02 -0.12667177026E+02 -0.11310602922E+03  0.13131843153E+03  0.47000000000E+01 0. -1.
        -13    1    4    4    0    0 -0.21714506645E+02 -0.12382074213E+02 -0.13238070059E+03  0.13472002616E+03  0.00000000000E+00 0.  1.
         14    1    4    4    0    0 -0.17487026065E+02  0.81581843759E+02 -0.23155774080E+03  0.24613082016E+03  0.00000000000E+00 0. -1.
         -5    1    5    5    0  502  0.48832515749E+02 -0.25916727601E+02  0.22478740633E+02  0.59863804960E+02  0.47000000000E+01 0.  1.
         11    1    6    6    0    0 -0.99308914037E+01  0.24295627755E+02 -0.47493237410E+01  0.26673136450E+02  0.00000000000E+00 0. -1.
        -12    1    6    6    0    0 -0.65037747223E+02 -0.54911492674E+02 -0.50241370875E+02  0.98840153475E+02  0.00000000000E+00 0.  1.
</event>
<event>
12    1  0.1046899E+000  0.1881164E+03  0.7818608E-02  0.1160324E+00
         21   -1    0    0  501  502  0.00000000000E+00  0.00000000000E+00  0.46488595344E+02  0.46488595344E+02  0.00000000000E+00 0. -1.
         21   -1    0    0  502  503 -0.00000000000E+00 -0.00000000000E+00 -0.82093920471E+03  0.82093920471E+03  0.00000000000E+00 0. -1.
         -6    2    1    2    0  503 -0.17636461236E+02 -0.72390947011E+02 -0.26699770398E+03  0.32622892890E+03  0.17200594801E+03 0.  0.
        -24    2    3    3    0    0 -0.61818766038E+01  0.27061822406E+02 -0.15877454274E+03  0.17872840863E+03  0.77226490254E+02 0.  0.
          6    2    1    2  501    0  0.17636461236E+02  0.72390947011E+02 -0.50745290539E+03  0.54119887115E+03  0.17273179492E+03 0.  0.
         24    2    5    5    0    0  0.72413120555E+02  0.38779957403E+02 -0.39693999826E+03  0.41327165094E+03  0.80526704449E+02 0.  0.
          5    1    5    5  501    0 -0.54776659319E+02  0.33610989608E+02 -0.11051290713E+03  0.12792722021E+03  0.47000000000E+01 0. -1.
        -13    1    6    6    0    0  0.36494636787E+01  0.41185772422E+02 -0.95288099694E+02  0.10387207699E+03  0.00000000000E+00 0.  1.
         14    1    6    6    0    0  0.68763656876E+02 -0.24058150187E+01 -0.30165189857E+03  0.30939957395E+03  0.00000000000E+00 0. -1.
         -5    1    3    3    0  503 -0.11454584632E+02 -0.99452769418E+02 -0.10822316124E+03  0.14750052028E+03  0.47000000000E+01 0.  1.
         11    1    4    4    0    0  0.32377459329E+02  0.28083155092E+02 -0.94550298309E+02  0.10381099355E+03  0.00000000000E+00 0. -1.
        -12    1    4    4    0    0 -0.38559335933E+02 -0.10213326860E+01 -0.64224244432E+02  0.74917415071E+02  0.00000000000E+00 0.  1.
</event>
<event>
12    1  0.1046899E+000  0.3184626E+03  0.7818608E-02  0.1076360E+00
         21   -1    0    0  503  502  0.00000000000E+00  0.00000000000E+00  0.83169879831E+02  0.83169879831E+02  0.00000000000E+00 0.  1.
         21   -1    0    0  501  503 -0.00000000000E+00 -0.00000000000E+00 -0.14515200131E+04  0.14515200131E+04  0.00000000000E+00 0.  1.
          6    2    1    2  501    0  0.16309947114E+03 -0.21249397405E+03 -0.37729525278E+03  0.49372485717E+03  0.17221324083E+03 0.  0.
         24    2    3    3    0    0  0.50427033235E+02 -0.36648435811E+02 -0.13495037292E+03  0.17377195067E+03  0.89994967409E+02 0.  0.
         -6    2    1    2    0  502 -0.16309947114E+03  0.21249397405E+03 -0.99105488047E+03  0.10409650357E+04  0.17223037784E+03 0.  0.
        -24    2    5    5    0    0 -0.15819088945E+03  0.21079073585E+03 -0.99534127202E+03  0.10327517327E+04  0.80092457501E+02 0.  0.
          5    1    3    3  501    0  0.11267243791E+03 -0.17584553824E+03 -0.24234487986E+03  0.31995290650E+03  0.47000000000E+01 0. -1.
        -11    1    4    4    0    0  0.19778225266E+02 -0.77137444417E+01 -0.12955021856E+03  0.13127809862E+03  0.00000000000E+00 0.  1.
         12    1    4    4    0    0  0.30648807968E+02 -0.28934691369E+02 -0.54001543569E+01  0.42493852045E+02  0.00000000000E+00 0. -1.
         -5    1    5    5    0  502 -0.49085816947E+01  0.17032381954E+01  0.42863915543E+01  0.82133030603E+01  0.47000000000E+01 0.  1.
         13    1    6    6    0    0  0.53239266622E+01  0.64186591632E+01 -0.88576093601E+02  0.88967790453E+02  0.00000000000E+00 0. -1.
        -14    1    6    6    0    0 -0.16351481611E+03  0.20437207669E+03 -0.90676517842E+03  0.94378394223E+03  0.00000000000E+00 0.  1.
</event>
<event>
12    1  0.1046899E+000  0.2366260E+03  0.7818608E-02  0.1122105E+00
         21   -1    0    0  503  502  0.00000000000E+00  0.00000000000E+00  0.13886921145E+03  0.13886921145E+03  0.00000000000E+00 0. -1.
         21   -1    0    0  501  503 -0.00000000000E+00 -0.00000000000E+00 -0.42029071366E+03  0.42029071366E+03  0.00000000000E+00 0. -1.
          6    2    1    2  501    0  0.28694803260E+02  0.15922711819E+03 -0.19787933145E+03  0.30846081368E+03  0.17267071801E+03 0.  0.
         24    2    3    3    0    0  0.85909535311E+02  0.81915324162E+02 -0.11877451926E+03  0.18384018789E+03  0.74828201028E+02 0.  0.
         -6    2    1    2    0  502 -0.28694803260E+02 -0.15922711819E+03 -0.83542170770E+02  0.25069911143E+03  0.17231971238E+03 0.  0.
        -24    2    5    5    0    0 -0.23306818026E+02 -0.72097677840E+02  0.22505406821E+02  0.11326276808E+03  0.81121380541E+02 0.  0.
          5    1    3    3  501    0 -0.57214732051E+02  0.77311794029E+02 -0.79104812190E+02  0.12462062579E+03  0.47000000000E+01 0. -1.
        -11    1    4    4    0    0  0.71101160041E+02  0.17711538474E+02 -0.74250605337E+02  0.10431790809E+03  0.00000000000E+00 0.  1.
         12    1    4    4    0    0  0.14808375270E+02  0.64203785688E+02 -0.44523913920E+02  0.79522279806E+02  0.00000000000E+00 0. -1.
         -5    1    5    5    0  502 -0.53879852348E+01 -0.87129440351E+02 -0.10604757759E+03  0.13743634335E+03  0.47000000000E+01 0.  1.
         11    1    6    6    0    0 -0.53248006373E+02 -0.54874607235E+02  0.15459641088E+02  0.78010083992E+02  0.00000000000E+00 0. -1.
        -12    1    6    6    0    0  0.29941188348E+02 -0.17223070605E+02  0.70457657324E+01  0.35252684089E+02  0.00000000000E+00 0.  1.
</event>
<event>
12    1  0.1046899E+000  0.2010389E+03  0.7818608E-02  0.1148966E+00
         21   -1    0    0  501  502  0.00000000000E+00  0.00000000000E+00  0.46475683902E+02  0.46475683902E+02  0.00000000000E+00 0. -1.
         21   -1    0    0  502  503 -0.00000000000E+00 -0.00000000000E+00 -0.87048210417E+03  0.87048210417E+03  0.00000000000E+00 0. -1.
         -6    2    1    2    0  503  0.81792661074E+02 -0.62700776296E+02 -0.38495441771E+03  0.43406723155E+03  0.17205531389E+03 0.  0.
        -24    2    3    3    0    0  0.14127275325E+02 -0.84230951688E+02 -0.15903710653E+03  0.19720677818E+03  0.79393192251E+02 0.  0.
          6    2    1    2  501    0 -0.81792661074E+02  0.62700776296E+02 -0.43905200255E+03  0.48289055651E+03  0.17261286705E+03 0.  0.
         24    2    5    5    0    0  0.12026837911E+02  0.18087459921E+02 -0.10760150069E+03  0.13550896291E+03  0.79453099641E+02 0.  0.
          5    1    5    5  501    0 -0.93819498985E+02  0.44613316375E+02 -0.33145050187E+03  0.34738159360E+03  0.47000000000E+01 0. -1.
        -13    1    6    6    0    0  0.32714923774E+01  0.44934586966E+02 -0.93841200799E+02  0.10409606494E+03  0.00000000000E+00 0.  1.
         14    1    6    6    0    0  0.87553455337E+01 -0.26847127045E+02 -0.13760299886E+02  0.31412897971E+02  0.00000000000E+00 0. -1.
         -5    1    3    3    0  503  0.67665385748E+02  0.21530175392E+02 -0.22591731119E+03  0.23686045338E+03  0.47000000000E+01 0.  1.
         11    1    4    4    0    0  0.17627961697E+02 -0.52275171315E+02 -0.15534323994E+03  0.16484829622E+03  0.00000000000E+00 0. -1.
        -12    1    4    4    0    0 -0.35006863713E+01 -0.31955780373E+02 -0.36938665830E+01  0.32358481958E+02  0.00000000000E+00 0.  1.
</event>
<event>
12    1  0.1046899E+000  0.2726491E+03  0.7818608E-02  0.1100191E+00
         21   -1    0    0  501  502  0.00000000000E+00  0.00000000000E+00  0.11906234903E+04  0.11906234903E+04  0.00000000000E+00 0.  1.
         21   -1    0    0  502  503 -0.00000000000E+00 -0.00000000000E+00 -0.81137748550E+02  0.81137748550E+02  0.00000000000E+00 0.  1.
         -6    2    1    2    0  503  0.92547229006E+02 -0.18549761082E+03  0.86316992765E+03  0.90432552288E+03  0.17253397958E+03 0.  0.
        -24    2    3    3    0    0  0.84146331698E+02 -0.37789430920E+02  0.47163674177E+03  0.48574625066E+03  0.70707549911E+02 0.  0.
          6    2    1    2  501    0 -0.92547229006E+02  0.18549761082E+03  0.24631581407E+03  0.36743571594E+03  0.17709650440E+03 0.  0.
         24    2    5    5    0    0 -0.11839608204E+03  0.18507867379E+03  0.17459974209E+03  0.29105755354E+03  0.77186020768E+02 0.  0.
          5    1    5    5  501    0  0.25848853037E+02  0.41893703663E+00  0.71716071979E+02  0.76378162401E+02  0.47000000000E+01 0. -1.
        -13    1    6    6    0    0 -0.19631164038E+02  0.89612893538E+01  0.48271469161E+02  0.52875533504E+02  0.00000000000E+00 0.  1.
         14    1    6    6    0    0 -0.98764918005E+02  0.17611738443E+03  0.12632827293E+03  0.23818202004E+03  0.00000000000E+00 0. -1.
         -5    1    3    3    0  503  0.84008973079E+01 -0.14770817990E+03  0.39153318588E+03  0.41857927222E+03  0.47000000000E+01 0.  1.
         13    1    4    4    0    0  0.77797149849E+02 -0.49566993830E+02  0.45567554714E+03  0.46491879685E+03  0.00000000000E+00 0. -1.
        -14    1    4    4    0    0  0.63491818490E+01  0.11777562910E+02  0.15961194634E+02  0.20827453814E+02  0.00000000000E+00 0.  1.
</event>
<event>
12    1  0.1046899E+000  0.2274301E+03  0.7818608E-02  0.1128693E+00
         21   -1    0    0  501  502  0.00000000000E+00  0.00000000000E+00  0.12464982234E+03  0.12464982234E+03  0.00000000000E+00 0.  1.
         21   -1    0    0  502  503 -0.00000000000E+00 -0.00000000000E+00 -0.46464073496E+03  0.46464073496E+03  0.00000000000E+00 0.  1.
         -6    2    1    2    0  503 -0.13780202691E+03  0.50817219192E+02 -0.70960152710E+02  0.23700939274E+03  0.17194859869E+03 0.  0.
        -24    2    3    3    0    0 -0.61603850628E+01  0.15334663269E+02 -0.44241183295E+00  0.83440595717E+02  0.81786521161E+02 0.  0.
          6    2    1    2  501    0  0.13780202691E+03 -0.50817219192E+02 -0.26903075990E+03  0.35228116456E+03  0.17364527273E+03 0.  0.
         24    2    5    5    0    0  0.13751229360E+03 -0.73076156252E+02 -0.14850414096E+03  0.22962595636E+03  0.80155127393E+02 0.  0.
          5    1    5    5  501    0  0.28973330416E+00  0.22258937060E+02 -0.12052661895E+03  0.12265520820E+03  0.47000000000E+01 0. -1.
        -11    1    6    6    0    0  0.62840241225E+02  0.21210623220E+01 -0.86195452334E+02  0.10669138121E+03  0.00000000000E+00 0.  1.
         12    1    6    6    0    0  0.74672052377E+02 -0.75197218574E+02 -0.62308688623E+02  0.12293457514E+03  0.00000000000E+00 0. -1.
         -5    1    3    3    0  503 -0.13164164184E+03  0.35482555923E+02 -0.70517740877E+02  0.15356879703E+03  0.47000000000E+01 0.  1.
         13    1    4    4    0    0 -0.40813457980E+02  0.12185203317E+02  0.15288038557E+02  0.45254189365E+02  0.00000000000E+00 0. -1.
        -14    1    4    4    0    0  0.34653072917E+02  0.31494599520E+01 -0.15730450390E+02  0.38186406352E+02  0.00000000000E+00 0.  1.
</event>
<event>
12    1  0.1046899E+000  0.2360427E+03  0.7818608E-02  0.1122569E+00
         21   -1    0    0  501  502  0.00000000000E+00  0.00000000000E+00  0.17785794847E+03  0.17785794847E+03  0.00000000000E+00 0.  1.
         21   -1    0    0  502  503 -0.00000000000E+00 -0.00000000000E+00 -0.31473963936E+03  0.31473963936E+03  0.00000000000E+00 0.  1.
         -6    2    1    2    0  503 -0.16164346690E+03  0.11513233625E+02 -0.47067346041E+02  0.24004506812E+03  0.17071946206E+03 0.  0.
        -24    2    3    3    0    0 -0.14781137391E+03 -0.23330746717E+02  0.12278023183E+02  0.16969314838E+03  0.79072680204E+02 0.  0.
          6    2    1    2  501    0  0.16164346690E+03 -0.11513233625E+02 -0.89814344844E+02  0.25255251971E+03  0.17162457205E+03 0.  0.
         24    2    5    5    0    0  0.18844760810E+03  0.79846787264E+01 -0.79838466769E+02  0.21762060429E+03  0.73541080632E+02 0.  0.
          5    1    5    5  501    0 -0.26804141200E+02 -0.19497912352E+02 -0.99758780754E+01  0.34931915420E+02  0.47000000000E+01 0. -1.
        -13    1    6    6    0    0  0.37240066661E+02 -0.17912102222E+02 -0.43433408797E+02  0.59951038112E+02  0.00000000000E+00 0.  1.
         14    1    6    6    0    0  0.15120754144E+03  0.25896780948E+02 -0.36405057972E+02  0.15766956618E+03  0.00000000000E+00 0. -1.
         -5    1    3    3    0  503 -0.13832092991E+02  0.34843980343E+02 -0.59345369225E+02  0.70351919739E+02  0.47000000000E+01 0.  1.
         11    1    4    4    0    0 -0.64983395029E+01  0.10502427469E+02 -0.17448276427E+02  0.21376897561E+02  0.00000000000E+00 0. -1.
        -12    1    4    4    0    0 -0.14131303441E+03 -0.33833174186E+02  0.29726299611E+02  0.14831625082E+03  0.00000000000E+00 0.  1.
</event>
<event>
12    1  0.1046899E+000  0.1904252E+03  0.7818608E-02  0.1158476E+00
         21   -1    0    0  503  502  0.00000000000E+00  0.00000000000E+00  0.13794773019E+03  0.13794773019E+03  0.00000000000E+00 0.  1.
         21   -1    0    0  501  503 -0.00000000000E+00 -0.00000000000E+00 -0.31306469426E+03  0.31306469426E+03  0.00000000000E+00 0. -1.
          6    2    1    2  501    0  0.39893065527E+02  0.70074750904E+02  0.52328306978E+01  0.18873813750E+03  0.17056604187E+03 0.  0.
         24    2    3    3    0    0  0.25456281131E+02 -0.67909743934E+01  0.50692453837E+02  0.98154321036E+02  0.79814824938E+02 0.  0.
         -6    2    1    2    0  502 -0.39893065527E+02 -0.70074750904E+02 -0.18034979477E+03  0.26227428695E+03  0.17251036413E+03 0.  0.
        -24    2    5    5    0    0  0.15875525119E+02 -0.55759950187E+02 -0.34616298951E+02  0.10550888571E+03  0.81071773564E+02 0.  0.
          5    1    3    3  501    0  0.14436784396E+02  0.76865725297E+02 -0.45459623139E+02  0.90583816464E+02  0.47000000000E+01 0. -1.
        -11    1    4    4    0    0 -0.12495866292E+02 -0.33560843741E+02  0.12199169300E+02  0.37832481265E+02  0.00000000000E+00 0.  1.
         12    1    4    4    0    0  0.37952147424E+02  0.26769869348E+02  0.38493284537E+02  0.60321839772E+02  0.00000000000E+00 0. -1.
         -5    1    5    5    0  502 -0.55768590646E+02 -0.14314800717E+02 -0.14573349582E+03  0.15676540124E+03  0.47000000000E+01 0.  1.
         11    1    6    6    0    0 -0.12696076452E+01 -0.96027721742E+01 -0.52301242798E+02  0.53190648946E+02  0.00000000000E+00 0. -1.
        -12    1    6    6    0    0  0.17145132765E+02 -0.46157178013E+02  0.17684943848E+02  0.52318236768E+02  0.00000000000E+00 0.  1.
</event>
<event>
12    1  0.1046899E+000  0.2813447E+03  0.7818608E-02  0.1095525E+00
         21   -1    0    0  501  502  0.00000000000E+00  0.00000000000E+00  0.52125896382E+02  0.52125896382E+02  0.00000000000E+00 0. -1.
         21   -1    0    0  502  503 -0.00000000000E+00 -0.00000000000E+00 -0.14969402890E+04  0.14969402890E+04  0.00000000000E+00 0. -1.
         -6    2    1    2    0  503 -0.21228781534E+03 -0.55735811826E+02 -0.71040949046E+03  0.76409193216E+03  0.17601772465E+03 0.  0.
        -24    2    3    3    0    0 -0.34554860255E+02 -0.80551455958E+01 -0.33310438581E+03  0.34427806716E+03  0.79435080032E+02 0.  0.
          6    2    1    2  501    0  0.21228781534E+03  0.55735811826E+02 -0.73440490215E+03  0.78497425322E+03  0.16929684182E+03 0.  0.
         24    2    5    5    0    0  0.13558854098E+03  0.35863622770E+02 -0.64747433727E+03  0.66725978641E+03  0.79637637185E+02 0.  0.
          5    1    5    5  501    0  0.76699274354E+02  0.19872189056E+02 -0.86930564879E+02  0.11771446680E+03  0.47000000000E+01 0. -1.
        -13    1    6    6    0    0  0.12351313541E+03  0.56260072604E+02 -0.50966488022E+03  0.52742675370E+03  0.00000000000E+00 0.  1.
         14    1    6    6    0    0  0.12075405576E+02 -0.20396449834E+02 -0.13780945705E+03  0.13983303272E+03  0.00000000000E+00 0. -1.
         -5    1    3    3    0  503 -0.17773295508E+03 -0.47680666231E+02 -0.37730510465E+03  0.41981386500E+03  0.47000000000E+01 0.  1.
         13    1    4    4    0    0  0.32855754817E+01  0.26391353023E+02 -0.50465996372E+02  0.57044853496E+02  0.00000000000E+00 0. -1.
        -14    1    4    4    0    0 -0.37840435737E+02 -0.34446498619E+02 -0.28263838944E+03  0.28723321366E+03  0.00000000000E+00 0.  1.
</event>
<event>
12    1  0.1046899E+000  0.2145847E+03  0.7818608E-02  0.1138265E+00
         21   -1    0    0  501  502  0.00000000000E+00  0.00000000000E+00  0.25930617267E+03  0.25930617267E+03  0.00000000000E+00 0. -1.
         21   -1    0    0  502  503 -0.00000000000E+00 -0.00000000000E+00 -0.19944772013E+03  0.19944772013E+03  0.00000000000E+00 0. -1.
         -6    2    1    2    0  503 -0.84218724489E+02  0.93043271477E+02 -0.48165127346E+02  0.21851297065E+03  0.17227360485E+03 0.  0.
        -24    2    3    3    0    0 -0.54515333531E+02  0.73069671314E+01 -0.75887106684E+02  0.12352032117E+03  0.80455599071E+02 0.  0.
          6    2    1    2  501    0  0.84218724489E+02 -0.93043271477E+02  0.10802357989E+03  0.24024092215E+03  0.17405965341E+03 0.  0.
         24    2    5    5    0    0  0.12245345795E+02 -0.92710180724E+02  0.11571383979E+03  0.16770466717E+03  0.77395326520E+02 0.  0.
          5    1    5    5  501    0  0.71973378694E+02 -0.33309075227E+00 -0.76902599027E+01  0.72536254986E+02  0.47000000000E+01 0. -1.
        -13    1    6    6    0    0 -0.28816381179E+02 -0.37355042047E+02  0.23860608734E+02  0.52868815381E+02  0.00000000000E+00 0.  1.
         14    1    6    6    0    0  0.41061726975E+02 -0.55355138677E+02  0.91853231055E+02  0.11483585179E+03  0.00000000000E+00 0. -1.
         -5    1    3    3    0  503 -0.29703390958E+02  0.85736304345E+02  0.27721979339E+02  0.94992649482E+02  0.47000000000E+01 0.  1.
         11    1    4    4    0    0  0.20911627370E+02  0.53256008164E+01 -0.12244651002E+02  0.24811079410E+02  0.00000000000E+00 0. -1.
        -12    1    4    4    0    0 -0.75426960901E+02  0.19813663150E+01 -0.63642455683E+02  0.98709241758E+02  0.00000000000E+00 0.  1.
</event>
<event>
12    1  0.1046899E+000  0.1774154E+03  0.7818608E-02  0.1170417E+00
         21   -1    0    0  503  502  0.00000000000E+00  0.00000000000E+00  0.15738659191E+03  0.15738659191E+03  0.00000000000E+00 0. -1.
         21   -1    0    0  501  503 -0.00000000000E+00 -0.00000000000E+00 -0.29013898901E+03  0.29013898901E+03  0.00000000000E+00 0. -1.
          6    2    1    2  501    0  0.27993751474E+02 -0.35192262674E+02 -0.19133677277E+03  0.26068783610E+03  0.17124906366E+03 0.  0.
         24    2    3    3    0    0  0.38355389855E+02 -0.65021148347E+02 -0.19852132804E+03  0.22796423904E+03  0.82813591450E+02 0.  0.
         -6    2    1    2    0  502 -0.27993751474E+02  0.35192262674E+02  0.58584375669E+02  0.18683774482E+03  0.17162187606E+03 0.  0.
        -24    2    5    5    0    0  0.18603041906E+02  0.75762832239E+02  0.20050418779E+02  0.11387071047E+03  0.80488753825E+02 0.  0.
          5    1    3    3  501    0 -0.10361638381E+02  0.29828885672E+02  0.71845552742E+01  0.32723597065E+02  0.47000000000E+01 0. -1.
        -13    1    4    4    0    0  0.43829145223E+02 -0.76027440985E+02 -0.12099198659E+03  0.14946647308E+03  0.00000000000E+00 0.  1.
         14    1    4    4    0    0 -0.54737553683E+01  0.11006292639E+02 -0.77529341450E+02  0.78497765962E+02  0.00000000000E+00 0. -1.
         -5    1    5    5    0  502 -0.46596793380E+02 -0.40570569565E+02  0.38533956890E+02  0.72967034350E+02  0.47000000000E+01 0.  1.
         11    1    6    6    0    0  0.16796895362E+02 -0.78825673343E+01 -0.14303040483E+02  0.23427495143E+02  0.00000000000E+00 0. -1.
        -12    1    6    6    0    0  0.18061465437E+01  0.83645399574E+02  0.34353459262E+02  0.90443215326E+02  0.00000000000E+00 0.  1.
</event>
<event>
12    1  0.1046899E+000  0.2250462E+03  0.7818608E-02  0.1130178E+00
         21   -1    0    0  503  502  0.00000000000E+00  0.00000000000E+00  0.19936622393E+03  0.19936622393E+03  0.00000000000E+00 0. -1.
         21   -1    0    0  501  503 -0.00000000000E+00 -0.00000000000E+00 -0.26730401914E+03  0.26730401914E+03  0.00000000000E+00 0. -1.
          6    2    1    2  501    0  0.17515308570E+02  0.14278295541E+03  0.18044942932E+02  0.22576845095E+03  0.17306650482E+03 0.  0.
         24    2    3    3    0    0  0.24395720030E+02  0.69510522786E+02 -0.54769709798E+02  0.12213325858E+03  0.80560212309E+02 0.  0.
         -6    2    1    2    0  502 -0.17515308570E+02 -0.14278295541E+03 -0.85982738145E+02  0.24090179211E+03  0.17305167955E+03 0.  0.
        -24    2    5    5    0    0 -0.32781450282E+02 -0.21476489138E+02 -0.10891963456E+02  0.97343343095E+02  0.88437709767E+02 0.  0.
          5    1    3    3  501    0 -0.68804114592E+01  0.73272432622E+02  0.72814652730E+02  0.10363519236E+03  0.47000000000E+01 0. -1.
        -13    1    4    4    0    0  0.39750105433E+02  0.70460639680E+02 -0.18862906301E+02  0.83069740942E+02  0.00000000000E+00 0.  1.
         14    1    4    4    0    0 -0.15354385403E+02 -0.95011689421E+00 -0.35906803497E+02  0.39063517642E+02  0.00000000000E+00 0. -1.
         -5    1    5    5    0  502  0.15266141711E+02 -0.12130646627E+03 -0.75090774688E+02  0.14355844902E+03  0.47000000000E+01 0.  1.
         13    1    6    6    0    0 -0.35677545811E+02 -0.37528660130E+02 -0.39013820279E+02  0.64833369333E+02  0.00000000000E+00 0. -1.
        -14    1    6    6    0    0  0.28960955297E+01  0.16052170992E+02  0.28121856823E+02  0.32509973762E+02  0.00000000000E+00 0.  1.
</event>
<event>
12    1  0.1046899E+000  0.2999148E+03  0.7818608E-02  0.1085354E+00
         21   -1    0    0  501  502  0.00000000000E+00  0.00000000000E+00  0.50350433993E+03  0.50350433993E+03  0.00000000000E+00 0. -1.
         21   -1    0    0  502  503 -0.00000000000E+00 -0.00000000000E+00 -0.30569001799E+03  0.30569001799E+03  0.00000000000E+00 0. -1.
         -6    2    1    2    0  503  0.10109024671E+03  0.22421828850E+03  0.36013909056E+03  0.46866733457E+03  0.17162699981E+03 0.  0.
        -24    2    3    3    0    0  0.90443366504E+02  0.14165049781E+03  0.15935974634E+03  0.25126165115E+03  0.97427011189E+02 0.  0.
          6    2    1    2  501    0 -0.10109024671E+03 -0.22421828850E+03 -0.16232476862E+03  0.34052702335E+03  0.17063482718E+03 0.  0.
         24    2    5    5    0    0 -0.68235483739E+02 -0.24004247375E+03 -0.15965985969E+03  0.30366197177E+03  0.66654721215E+02 0.  0.
          5    1    5    5  501    0 -0.32854762971E+02  0.15824185247E+02 -0.26649089357E+01  0.36865051583E+02  0.47000000000E+01 0. -1.
        -11    1    6    6    0    0 -0.22037640680E+01 -0.46696251735E+02 -0.42104101325E+01  0.46937448330E+02  0.00000000000E+00 0.  1.
         12    1    6    6    0    0 -0.66031719671E+02 -0.19334622201E+03 -0.15544944955E+03  0.25672452344E+03  0.00000000000E+00 0. -1.
         -5    1    3    3    0  503  0.10646880206E+02  0.82567790688E+02  0.20077934423E+03  0.21740568342E+03  0.47000000000E+01 0.  1.
         13    1    4    4    0    0 -0.17384076225E+02  0.22266345003E+02  0.57435848563E+01  0.28826810316E+02  0.00000000000E+00 0. -1.
        -14    1    4    4    0    0  0.10782744273E+03  0.11938415281E+03  0.15361616148E+03  0.22243484083E+03  0.00000000000E+00 0.  1.
</event>
<event>
12    1  0.1046899E+000  0.2176455E+03  0.7818608E-02  0.1135802E+00
         21   -1    0    0  501  502  0.00000000000E+00  0.00000000000E+00  0.80166243101E+03  0.80166243101E+03  0.00000000000E+00 0.  1.
         21   -1    0    0  502  503 -0.00000000000E+00 -0.00000000000E+00 -0.59554406314E+02  0.59554406314E+02  0.00000000000E+00 0.  1.
         -6    2    1    2    0  503 -0.12162399389E+03 -0.53927758202E+02  0.32565129246E+03  0.39168652886E+03  0.17224683922E+03 0.  0.
        -24    2    3    3    0    0 -0.94684152778E+01 -0.57470858014E+02  0.11032321611E+03  0.14882916778E+03  0.81156384596E+02 0.  0.
          6    2    1    2  501    0  0.12162399389E+03  0.53927758202E+02  0.41645673224E+03  0.46953030846E+03  0.17123639141E+03 0.  0.
         24    2    5    5    0    0  0.12648037063E+03 -0.25447002731E+01  0.30338554157E+03  0.34296053672E+03  0.97853887274E+02 0.  0.
          5    1    5    5  501    0 -0.48563767397E+01  0.56472458475E+02  0.11307119067E+03  0.12656977175E+03  0.47000000000E+01 0. -1.
        -13    1    6    6    0    0  0.37595311493E+02 -0.39287738646E+02  0.58526780175E+02  0.79889410135E+02  0.00000000000E+00 0.  1.
         14    1    6    6    0    0  0.88885059133E+02  0.36743038373E+02  0.24485876140E+03  0.26307112658E+03  0.00000000000E+00 0. -1.
         -5    1    3    3    0  503 -0.11215557861E+03  0.35430998119E+01  0.21532807635E+03  0.24285736108E+03  0.47000000000E+01 0.  1.
         11    1    4    4    0    0 -0.21500651234E+02 -0.24776354747E+01 -0.34258032630E+01  0.21912389395E+02  0.00000000000E+00 0. -1.
        -12    1    4    4    0    0  0.12032235956E+02 -0.54993222539E+02  0.11374901937E+03  0.12691677838E+03  0.00000000000E+00 0.  1.
</event>
<event>
12    1  0.1046899E+000  0.4711040E+03  0.7818608E-02  0.1021734E+00
         21   -1    0    0  501  502  0.00000000000E+00  0.00000000000E+00  0.23821955556E+03  0.23821955556E+03  0.00000000000E+00 0.  1.
         21   -1    0    0  502  503 -0.00000000000E+00 -0.00000000000E+00 -0.93153239839E+03  0.93153239839E+03  0.00000000000E+00 0.  1.
         -6    2    1    2    0  503 -0.26489596315E+03  0.34963870089E+03 -0.31082340147E+03  0.56292645085E+03  0.16690688933E+03 0.  0.
        -24    2    3    3    0    0 -0.16874375336E+03  0.29391425223E+03 -0.18220758212E+03  0.39288357210E+03  0.79359034014E+02 0.  0.
          6    2    1    2  501    0  0.26489596315E+03 -0.34963870089E+03 -0.38248944136E+03  0.60682550310E+03  0.17181945758E+03 0.  0.
         24    2    5    5    0    0  0.12992985862E+03 -0.19993151600E+03 -0.29384221890E+03  0.38657902610E+03  0.79029833351E+02 0.  0.
          5    1    5    5  501    0  0.13496610454E+03 -0.14970718489E+03 -0.88647222458E+02  0.22024647700E+03  0.47000000000E+01 0. -1.
        -13    1    6    6    0    0  0.51289618877E+02 -0.30735484509E+02 -0.10673863000E+03  0.12234553587E+03  0.00000000000E+00 0.  1.
         14    1    6    6    0    0  0.78640239740E+02 -0.16919603149E+03 -0.18710358890E+03  0.26423349023E+03  0.00000000000E+00 0. -1.
         -5    1    3    3    0  503 -0.96152209792E+02  0.55724448661E+02 -0.12861581935E+03  0.17004287875E+03  0.47000000000E+01 0.  1.
         11    1    4    4    0    0 -0.92046337976E+02  0.11223060917E+03 -0.11276708472E+03  0.18380602103E+03  0.00000000000E+00 0. -1.
        -12    1    4    4    0    0 -0.76697415385E+02  0.18168364306E+03 -0.69440497404E+02  0.20907755107E+03  0.00000000000E+00 0.  1.
</event>
<event>
12    1  0.1046899E+000  0.2269274E+03  0.7818608E-02  0.1129048E+00
         21   -1    0    0  503  502  0.00000000000E+00  0.00000000000E+00  0.11034632184E+03  0.11034632184E+03  0.00000000000E+00 0.  1.
         21   -1    0    0  501  503 -0.00000000000E+00 -0.00000000000E+00 -0.47593596551E+03  0.47593596551E+03  0.00000000000E+00 0. -1.
          6    2    1    2  501    0  0.12183473528E+03  0.82507950645E+02 -0.22955449559E+03  0.32278680397E+03  0.17275644628E+03 0.  0.
         24    2    3    3    0    0  0.10541459222E+03  0.20247393788E+02 -0.71525245129E+02  0.15207847951E+03  0.80559357201E+02 0.  0.
         -6    2    1    2    0  502 -0.12183473528E+03 -0.82507950645E+02 -0.13603514809E+03  0.26349548338E+03  0.17109366909E+03 0.  0.
        -24    2    5    5    0    0 -0.66081296719E+02  0.17189102133E+02 -0.95559735523E+02  0.14221771432E+03  0.80199826716E+02 0.  0.
          5    1    3    3  501    0  0.16420143065E+02  0.62260556857E+02 -0.15802925046E+03  0.17070832446E+03  0.47000000000E+01 0. -1.
        -11    1    4    4    0    0 -0.67085338421E+01  0.20666648941E+02 -0.15833861318E+02  0.26885422984E+02  0.00000000000E+00 0.  1.
         12    1    4    4    0    0  0.11212312606E+03 -0.41925515328E+00 -0.55691383811E+02  0.12519305653E+03  0.00000000000E+00 0. -1.
         -5    1    5    5    0  502 -0.55753438566E+02 -0.99697052778E+02 -0.40475412564E+02  0.12127776905E+03  0.47000000000E+01 0.  1.
         11    1    6    6    0    0 -0.65225615829E+01 -0.28789628067E+02 -0.20505495207E+02  0.35942479429E+02  0.00000000000E+00 0. -1.
        -12    1    6    6    0    0 -0.59558735136E+02  0.45978730201E+02 -0.75054240316E+02  0.10627523489E+03  0.00000000000E+00 0.  1.
</event>
<event>
12    1  0.1046899E+000  0.1789593E+03  0.7818608E-02  0.1170183E+00
         21   -1    0    0  501  502  0.00000000000E+00  0.00000000000E+00  0.71547627594E+02  0.71547627594E+02  0.00000000000E+00 0.  1.
         21   -1    0    0  502  503 -0.00000000000E+00 -0.00000000000E+00 -0.82838057966E+03  0.82838057966E+03  0.00000000000E+00 0.  1.
         -6    2    1    2    0  503 -0.90291139328E+01 -0.19732168568E+02 -0.68579353793E+03  0.70738465341E+03  0.17207378604E+03 0.  0.
        -24    2    3    3    0    0  0.42429868970E+02  0.13317774250E+02 -0.23019560389E+03  0.24767616628E+03  0.79848671873E+02 0.  0.
          6    2    1    2  501    0  0.90291139328E+01  0.19732168568E+02 -0.71039414133E+02  0.19254355384E+03  0.17763878628E+03 0.  0.
         24    2    5    5    0    0  0.27066091261E+02  0.21532685287E+01  0.28830645143E+02  0.89439387980E+02  0.80193442134E+02 0.  0.
          5    1    5    5  501    0 -0.18036977328E+02  0.17578900039E+02 -0.99870059275E+02  0.10310416586E+03  0.47000000000E+01 0. -1.
        -13    1    6    6    0    0 -0.16472413148E+02  0.14017866492E+02  0.37686546438E+02  0.43452465504E+02  0.00000000000E+00 0.  1.
         14    1    6    6    0    0  0.43538504410E+02 -0.11864597963E+02 -0.88559012955E+01  0.45986922476E+02  0.00000000000E+00 0. -1.
         -5    1    3    3    0  503 -0.51458982903E+02 -0.33049942818E+02 -0.45559793404E+03  0.45970848714E+03  0.47000000000E+01 0.  1.
         11    1    4    4    0    0 -0.20199608688E+02 -0.12377906022E+02 -0.57997791460E+02  0.62649665306E+02  0.00000000000E+00 0. -1.
        -12    1    4    4    0    0  0.62629477658E+02  0.25695680272E+02 -0.17219781243E+03  0.18502650097E+03  0.00000000000E+00 0.  1.
</event>
<event>
12    1  0.1046899E+000  0.2748263E+03  0.7818608E-02  0.1098647E+00
         21   -1    0    0  501  502  0.00000000000E+00  0.00000000000E+00  0.25036824244E+03  0.25036824244E+03  0.00000000000E+00 0. -1.
         21   -1    0    0  502  503 -0.00000000000E+00 -0.00000000000E+00 -0.30092258083E+03  0.30092258083E+03  0.00000000000E+00 0. -1.
         -6    2    1    2    0  503  0.15790825964E+03  0.14432247877E+03 -0.27483478096E+02  0.27619713327E+03  0.17252686317E+03 0.  0.
        -24    2    3    3    0    0  0.90907892716E+02  0.11190695172E+03  0.46514236614E+02  0.17113730582E+03  0.79605228677E+02 0.  0.
          6    2    1    2  501    0 -0.15790825964E+03 -0.14432247877E+03 -0.23070860296E+02  0.27509369000E+03  0.17140675990E+03 0.  0.
         24    2    5    5    0    0 -0.55691244101E+02 -0.10409515590E+03 -0.67221326446E+02  0.15661200604E+03  0.77918531526E+02 0.  0.
          5    1    5    5  501    0 -0.10221701554E+03 -0.40227322877E+02  0.44150466150E+02  0.11848168396E+03  0.47000000000E+01 0. -1.
        -11    1    6    6    0    0 -0.16339344779E+02 -0.89955125635E+02 -0.20095992313E+02  0.93609549314E+02  0.00000000000E+00 0.  1.
         12    1    6    6    0    0 -0.39351899321E+02 -0.14140030263E+02 -0.47125334133E+02  0.63002456723E+02  0.00000000000E+00 0. -1.
         -5    1    3    3    0  503  0.67000366928E+02  0.32415527051E+02 -0.73997714709E+02  0.10505982745E+03  0.47000000000E+01 0.  1.
         13    1    4    4    0    0  0.39392096962E+02  0.51082680730E+00 -0.13105668611E+01  0.39417202242E+02  0.00000000000E+00 0. -1.
        -14    1    4    4    0    0  0.51515795754E+02  0.11139612492E+03  0.47824803475E+02  0.13172010358E+03  0.00000000000E+00 0.  1.
</event>
<event>
12    1  0.1046899E+000  0.2420484E+03  0.7818608E-02  0.1118658E+00
         21   -1    0    0  501  502  0.00000000000E+00  0.00000000000E+00  0.11286633457E+03  0.11286633457E+03  0.00000000000E+00 0.  1.
         21   -1    0    0  502  503 -0.00000000000E+00 -0.00000000000E+00 -0.54987337267E+03  0.54987337267E+03  0.00000000000E+00 0.  1.
         -6    2    1    2    0  503 -0.15490533043E+03  0.70001372795E+02 -0.30107675730E+03  0.38630897422E+03  0.17231237966E+03 0.  0.
        -24    2    3    3    0    0 -0.94115288940E+02  0.82912930642E+02 -0.28549247253E+03  0.32206648515E+03  0.80552016136E+02 0.  0.
          6    2    1    2  501    0  0.15490533043E+03 -0.70001372795E+02 -0.13593028080E+03  0.27643073302E+03  0.17041436363E+03 0.  0.
         24    2    5    5    0    0  0.17336151540E+02  0.13562455118E+01 -0.30503817886E+02  0.88936685772E+02  0.81712114270E+02 0.  0.
          5    1    5    5  501    0  0.13756917889E+03 -0.71357618307E+02 -0.10542646292E+03  0.18749404725E+03  0.47000000000E+01 0. -1.
        -11    1    6    6    0    0  0.30572904396E+02  0.34661508644E+02 -0.25394049952E+02  0.52735002016E+02  0.00000000000E+00 0.  1.
         12    1    6    6    0    0 -0.13236752856E+02 -0.33305263132E+02 -0.51097679336E+01  0.36201683756E+02  0.00000000000E+00 0. -1.
         -5    1    3    3    0  503 -0.60790041488E+02 -0.12911557847E+02 -0.15584284772E+02  0.64242489071E+02  0.47000000000E+01 0.  1.
         11    1    4    4    0    0 -0.43864449266E+02  0.51981227590E+02 -0.65975936513E+02  0.94757385623E+02  0.00000000000E+00 0. -1.
        -12    1    4    4    0    0 -0.50250839674E+02  0.30931703052E+02 -0.21951653602E+03  0.22730909952E+03  0.00000000000E+00 0.  1.
</event>
<event>
12    1  0.1046899E+000  0.2203278E+03  0.7818608E-02  0.1134553E+00
         21   -1    0    0  503  502  0.00000000000E+00  0.00000000000E+00  0.59076118753E+02  0.59076118753E+02  0.00000000000E+00 0.  1.
         21   -1    0    0  501  503 -0.00000000000E+00 -0.00000000000E+00 -0.98287947669E+03  0.98287947669E+03  0.00000000000E+00 0.  1.
          6    2    1    2  501    0  0.13451396843E+03  0.18278606858E+02 -0.68852586816E+03  0.72291921931E+03  0.17354022978E+03 0.  0.
         24    2    3    3    0    0  0.14223312094E+03 -0.34155010376E+02 -0.49205484134E+03  0.51937113184E+03  0.78940359004E+02 0.  0.
         -6    2    1    2    0  502 -0.13451396843E+03 -0.18278606858E+02 -0.23527748977E+03  0.31903637612E+03  0.16733378896E+03 0.  0.
        -24    2    5    5    0    0 -0.89395516875E+02  0.21206216326E+02 -0.22205370911E+03  0.25745972221E+03  0.92392622985E+02 0.  0.
          5    1    3    3  501    0 -0.77191525154E+01  0.52433617234E+02 -0.19647102683E+03  0.20354808747E+03  0.47000000000E+01 0. -1.
        -13    1    4    4    0    0  0.21133474498E+02 -0.23922206548E+02 -0.20763694144E+03  0.21007616514E+03  0.00000000000E+00 0.  1.
         14    1    4    4    0    0  0.12109964644E+03 -0.10232803828E+02 -0.28441789990E+03  0.30929496670E+03  0.00000000000E+00 0. -1.
         -5    1    5    5    0  502 -0.45118451550E+02 -0.39484823184E+02 -0.13223780655E+02  0.61576653912E+02  0.47000000000E+01 0.  1.
         13    1    6    6    0    0 -0.41334523177E+02 -0.15183096325E+02 -0.23411019541E+02  0.49871284886E+02  0.00000000000E+00 0. -1.
        -14    1    6    6    0    0 -0.48060993699E+02  0.36389312651E+02 -0.19864268957E+03  0.20758843733E+03  0.00000000000E+00 0.  1.
</event>
<event>
12    1  0.1046899E+000  0.2021748E+03  0.7818608E-02  0.1148005E+00
         21   -1    0    0  503  502  0.00000000000E+00  0.00000000000E+00  0.31426296981E+03  0.31426296981E+03  0.00000000000E+00 0.  1.
         21   -1    0    0  501  503 -0.00000000000E+00 -0.00000000000E+00 -0.14297273137E+03  0.14297273137E+03  0.00000000000E+00 0.  1.
          6    2    1    2  501    0  0.78681010182E+02 -0.68952458729E+02  0.16152081828E+02  0.20239755235E+03  0.17250720716E+03 0.  0.
         24    2    3    3    0    0  0.30954355587E+01 -0.28516429446E+02  0.61586086213E+02  0.10526573310E+03  0.80406841011E+02 0.  0.
         -6    2    1    2    0  502 -0.78681010182E+02  0.68952458729E+02  0.15513815662E+03  0.25483814883E+03  0.17300142061E+03 0.  0.
        -24    2    5    5    0    0 -0.66716423985E+01  0.77639214616E+02  0.86798952936E+02  0.15507269621E+03  0.10218182040E+03 0.  0.
          5    1    3    3  501    0  0.75585574623E+02 -0.40436029283E+02 -0.45434004385E+02  0.97131819245E+02  0.47000000000E+01 0. -1.
        -13    1    4    4    0    0 -0.19299073320E+02  0.22501918142E+02  0.22098191912E+02  0.36974594478E+02  0.00000000000E+00 0.  1.
         14    1    4    4    0    0  0.22394508879E+02 -0.51018347588E+02  0.39487894301E+02  0.68291138626E+02  0.00000000000E+00 0. -1.
         -5    1    5    5    0  502 -0.72009367784E+02 -0.86867558871E+01  0.68339203684E+02  0.99765452621E+02  0.47000000000E+01 0.  1.
         13    1    6    6    0    0 -0.15355372013E+02  0.87675092053E+02  0.10167884246E+03  0.13513436358E+03  0.00000000000E+00 0. -1.
        -14    1    6    6    0    0  0.86837296145E+01 -0.10035877437E+02 -0.14879889523E+02  0.19938332632E+02  0.00000000000E+00 0.  1.
</event>
<event>
12    1  0.1046899E+000  0.2705916E+03  0.7818608E-02  0.1101080E+00
         21   -1    0    0  503  502  0.00000000000E+00  0.00000000000E+00  0.48647464822E+02  0.48647464822E+02  0.00000000000E+00 0.  1.
         21   -1    0    0  501  503 -0.00000000000E+00 -0.00000000000E+00 -0.16367940440E+04  0.16367940440E+04  0.00000000000E+00 0.  1.
          6    2    1    2  501    0  0.80967181885E+02  0.19250621661E+03 -0.55150674683E+03  0.61431224348E+03  0.17206252557E+03 0.  0.
         24    2    3    3    0    0  0.11718602747E+03  0.17321311691E+03 -0.41271571718E+03  0.46950523956E+03  0.79784446248E+02 0.  0.
         -6    2    1    2    0  502 -0.80967181885E+02 -0.19250621661E+03 -0.10366398324E+04  0.10711292654E+04  0.17053279186E+03 0.  0.
        -24    2    5    5    0    0 -0.15996747660E+01 -0.52824226426E+02 -0.25797601121E+03  0.27605084411E+03  0.82822027973E+02 0.  0.
          5    1    3    3  501    0 -0.36218845584E+02  0.19293099705E+02 -0.13879102965E+03  0.14480700392E+03  0.47000000000E+01 0. -1.
        -11    1    4    4    0    0  0.60416368150E+02  0.31010524707E+02 -0.94520817368E+02  0.11638717755E+03  0.00000000000E+00 0.  1.
         12    1    4    4    0    0  0.56769659318E+02  0.14220259220E+03 -0.31819489981E+03  0.35311806200E+03  0.00000000000E+00 0. -1.
         -5    1    5    5    0  502 -0.79367507119E+02 -0.13968199018E+03 -0.77866382115E+03  0.79507842125E+03  0.47000000000E+01 0.  1.
         13    1    6    6    0    0  0.88133817299E+01  0.10777867017E+02 -0.14745789852E+03  0.14811370615E+03  0.00000000000E+00 0. -1.
        -14    1    6    6    0    0 -0.10413056496E+02 -0.63602093443E+02 -0.11051811269E+03  0.12793713796E+03  0.00000000000E+00 0.  1.
</event>
<event>
12    1  0.1046899E+000  0.2260359E+03  0.7818608E-02  0.1129561E+00
         21   -1    0    0  501  502  0.00000000000E+00  0.00000000000E+00  0.55948456008E+02  0.55948456008E+02  0.00000000000E+00 0. -1.
         21   -1    0    0  502  503 -0.00000000000E+00 -0.00000000000E+00 -0.93017879621E+03  0.93017879621E+03  0.00000000000E+00 0. -1.
         -6    2    1    2    0  503 -0.46792636420E+02 -0.13732989300E+03 -0.36572828613E+03  0.42965031007E+03  0.17260695041E+03 0.  0.
        -24    2    3    3    0    0  0.31993899910E+02 -0.99949507035E+02 -0.26289846144E+03  0.29474043494E+03  0.82114611191E+02 0.  0.
          6    2    1    2  501    0  0.46792636420E+02  0.13732989300E+03 -0.50850205407E+03  0.55647694215E+03  0.17332973724E+03 0.  0.
         24    2    5    5    0    0  0.39864879964E+02  0.16210465729E+03 -0.34637663110E+03  0.39225597659E+03  0.77594149455E+02 0.  0.
          5    1    5    5  501    0  0.69277564567E+01 -0.24774764284E+02 -0.16212542298E+03  0.16422096556E+03  0.47000000000E+01 0. -1.
        -13    1    6    6    0    0  0.61575433284E+02  0.13681249184E+03 -0.29598503636E+03  0.33183781228E+03  0.00000000000E+00 0.  1.
         14    1    6    6    0    0 -0.21710553321E+02  0.25292165447E+02 -0.50391594734E+02  0.60418164308E+02  0.00000000000E+00 0. -1.
         -5    1    3    3    0  503 -0.78786536331E+02 -0.37380385969E+02 -0.10282982468E+03  0.13490987513E+03  0.47000000000E+01 0.  1.
         13    1    4    4    0    0  0.48281479845E+02 -0.29392151760E+02 -0.79346950772E+02  0.97421447730E+02  0.00000000000E+00 0. -1.
        -14    1    4    4    0    0 -0.16287579934E+02 -0.70557355275E+02 -0.18355151067E+03  0.19731898721E+03  0.00000000000E+00 0.  1.
</event>
<event>
12    1  0.1046899E+000  0.1982417E+03  0.7818608E-02  0.1151387E+00
         21   -1    0    0  503  502  0.00000000000E+00  0.00000000000E+00  0.12784645542E+03  0.12784645542E+03  0.00000000000E+00 0. -1.
         21   -1    0    0  501  503 -0.00000000000E+00 -0.00000000000E+00 -0.60920046142E+03  0.60920046142E+03  0.00000000000E+00 0. -1.
          6    2    1    2  501    0 -0.55160430427E+02  0.81671845722E+02 -0.50032517034E+03  0.53789957015E+03  0.17116573262E+03 0.  0.
         24    2    3    3    0    0 -0.53485754481E+02 -0.17840134282E+02 -0.26637019934E+03  0.28361143209E+03  0.79393733949E+02 0.  0.
         -6    2    1    2    0  502  0.55160430427E+02 -0.81671845722E+02  0.18971164345E+02  0.19914734669E+03  0.17200813106E+03 0.  0.
        -24    2    5    5    0    0 -0.27891907996E+02 -0.54561566319E+02 -0.29576831308E+02  0.99089083421E+02  0.72034258878E+02 0.  0.
          5    1    3    3  501    0 -0.16746759461E+01  0.99511980003E+02 -0.23395497100E+03  0.25428813806E+03  0.47000000000E+01 0. -1.
        -13    1    4    4    0    0 -0.55881771480E+02  0.20060456793E+02 -0.15913549546E+03  0.16985081756E+03  0.00000000000E+00 0.  1.
         14    1    4    4    0    0  0.23960169996E+01 -0.37900591075E+02 -0.10723470388E+03  0.11376061452E+03  0.00000000000E+00 0. -1.
         -5    1    5    5    0  502  0.83052338423E+02 -0.27110279402E+02  0.48547995653E+02  0.10005826327E+03  0.47000000000E+01 0.  1.
         11    1    6    6    0    0 -0.17350209971E+02  0.12174994478E+02  0.69211790247E+01  0.22297152187E+02  0.00000000000E+00 0. -1.
        -12    1    6    6    0    0 -0.10541698026E+02 -0.66736560797E+02 -0.36498010333E+02  0.76791931234E+02  0.00000000000E+00 0.  1.
</event>
<event>
12    1  0.1046899E+000  0.1755242E+03  0.7818608E-02  0.1173658E+00
         21   -1    0    0  503  502  0.00000000000E+00  0.00000000000E+00  0.98219680050E+02  0.98219680050E+02  0.00000000000E+00 0. -1.
         21   -1    0    0  501  503 -0.00000000000E+00 -0.00000000000E+00 -0.81232885842E+03  0.81232885842E+03  0.00000000000E+00 0. -1.
          6    2    1    2  501    0 -0.82025058003E+01 -0.30263906694E+02  0.54330797870E+01  0.16990704467E+03  0.16690027059E+03 0.  0.
         24    2    3    3    0    0  0.48155553573E+02 -0.83790035396E+01 -0.31526591340E+02  0.98890939931E+02  0.79977040448E+02 0.  0.
         -6    2    1    2    0  502  0.82025058003E+01  0.30263906694E+02 -0.71954225816E+03  0.74064149380E+03  0.17270082778E+03 0.  0.
        -24    2    5    5    0    0  0.66032179440E+01  0.86171967491E+02 -0.43160332401E+03  0.44728302915E+03  0.79444750620E+02 0.  0.
          5    1    3    3  501    0 -0.56358059373E+02 -0.21884903154E+02  0.36959671127E+02  0.71016104738E+02  0.47000000000E+01 0. -1.
        -13    1    4    4    0    0 -0.35236718415E-01  0.12127918512E+02  0.21295212894E+02  0.24506606074E+02  0.00000000000E+00 0.  1.
         14    1    4    4    0    0  0.48190790291E+02 -0.20506922051E+02 -0.52821804234E+02  0.74384333857E+02  0.00000000000E+00 0. -1.
         -5    1    5    5    0  502  0.15992878563E+01 -0.55908060797E+02 -0.28793893414E+03  0.29335846465E+03  0.47000000000E+01 0.  1.
         13    1    6    6    0    0  0.14280159828E+02 -0.75046720685E+01 -0.13951501812E+03  0.14044459174E+03  0.00000000000E+00 0. -1.
        -14    1    6    6    0    0 -0.76769418837E+01  0.93676639559E+02 -0.29208830590E+03  0.30683843742E+03  0.00000000000E+00 0.  1.
</event>
<event>
12    1  0.1046899E+000  0.3055969E+03  0.7818608E-02  0.1082517E+00
         21   -1    0    0  501  502  0.00000000000E+00  0.00000000000E+00  0.10815117164E+04  0.10815117164E+04  0.00000000000E+00 0.  1.
         21   -1    0    0  502  503 -0.00000000000E+00 -0.00000000000E+00 -0.87061207421E+02  0.87061207421E+02  0.00000000000E+00 0.  1.
         -6    2    1    2    0  503 -0.17423206549E+03  0.18191031686E+03  0.55313113720E+03  0.63177475791E+03  0.17244452371E+03 0.  0.
        -24    2    3    3    0    0 -0.16337502409E+03  0.14096214711E+03  0.31644555095E+03  0.39128196239E+03  0.80012886236E+02 0.  0.
          6    2    1    2  501    0  0.17423206549E+03 -0.18191031686E+03  0.44131937178E+03  0.53679816591E+03  0.17303556570E+03 0.  0.
         24    2    5    5    0    0  0.15775214788E+03 -0.11686307706E+03  0.41227772278E+03  0.46352990221E+03  0.79651306343E+02 0.  0.
          5    1    5    5  501    0  0.16479917618E+02 -0.65047239796E+02  0.29041648995E+02  0.73268263704E+02  0.47000000000E+01 0. -1.
        -11    1    6    6    0    0  0.80534332517E+02 -0.17271595302E+02  0.12342542165E+03  0.14838437056E+03  0.00000000000E+00 0.  1.
         12    1    6    6    0    0  0.77217815359E+02 -0.99591481759E+02  0.28885230114E+03  0.31514553165E+03  0.00000000000E+00 0. -1.
         -5    1    3    3    0  503 -0.10857041400E+02  0.40948169752E+02  0.23668558625E+03  0.24049279551E+03  0.47000000000E+01 0.  1.
         13    1    4    4    0    0 -0.39528081534E+02  0.10767767218E+02  0.11112039525E+03  0.11843207454E+03  0.00000000000E+00 0. -1.
        -14    1    4    4    0    0 -0.12384694256E+03  0.13019437989E+03  0.20532515570E+03  0.27284988785E+03  0.00000000000E+00 0.  1.
</event>
<event>
12    1  0.2946178E+000  0.1365552E+04  0.7818608E-02  0.8979197E-01
         21   -1    0    0  503  502  0.00000000000E+00  0.00000000000E+00  0.10075611209E+04  0.10075611209E+04  0.00000000000E+00 0. -1.
         21   -1    0    0  501  503 -0.00000000000E+00 -0.00000000000E+00 -0.24764367857E+04  0.24764367857E+04  0.00000000000E+00 0. -1.
          6    2    1    2  501    0  0.34067643805E+03 -0.13108209976E+04  0.14142130328E+03  0.13728555000E+04  0.17441363429E+03 0.  0.
         24    2    3    3    0    0  0.15639503901E+03 -0.47898242377E+03  0.55354347227E+01  0.51006809507E+03  0.79090138812E+02 0.  0.
         -6    2    1    2    0  502 -0.34067643805E+03  0.13108209976E+04 -0.16102969681E+04  0.21111424066E+04  0.17191222290E+03 0.  0.
        -24    2    5    5    0    0 -0.23634849148E+03  0.10676499779E+04 -0.12308109312E+04  0.16484889645E+04  0.82965252759E+02 0.  0.
          5    1    3    3  501    0  0.18428139904E+03 -0.83183857380E+03  0.13588586855E+03  0.86278740497E+03  0.47000000000E+01 0. -1.
        -13    1    4    4    0    0  0.46444810566E+02 -0.24069882269E+03  0.27738166672E+02  0.24670316083E+03  0.00000000000E+00 0.  1.
         14    1    4    4    0    0  0.10995022845E+03 -0.23828360108E+03 -0.22202731950E+02  0.26336493424E+03  0.00000000000E+00 0. -1.
         -5    1    5    5    0  502 -0.10432794657E+03  0.24317101971E+03 -0.37948603690E+03  0.46265344208E+03  0.47000000000E+01 0.  1.
         13    1    6    6    0    0 -0.38822990389E+02  0.74565094584E+02 -0.90853940563E+02  0.12378051716E+03  0.00000000000E+00 0. -1.
        -14    1    6    6    0    0 -0.19752550109E+03  0.99308488328E+03 -0.11399569906E+04  0.15247084474E+04  0.00000000000E+00 0.  1.
</event>
<event>
12    1  0.1046899E+000  0.3337801E+03  0.7818608E-02  0.1069495E+00
         21   -1    0    0  503  502  0.00000000000E+00  0.00000000000E+00  0.85391781511E+02  0.85391781511E+02  0.00000000000E+00 0.  1.
         21   -1    0    0  501  503 -0.00000000000E+00 -0.00000000000E+00 -0.14823680392E+04  0.14823680392E+04  0.00000000000E+00 0.  1.
          6    2    1    2  501    0 -0.23234600114E+03 -0.16538524299E+03 -0.97022978457E+03  0.10259833693E+04  0.17308696186E+03 0.  0.
         24    2    3    3    0    0 -0.25440342038E+03 -0.14807084201E+03 -0.88260162042E+03  0.93385789304E+03  0.80367091920E+02 0.  0.
         -6    2    1    2    0  502  0.23234600114E+03  0.16538524299E+03 -0.42674647310E+03  0.54177645140E+03  0.17341346009E+03 0.  0.
        -24    2    5    5    0    0  0.24473979637E+03  0.16568218413E+03 -0.42986181169E+03  0.52815699221E+03  0.82586180455E+02 0.  0.
          5    1    3    3  501    0  0.22057419235E+02 -0.17314400978E+02 -0.87628164146E+02  0.92125476260E+02  0.47000000000E+01 0. -1.
        -13    1    4    4    0    0 -0.25719557555E+02  0.88462166674E+01 -0.96835417576E+02  0.10058254962E+03  0.00000000000E+00 0.  1.
         14    1    4    4    0    0 -0.22868386282E+03 -0.15691705867E+03 -0.78576620285E+03  0.83327534342E+03  0.00000000000E+00 0. -1.
         -5    1    5    5    0  502 -0.12393795226E+02 -0.29694114418E+00  0.31153385883E+01  0.13619459191E+02  0.47000000000E+01 0.  1.
         13    1    6    6    0    0  0.19687252974E+03  0.16128219061E+03 -0.32489807587E+03  0.41270994376E+03  0.00000000000E+00 0. -1.
        -14    1    6    6    0    0  0.47867266621E+02  0.43999935186E+01 -0.10496373582E+03  0.11544704844E+03  0.00000000000E+00 0.  1.
</event>
<event>
12    1  0.1097185E+000  0.3309237E+03  0.7818608E-02  0.1070744E+00
         21   -1    0    0  503  502  0.00000000000E+00  0.00000000000E+00  0.15822729586E+04  0.15822729586E+04  0.00000000000E+00 0. -1.
         21   -1    0    0  501  503 -0.00000000000E+00 -0.00000000000E+00 -0.17906850355E+03  0.17906850355E+03  0.00000000000E+00 0.  1.
          6    2    1    2  501    0  0.28271755931E+03 -0.19045462459E+02  0.13915436143E+04  0.14303510402E+04  0.17093425548E+03 0.  0.
         24    2    3    3    0    0  0.18390609143E+03  0.53111233389E+02  0.86101102626E+03  0.88587219587E+03  0.82385110913E+02 0.  0.
         -6    2    1    2    0  502 -0.28271755931E+03  0.19045462459E+02  0.11660840727E+02  0.33099042193E+03  0.17066556835E+03 0.  0.
        -24    2    5    5    0    0 -0.29538261326E+03  0.50358491633E+01  0.15857479898E+02  0.31108126233E+03  0.96144912037E+02 0.  0.
          5    1    3    3  501    0  0.98811467888E+02 -0.72156695848E+02  0.53053258808E+03  0.54447884436E+03  0.47000000000E+01 0. -1.
        -13    1    4    4    0    0  0.25791633256E+02  0.14603273590E+02  0.45636785511E+02  0.54416726632E+02  0.00000000000E+00 0.  1.
         14    1    4    4    0    0  0.15811445817E+03  0.38507959799E+02  0.81537424075E+03  0.83145546924E+03  0.00000000000E+00 0. -1.
         -5    1    5    5    0  502  0.12665053941E+02  0.14009613295E+02 -0.41966391702E+01  0.19909159609E+02  0.47000000000E+01 0.  1.
         11    1    6    6    0    0 -0.11847602889E+03  0.17219149547E+02 -0.38252940036E+02  0.12568355482E+03  0.00000000000E+00 0. -1.
        -12    1    6    6    0    0 -0.17690658437E+03 -0.12183300384E+02  0.54110419933E+02  0.18539770750E+03  0.00000000000E+00 0.  1.
</event>
<event>
12    1  0.1046899E+000  0.1918978E+03  0.7818608E-02  0.1158111E+00
         21   -1    0    0  501  502  0.00000000000E+00  0.00000000000E+00  0.42500175501E+02  0.42500175501E+02  0.00000000000E+00 0.  1.
         21   -1    0    0  502  503 -0.00000000000E+00 -0.00000000000E+00 -0.20740333276E+04  0.20740333276E+04  0.00000000000E+00 0.  1.
         -6    2    1    2    0  503  0.78575545252E+02 -0.98504040318E+01 -0.19292498134E+03  0.26793815456E+03  0.16822502630E+03 0.  0.
        -24    2    3    3    0    0  0.52334201753E+02  0.56340957554E+02 -0.14248055139E+03  0.18055031233E+03  0.79903288958E+02 0.  0.
          6    2    1    2  501    0 -0.78575545252E+02  0.98504040318E+01 -0.18386081708E+04  0.18485953486E+04  0.17479591039E+03 0.  0.
         24    2    5    5    0    0 -0.43110684308E+02 -0.31482689962E+02 -0.52684989282E+03  0.53569853204E+03  0.80946999955E+02 0.  0.
          5    1    5    5  501    0 -0.35464860944E+02  0.41333093994E+02 -0.13117582780E+04  0.13128968165E+04  0.47000000000E+01 0. -1.
        -13    1    6    6    0    0  0.76344175428E+01 -0.40449114660E+02 -0.31465825665E+03  0.31733930372E+03  0.00000000000E+00 0.  1.
         14    1    6    6    0    0 -0.50745101851E+02  0.89664246982E+01 -0.21219163617E+03  0.21835922832E+03  0.00000000000E+00 0. -1.
         -5    1    3    3    0  503  0.26241343498E+02 -0.66191361586E+02 -0.50444429948E+02  0.87387842232E+02  0.47000000000E+01 0.  1.
         13    1    4    4    0    0  0.46434935198E+02 -0.27773620341E+01 -0.36798778089E+02  0.59313295436E+02  0.00000000000E+00 0. -1.
        -14    1    4    4    0    0  0.58992665557E+01  0.59118319588E+02 -0.10568177330E+03  0.12123701689E+03  0.00000000000E+00 0.  1.
</event>
<event>
12    1  0.1046899E+000  0.3012358E+03  0.7818608E-02  0.1084838E+00
         21   -1    0    0  503  502  0.00000000000E+00  0.00000000000E+00  0.44967489847E+03  0.44967489847E+03  0.00000000000E+00 0.  1.
         21   -1    0    0  501  503 -0.00000000000E+00 -0.00000000000E+00 -0.20473413041E+03  0.20473413041E+03  0.00000000000E+00 0.  1.
          6    2    1    2  501    0  0.24031681637E+03  0.59116570002E+02  0.16902856449E+03  0.34541810393E+03  0.17174419883E+03 0.  0.
         24    2    3    3    0    0  0.19807348774E+03  0.13184093426E+02  0.18273323929E+03  0.28135407869E+03  0.79760604252E+02 0.  0.
         -6    2    1    2    0  502 -0.24031681637E+03 -0.59116570002E+02  0.75912203571E+02  0.30899092495E+03  0.16871807245E+03 0.  0.
        -24    2    5    5    0    0 -0.17967291423E+03 -0.17903701710E+02  0.11198970548E+03  0.22713825533E+03  0.80294422341E+02 0.  0.
          5    1    3    3  501    0  0.42243328630E+02  0.45932476576E+02 -0.13704674805E+02  0.64064025238E+02  0.47000000000E+01 0. -1.
        -13    1    4    4    0    0 -0.15565864481E+01  0.68968395216E+01 -0.38339158795E+01  0.80429016983E+01  0.00000000000E+00 0.  1.
         14    1    4    4    0    0  0.19963007419E+03  0.62872539042E+01  0.18656715517E+03  0.27331117699E+03  0.00000000000E+00 0. -1.
         -5    1    5    5    0  502 -0.60643902142E+02 -0.41212868292E+02 -0.36077501906E+02  0.81852669618E+02  0.47000000000E+01 0.  1.
         11    1    6    6    0    0 -0.17669336144E+03 -0.14556193230E+02  0.79430453890E+02  0.19427203541E+03  0.00000000000E+00 0. -1.
        -12    1    6    6    0    0 -0.29795527907E+01 -0.33475084803E+01  0.32559251587E+02  0.32866219919E+02  0.00000000000E+00 0.  1.
</event>
<event>
12    1  0.1046899E+000  0.1834739E+03  0.7818608E-02  0.1164530E+00
         21   -1    0    0  503  502  0.00000000000E+00  0.00000000000E+00  0.28349355335E+02  0.28349355335E+02  0.00000000000E+00 0. -1.
         21   -1    0    0  501  503 -0.00000000000E+00 -0.00000000000E+00 -0.13115473002E+04  0.13115473002E+04  0.00000000000E+00 0. -1.
          6    2    1    2  501    0 -0.56434388637E+02  0.30044119493E+02 -0.43474003487E+03  0.47187028261E+03  0.17197434795E+03 0.  0.
         24    2    3    3    0    0 -0.85682855852E+02  0.63120423023E+02 -0.27142699124E+03  0.30262857703E+03  0.81152353441E+02 0.  0.
         -6    2    1    2    0  502  0.56434388637E+02 -0.30044119493E+02 -0.84845790995E+03  0.86802637288E+03  0.17175991885E+03 0.  0.
        -24    2    5    5    0    0  0.31391334187E+02 -0.72774788768E+02 -0.36582631710E+03  0.38283732819E+03  0.80336416576E+02 0.  0.
          5    1    3    3  501    0  0.29248467215E+02 -0.33076303529E+02 -0.16331304362E+03  0.16924170558E+03  0.47000000000E+01 0. -1.
        -11    1    4    4    0    0 -0.73920816924E+02  0.34194532454E+02 -0.10289672845E+03  0.13122991256E+03  0.00000000000E+00 0.  1.
         12    1    4    4    0    0 -0.11762038928E+02  0.28925890569E+02 -0.16853026279E+03  0.17139866447E+03  0.00000000000E+00 0. -1.
         -5    1    5    5    0  502  0.25043054449E+02  0.42730669275E+02 -0.48263159285E+03  0.48518904469E+03  0.47000000000E+01 0.  1.
         13    1    6    6    0    0 -0.21480816551E+02 -0.94424944255E+00 -0.10511419073E+03  0.10729077397E+03  0.00000000000E+00 0. -1.
        -14    1    6    6    0    0  0.52872150738E+02 -0.71830539326E+02 -0.26071212637E+03  0.27554655422E+03  0.00000000000E+00 0.  1.
</event>
<event>
12    1  0.1046899E+000  0.1832340E+03  0.7818608E-02  0.1165513E+00
         21   -1    0    0  503  502  0.00000000000E+00  0.00000000000E+00  0.97653844219E+02  0.97653844219E+02  0.00000000000E+00 0.  1.
         21   -1    0    0  501  503 -0.00000000000E+00 -0.00000000000E+00 -0.48757320868E+03  0.48757320868E+03  0.00000000000E+00 0.  1.
          6    2    1    2  501    0 -0.36433224037E+02 -0.41490946881E+02 -0.31385089585E+02  0.18258387172E+03  0.17118109673E+03 0.  0.
         24    2    3    3    0    0 -0.71225052203E+02 -0.71521643215E+02 -0.42235866305E+02  0.13512711894E+03  0.79291338496E+02 0.  0.
         -6    2    1    2    0  502  0.36433224037E+02  0.41490946881E+02 -0.35853427487E+03  0.40264318117E+03  0.17471641766E+03 0.  0.
        -24    2    5    5    0    0 -0.20351146671E+02 -0.14597303665E+02 -0.93191426381E+02  0.12551636209E+03  0.80264965940E+02 0.  0.
          5    1    3    3  501    0  0.34791828166E+02  0.30030696334E+02  0.10850776721E+02  0.47456752785E+02  0.47000000000E+01 0. -1.
        -11    1    4    4    0    0  0.99019793759E+01  0.20095229788E+01  0.96428141300E+01  0.13966790702E+02  0.00000000000E+00 0.  1.
         12    1    4    4    0    0 -0.81127031579E+02 -0.73531166194E+02 -0.51878680436E+02  0.12116032824E+03  0.00000000000E+00 0. -1.
         -5    1    5    5    0  502  0.56784370709E+02  0.56088250546E+02 -0.26534284849E+03  0.27712681908E+03  0.47000000000E+01 0.  1.
         13    1    6    6    0    0  0.37844681600E+01 -0.35069153924E+02 -0.10234694079E+02  0.36727601597E+02  0.00000000000E+00 0. -1.
        -14    1    6    6    0    0 -0.24135614831E+02  0.20471850259E+02 -0.82956732302E+02  0.88788760496E+02  0.00000000000E+00 0.  1.
</event>
<event>
12    1  0.1046899E+000  0.1833721E+03  0.7818608E-02  0.1165045E+00
         21   -1    0    0  503  502  0.00000000000E+00  0.00000000000E+00  0.30483428514E+02  0.30483428514E+02  0.00000000000E+00 0.  1.
         21   -1    0    0  501  503 -0.00000000000E+00 -0.00000000000E+00 -0.11336554004E+04  0.11336554004E+04  0.00000000000E+00 0.  1.
          6    2    1    2  501    0  0.19146219176E+01 -0.60568651617E+02 -0.66124221393E+03  0.68567539716E+03  0.17098905652E+03 0.  0.
         24    2    3    3    0    0 -0.34652903124E+02 -0.71082470798E+01 -0.37823643730E+03  0.39531431446E+03  0.10935837345E+03 0.  0.
         -6    2    1    2    0  502 -0.19146219176E+01  0.60568651617E+02 -0.44192975800E+03  0.47846343179E+03  0.17306968893E+03 0.  0.
        -24    2    5    5    0    0  0.25526176862E+02 -0.16087877176E+02 -0.31773262661E+03  0.32988268510E+03  0.83415576597E+02 0.  0.
          5    1    3    3  501    0  0.36567525041E+02 -0.53460404537E+02 -0.28300577663E+03  0.29036108270E+03  0.47000000000E+01 0. -1.
        -13    1    4    4    0    0  0.37261617132E+02  0.13002822425E+02 -0.15372965302E+03  0.15871454792E+03  0.00000000000E+00 0.  1.
         14    1    4    4    0    0 -0.71914520256E+02 -0.20111069505E+02 -0.22450678428E+03  0.23659976654E+03  0.00000000000E+00 0. -1.
         -5    1    5    5    0  502 -0.27440798779E+02  0.76656528792E+02 -0.12419713138E+03  0.14858074669E+03  0.47000000000E+01 0.  1.
         13    1    6    6    0    0 -0.46574665672E+01  0.75143983622E+01 -0.26256805956E+03  0.26271685153E+03  0.00000000000E+00 0. -1.
        -14    1    6    6    0    0  0.30183643429E+02 -0.23602275538E+02 -0.55164567054E+02  0.67165833573E+02  0.00000000000E+00 0.  1.
</event>
<event>
12    1  0.1046899E+000  0.2069418E+03  0.7818608E-02  0.1145008E+00
         21   -1    0    0  501  502  0.00000000000E+00  0.00000000000E+00  0.26382766843E+03  0.26382766843E+03  0.00000000000E+00 0.  1.
         21   -1    0    0  502  503 -0.00000000000E+00 -0.00000000000E+00 -0.15871073372E+03  0.15871073372E+03  0.00000000000E+00 0.  1.
         -6    2    1    2    0  503  0.11351308476E+02 -0.10894256437E+03  0.59314358343E+02  0.21058840032E+03  0.16979972528E+03 0.  0.
        -24    2    3    3    0    0 -0.22754128437E+02 -0.11816700029E+03  0.38339599953E+01  0.14464573093E+03  0.80165440859E+02 0.  0.
          6    2    1    2  501    0 -0.11351308476E+02  0.10894256437E+03  0.45802576370E+02  0.21195000183E+03  0.17557788226E+03 0.  0.
         24    2    5    5    0    0  0.53742739598E+02  0.56393936042E+02  0.61820251299E+02  0.12664320642E+03  0.78410459630E+02 0.  0.
          5    1    5    5  501    0 -0.65094048075E+02  0.52548628331E+02 -0.16017674928E+02  0.85306795417E+02  0.47000000000E+01 0. -1.
        -11    1    6    6    0    0 -0.15530422889E+02 -0.66045172376E+01  0.10262547455E+02  0.19751798989E+02  0.00000000000E+00 0.  1.
         12    1    6    6    0    0  0.69273162487E+02  0.62998453279E+02  0.51557703844E+02  0.10689140743E+03  0.00000000000E+00 0. -1.
         -5    1    3    3    0  503  0.34105436914E+02  0.92244359192E+01  0.55480398348E+02  0.65942669387E+02  0.47000000000E+01 0.  1.
         13    1    4    4    0    0  0.25591131680E+02 -0.41286674384E+02  0.19764047888E+02  0.52441520680E+02  0.00000000000E+00 0. -1.
        -14    1    4    4    0    0 -0.48345260117E+02 -0.76880325908E+02 -0.15930087893E+02  0.92204210250E+02  0.00000000000E+00 0.  1.
</event>
<event>
12    1  0.1046899E+000  0.1782645E+03  0.7818608E-02  0.1169662E+00
         21   -1    0    0  503  502  0.00000000000E+00  0.00000000000E+00  0.32574904636E+02  0.32574904636E+02  0.00000000000E+00 0.  1.
         21   -1    0    0  501  503 -0.00000000000E+00 -0.00000000000E+00 -0.13357147741E+04  0.13357147741E+04  0.00000000000E+00 0.  1.
          6    2    1    2  501    0  0.35349791362E+02 -0.31550204736E+02 -0.29355285871E+03  0.34308522743E+03  0.17114078782E+03 0.  0.
         24    2    3    3    0    0 -0.43139743534E+01 -0.81537366580E+02 -0.19676835205E+03  0.22706255124E+03  0.78566311385E+02 0.  0.
         -6    2    1    2    0  502 -0.35349791362E+02  0.31550204736E+02 -0.10095870107E+04  0.10252044513E+04  0.17185229569E+03 0.  0.
        -24    2    5    5    0    0  0.44839001496E+02  0.29801585945E+02 -0.60650841410E+03  0.61419624550E+03  0.80535091879E+02 0.  0.
          5    1    3    3  501    0  0.39663765715E+02  0.49987161844E+02 -0.96784506664E+02  0.11602267619E+03  0.47000000000E+01 0. -1.
        -11    1    4    4    0    0 -0.30719115809E+02 -0.12160205184E+02 -0.98597544888E+02  0.10398562653E+03  0.00000000000E+00 0.  1.
         12    1    4    4    0    0  0.26405141455E+02 -0.69377161395E+02 -0.98170807162E+02  0.12307692472E+03  0.00000000000E+00 0. -1.
         -5    1    5    5    0  502 -0.80188792857E+02  0.17486187912E+01 -0.40307859663E+03  0.41100820580E+03  0.47000000000E+01 0.  1.
         13    1    6    6    0    0  0.54623755968E+02 -0.73184327516E+01 -0.43292156040E+03  0.43641538886E+03  0.00000000000E+00 0. -1.
        -14    1    6    6    0    0 -0.97847544717E+01  0.37120018696E+02 -0.17358685370E+03  0.17778085664E+03  0.00000000000E+00 0.  1.
</event>
<event>
12    1  0.1046899E+000  0.1802186E+03  0.7818608E-02  0.1167710E+00
         21   -1    0    0  503  502  0.00000000000E+00  0.00000000000E+00  0.14087319055E+03  0.14087319055E+03  0.00000000000E+00 0.  1.
         21   -1    0    0  501  503 -0.00000000000E+00 -0.00000000000E+00 -0.23088268951E+03  0.23088268951E+03  0.00000000000E+00 0.  1.
          6    2    1    2  501    0  0.15037068688E+02 -0.53015893681E+02 -0.57032827474E+02  0.18902772631E+03  0.17158653644E+03 0.  0.
         24    2    3    3    0    0  0.61462655729E+02  0.84428736803E+01 -0.13853468464E+02  0.10060226469E+03  0.77974078430E+02 0.  0.
         -6    2    1    2    0  502 -0.15037068688E+02  0.53015893681E+02 -0.32976671487E+02  0.18272815375E+03  0.17107109310E+03 0.  0.
        -24    2    5    5    0    0 -0.95815103133E+00  0.71093622600E+02 -0.79579377442E+02  0.13058486648E+03  0.75261602505E+02 0.  0.
          5    1    3    3  501    0 -0.46425587041E+02 -0.61458767361E+02 -0.43179359010E+02  0.88425461617E+02  0.47000000000E+01 0. -1.
        -13    1    4    4    0    0  0.63509173727E+01  0.28984240588E+02 -0.27243557374E+02  0.40281903782E+02  0.00000000000E+00 0.  1.
         14    1    4    4    0    0  0.55111738357E+02 -0.20541366908E+02  0.13390088909E+02  0.60320360908E+02  0.00000000000E+00 0. -1.
         -5    1    5    5    0  502 -0.14078917657E+02 -0.18077728919E+02  0.46602705955E+02  0.52143287272E+02  0.47000000000E+01 0.  1.
         13    1    6    6    0    0  0.33752498917E+02  0.56457333063E+02 -0.53165647085E+02  0.84576874320E+02  0.00000000000E+00 0. -1.
        -14    1    6    6    0    0 -0.34710649948E+02  0.14636289537E+02 -0.26413730357E+02  0.46007992160E+02  0.00000000000E+00 0.  1.
</event>
<event>
12    1  0.1046899E+000  0.2448982E+03  0.7818608E-02  0.1116772E+00
         21   -1    0    0  503  502  0.00000000000E+00  0.00000000000E+00  0.21351456012E+03  0.21351456012E+03  0.00000000000E+00 0.  1.
         21   -1    0    0  501  503 -0.00000000000E+00 -0.00000000000E+00 -0.42739073528E+03  0.42739073528E+03  0.00000000000E+00 0.  1.
          6    2    1    2  501    0 -0.17243680373E+03  0.16579024808E+02  0.81750095238E+02  0.25701723594E+03  0.17136354966E+03 0.  0.
         24    2    3    3    0    0 -0.17773836793E+03 -0.15570641693E+02  0.59516702243E+02  0.21729165975E+03  0.10881201787E+03 0.  0.
         -6    2    1    2    0  502  0.17243680373E+03 -0.16579024808E+02 -0.29562627040E+03  0.38388805946E+03  0.17310642709E+03 0.  0.
        -24    2    5    5    0    0  0.95371210058E+02  0.54187903732E+02 -0.20167500124E+03  0.24318981895E+03  0.80227709061E+02 0.  0.
          5    1    3    3  501    0  0.53015642009E+01  0.32149666501E+02  0.22233392995E+02  0.39725576184E+02  0.47000000000E+01 0. -1.
        -11    1    4    4    0    0  0.98693008424E+01 -0.16088033194E+02 -0.38657097963E+01  0.19265814890E+02  0.00000000000E+00 0.  1.
         12    1    4    4    0    0 -0.18760766878E+03  0.51739150096E+00  0.63382412040E+02  0.19802584486E+03  0.00000000000E+00 0. -1.
         -5    1    5    5    0  502  0.77065593676E+02 -0.70766928540E+02 -0.93951269167E+02  0.14069824051E+03  0.47000000000E+01 0.  1.
         13    1    6    6    0    0  0.20077745614E+02  0.48653233882E+02 -0.44896634032E+02  0.69180638791E+02  0.00000000000E+00 0. -1.
        -14    1    6    6    0    0  0.75293464444E+02  0.55346698500E+01 -0.15677836720E+03  0.17400918016E+03  0.00000000000E+00 0.  1.
</event>
<event>
12    1  0.1046899E+000  0.2078880E+03  0.7818608E-02  0.1143698E+00
         21   -1    0    0  501  502  0.00000000000E+00  0.00000000000E+00  0.23175508558E+04  0.23175508558E+04  0.00000000000E+00 0. -1.
         21   -1    0    0  502  503 -0.00000000000E+00 -0.00000000000E+00 -0.95620443309E+02  0.95620443309E+02  0.00000000000E+00 0.  1.
         -6    2    1    2    0  503  0.41564266533E+02 -0.10514178801E+03  0.21937645794E+04  0.22033839789E+04  0.17180088752E+03 0.  0.
        -24    2    3    3    0    0  0.39338810752E+02 -0.14121819925E+03  0.19196289869E+04  0.19268358400E+04  0.78935321165E+02 0.  0.
          6    2    1    2  501    0 -0.41564266533E+02  0.10514178801E+03  0.28165833117E+02  0.20978732020E+03  0.17445636052E+03 0.  0.
         24    2    5    5    0    0 -0.19050257413E+02  0.12867259459E+03 -0.18710193905E+02  0.15251576204E+03  0.77404375901E+02 0.  0.
          5    1    5    5  501    0 -0.22514009121E+02 -0.23530806583E+02  0.46876027022E+02  0.57271558163E+02  0.47000000000E+01 0. -1.
        -11    1    6    6    0    0  0.11023814669E+02  0.30185384033E+02 -0.35825653694E+02  0.48126493345E+02  0.00000000000E+00 0.  1.
         12    1    6    6    0    0 -0.30074072082E+02  0.98487210556E+02  0.17115459789E+02  0.10438926869E+03  0.00000000000E+00 0. -1.
         -5    1    3    3    0  503  0.22254557809E+01  0.36076411239E+02  0.27413559243E+03  0.27654813892E+03  0.47000000000E+01 0.  1.
         13    1    4    4    0    0  0.70817590152E+01  0.97883152701E+01  0.14113845843E+03  0.14165460414E+03  0.00000000000E+00 0. -1.
        -14    1    4    4    0    0  0.32257051737E+02 -0.15100651452E+03  0.17784905285E+04  0.17851812358E+04  0.00000000000E+00 0.  1.
</event>
<event>
12    1  0.1046899E+000  0.2390264E+03  0.7818608E-02  0.1120789E+00
         21   -1    0    0  503  502  0.00000000000E+00  0.00000000000E+00  0.10802915523E+03  0.10802915523E+03  0.00000000000E+00 0. -1.
         21   -1    0    0  501  503 -0.00000000000E+00 -0.00000000000E+00 -0.53075299767E+03  0.53075299767E+03  0.00000000000E+00 0. -1.
          6    2    1    2  501    0 -0.87235122669E+02 -0.13754665227E+03 -0.17712861310E+03  0.29750325652E+03  0.17494168709E+03 0.  0.
         24    2    3    3    0    0  0.42191607216E+01 -0.13281042892E+02 -0.37284936380E+02  0.89214582935E+02  0.79842895175E+02 0.  0.
         -6    2    1    2    0  502  0.87235122669E+02  0.13754665227E+03 -0.24559522934E+03  0.34127889638E+03  0.17211978463E+03 0.  0.
        -24    2    5    5    0    0  0.11451304634E+03  0.63136303258E+02 -0.19066302720E+03  0.24473552793E+03  0.80272399490E+02 0.  0.
          5    1    3    3  501    0 -0.91454283391E+02 -0.12426560938E+03 -0.13984367672E+03  0.20828867359E+03  0.47000000000E+01 0. -1.
        -11    1    4    4    0    0 -0.33388938210E+02 -0.17297936880E+02 -0.22689098001E+01  0.37672108606E+02  0.00000000000E+00 0.  1.
         12    1    4    4    0    0  0.37608098932E+02  0.40168939873E+01 -0.35016026580E+02  0.51542474330E+02  0.00000000000E+00 0. -1.
         -5    1    5    5    0  502 -0.27277923667E+02  0.74410349015E+02 -0.54932202144E+02  0.96543368454E+02  0.47000000000E+01 0.  1.
         13    1    6    6    0    0  0.30465801122E+02 -0.11887749433E+02 -0.81698235965E+02  0.88000485137E+02  0.00000000000E+00 0. -1.
        -14    1    6    6    0    0  0.84047245215E+02  0.75024052691E+02 -0.10896479123E+03  0.15673504279E+03  0.00000000000E+00 0.  1.
</event>
<event>
12    1  0.1046899E+000  0.3736596E+03  0.7818608E-02  0.1053518E+00
         21   -1    0    0  503  502  0.00000000000E+00  0.00000000000E+00  0.13578480152E+04  0.13578480152E+04  0.00000000000E+00 0. -1.
         21   -1    0    0  501  503 -0.00000000000E+00 -0.00000000000E+00 -0.12921832130E+03  0.12921832130E+03  0.00000000000E+00 0. -1.
          6    2    1    2  501    0  0.32121362034E+03  0.85798084993E+02  0.27580652895E+03  0.46442514027E+03  0.17053436084E+03 0.  0.
         24    2    3    3    0    0  0.25937854234E+03  0.12135995722E+02  0.23793241744E+03  0.36095428163E+03  0.79067360749E+02 0.  0.
         -6    2    1    2    0  502 -0.32121362034E+03 -0.85798084993E+02  0.95282316497E+03  0.10226411962E+04  0.16547970052E+03 0.  0.
        -24    2    5    5    0    0 -0.19539702130E+03 -0.76594516126E+02  0.75797251040E+03  0.79047016046E+03  0.79208788800E+02 0.  0.
          5    1    3    3  501    0  0.61835077997E+02  0.73662089271E+02  0.37874111509E+02  0.10347085865E+03  0.47000000000E+01 0. -1.
        -13    1    4    4    0    0  0.36977457666E+02  0.53786105985E-01  0.79334216669E+02  0.87528585062E+02  0.00000000000E+00 0.  1.
         14    1    4    4    0    0  0.22240108467E+03  0.12082209616E+02  0.15859820078E+03  0.27342569656E+03  0.00000000000E+00 0. -1.
         -5    1    5    5    0  502 -0.12581659903E+03 -0.92035688665E+01  0.19485065457E+03  0.23217103579E+03  0.47000000000E+01 0.  1.
         13    1    6    6    0    0 -0.14897296368E+03 -0.86792855181E+02  0.65041146709E+03  0.67287518913E+03  0.00000000000E+00 0. -1.
        -14    1    6    6    0    0 -0.46424057622E+02  0.10198339054E+02  0.10756104331E+03  0.11759497133E+03  0.00000000000E+00 0.  1.
</event>
<event>
12    1  0.1046899E+000  0.2653089E+03  0.7818608E-02  0.1104094E+00
         21   -1    0    0  501  502  0.00000000000E+00  0.00000000000E+00  0.72978463287E+03  0.72978463287E+03  0.00000000000E+00 0.  1.
         21   -1    0    0  502  503 -0.00000000000E+00 -0.00000000000E+00 -0.10150182222E+03  0.10150182222E+03  0.00000000000E+00 0.  1.
         -6    2    1    2    0  503  0.16534810382E+03  0.11573648487E+03  0.40946397126E+03  0.48790323718E+03  0.17220306536E+03 0.  0.
        -24    2    3    3    0    0  0.12484326317E+03  0.83063584122E+01  0.26939741038E+03  0.30673313571E+03  0.76520689200E+02 0.  0.
          6    2    1    2  501    0 -0.16534810382E+03 -0.11573648487E+03  0.21881883939E+03  0.34338321791E+03  0.17115905031E+03 0.  0.
         24    2    5    5    0    0 -0.18012759459E+03 -0.89592572367E+02  0.16699942764E+03  0.28330594315E+03  0.10909018853E+03 0.  0.
          5    1    5    5  501    0  0.14779490776E+02 -0.26143912503E+02  0.51819411746E+02  0.60077274757E+02  0.47000000000E+01 0. -1.
        -13    1    6    6    0    0 -0.67161878792E+02  0.19792650756E+02  0.36490398698E+02  0.78955786260E+02  0.00000000000E+00 0.  1.
         14    1    6    6    0    0 -0.11296571580E+03 -0.10938522312E+03  0.13050902895E+03  0.20435015689E+03  0.00000000000E+00 0. -1.
         -5    1    3    3    0  503  0.40504840643E+02  0.10743012646E+03  0.14006656088E+03  0.18117010146E+03  0.47000000000E+01 0.  1.
         11    1    4    4    0    0  0.17152810255E+02 -0.80298080277E+01  0.33249355401E+01  0.19228934264E+02  0.00000000000E+00 0. -1.
        -12    1    4    4    0    0  0.10769045292E+03  0.16336166440E+02  0.26607247484E+03  0.28750420145E+03  0.00000000000E+00 0.  1.
</event>
<event>
12    1  0.1046899E+000  0.2933658E+03  0.7818608E-02  0.1088714E+00
         21   -1    0    0  501  502  0.00000000000E+00  0.00000000000E+00  0.17809965449E+03  0.17809965449E+03  0.00000000000E+00 0.  1.
         21   -1    0    0  502  503 -0.00000000000E+00 -0.00000000000E+00 -0.97744585300E+03  0.97744585300E+03  0.00000000000E+00 0.  1.
         -6    2    1    2    0  503  0.12294393993E+03  0.20147043471E+03  0.12026385436E+02  0.29276570280E+03  0.17280501833E+03 0.  0.
        -24    2    3    3    0    0 -0.61057279725E+01  0.97477102755E+02 -0.64703841927E+00  0.12647939684E+03  0.80358905484E+02 0.  0.
          6    2    1    2  501    0 -0.12294393993E+03 -0.20147043471E+03 -0.81137258395E+03  0.86277980470E+03  0.17423539532E+03 0.  0.
         24    2    5    5    0    0 -0.10421650648E+03 -0.80942180670E+02 -0.30774619547E+03  0.34457192560E+03  0.81298058110E+02 0.  0.
          5    1    5    5  501    0 -0.18727433454E+02 -0.12052825404E+03 -0.50362638847E+03  0.51820787909E+03  0.47000000000E+01 0. -1.
        -11    1    6    6    0    0 -0.20066773849E+02 -0.58295796846E+02 -0.82015388068E+02  0.10260408970E+03  0.00000000000E+00 0.  1.
         12    1    6    6    0    0 -0.84149732627E+02 -0.22646383823E+02 -0.22573080741E+03  0.24196783591E+03  0.00000000000E+00 0. -1.
         -5    1    3    3    0  503  0.12904966790E+03  0.10399333196E+03  0.12673423856E+02  0.16628630596E+03  0.47000000000E+01 0.  1.
         11    1    4    4    0    0 -0.12843872108E+02  0.11034649348E+03  0.41847325880E+01  0.11117025529E+03  0.00000000000E+00 0. -1.
        -12    1    4    4    0    0  0.67381441353E+01 -0.12869390724E+02 -0.48317710073E+01  0.15309141552E+02  0.00000000000E+00 0.  1.
</event>
<event>
12    1  0.1046899E+000  0.3970628E+03  0.7818608E-02  0.1044834E+00
         21   -1    0    0  501  502  0.00000000000E+00  0.00000000000E+00  0.20553725657E+03  0.20553725657E+03  0.00000000000E+00 0.  1.
         21   -1    0    0  502  503 -0.00000000000E+00 -0.00000000000E+00 -0.88880491599E+03  0.88880491599E+03  0.00000000000E+00 0.  1.
         -6    2    1    2    0  503 -0.28562345754E+03 -0.21538648621E+03 -0.13866607530E+03  0.42057953370E+03  0.17229847879E+03 0.  0.
        -24    2    3    3    0    0 -0.91139686745E+02 -0.35289029048E+02 -0.76728062285E+02  0.14833435260E+03  0.81019297379E+02 0.  0.
          6    2    1    2  501    0  0.28562345754E+03  0.21538648621E+03 -0.54460158413E+03  0.67376263885E+03  0.17144418958E+03 0.  0.
         24    2    5    5    0    0  0.74828035158E+02  0.96409223546E+02 -0.27991514846E+03  0.31505482133E+03  0.77544031832E+02 0.  0.
          5    1    5    5  501    0  0.21079542238E+03  0.11897726267E+03 -0.26468643567E+03  0.35870781752E+03  0.47000000000E+01 0. -1.
        -13    1    6    6    0    0 -0.15244057299E+02  0.59472651136E+01 -0.23717936824E+02  0.28814783921E+02  0.00000000000E+00 0.  1.
         14    1    6    6    0    0  0.90072092457E+02  0.90461958432E+02 -0.25619721164E+03  0.28624003741E+03  0.00000000000E+00 0. -1.
         -5    1    3    3    0  503 -0.19448377079E+03 -0.18009745716E+03 -0.61938013013E+02  0.27224518111E+03  0.47000000000E+01 0.  1.
         11    1    4    4    0    0 -0.34351411027E+02 -0.54529856598E+02 -0.24937026717E+02  0.69104124346E+02  0.00000000000E+00 0. -1.
        -12    1    4    4    0    0 -0.56788275718E+02  0.19240827550E+02 -0.51791035568E+02  0.79230228253E+02  0.00000000000E+00 0.  1.
</event>
<event>
12    1  0.1046899E+000  0.3797535E+03  0.7818608E-02  0.1051104E+00
         21   -1    0    0  501  502  0.00000000000E+00  0.00000000000E+00  0.99110199541E+03  0.99110199541E+03  0.00000000000E+00 0. -1.
         21   -1    0    0  502  503 -0.00000000000E+00 -0.00000000000E+00 -0.15211644127E+03  0.15211644127E+03  0.00000000000E+00 0. -1.
         -6    2    1    2    0  503  0.28104007304E+03  0.18841001146E+03  0.29699443707E+03  0.48142762829E+03  0.17054328060E+03 0.  0.
        -24    2    3    3    0    0  0.11535134556E+03  0.14362865480E+03  0.11645401014E+03  0.23227895767E+03  0.80354553665E+02 0.  0.
          6    2    1    2  501    0 -0.28104007304E+03 -0.18841001146E+03  0.54199111707E+03  0.66179080839E+03  0.17242635533E+03 0.  0.
         24    2    5    5    0    0 -0.11529016919E+03 -0.40934944112E+02  0.28476047802E+03  0.32206795402E+03  0.87588494688E+02 0.  0.
          5    1    5    5  501    0 -0.16574990385E+03 -0.14747506735E+03  0.25723063906E+03  0.33972285438E+03  0.47000000000E+01 0. -1.
        -13    1    6    6    0    0 -0.10816557198E+03 -0.60627765142E+02  0.20482130182E+03  0.23943116453E+03  0.00000000000E+00 0.  1.
         14    1    6    6    0    0 -0.71245972072E+01  0.19692821030E+02  0.79939176200E+02  0.82636789489E+02  0.00000000000E+00 0. -1.
         -5    1    3    3    0  503  0.16568872748E+03  0.44781356657E+02  0.18054042692E+03  0.24914867062E+03  0.47000000000E+01 0.  1.
         11    1    4    4    0    0 -0.85584235830E+00 -0.59085654909E+00 -0.86898489111E+01  0.87518598996E+01  0.00000000000E+00 0. -1.
        -12    1    4    4    0    0  0.11620718792E+03  0.14421951135E+03  0.12514385905E+03  0.22352709777E+03  0.00000000000E+00 0.  1.
</event>
<event>
12    1  0.2634138E+000  0.1908261E+03  0.7818608E-02  0.1157827E+00
         21   -1    0    0  503  502  0.00000000000E+00  0.00000000000E+00  0.44714852547E+03  0.44714852547E+03  0.00000000000E+00 0.  1.
         21   -1    0    0  501  503 -0.00000000000E+00 -0.00000000000E+00 -0.88704072037E+03  0.88704072037E+03  0.00000000000E+00 0.  1.
          6    2    1    2  501    0 -0.43547125657E+02  0.67866872118E+02  0.41589615252E+03  0.45738351487E+03  0.17241753247E+03 0.  0.
         24    2    3    3    0    0 -0.91768958486E+02  0.67755530328E+02  0.33887858217E+03  0.36639365993E+03  0.79957907366E+02 0.  0.
         -6    2    1    2    0  502  0.43547125657E+02 -0.67866872118E+02 -0.85578834742E+03  0.87680573097E+03  0.17295181349E+03 0.  0.
        -24    2    5    5    0    0  0.68432668822E+02 -0.98753724299E+02 -0.54357729845E+03  0.56205008448E+03  0.77386625767E+02 0.  0.
          5    1    3    3  501    0  0.48221832829E+02  0.11134179016E+00  0.77017570349E+02  0.90989854934E+02  0.47000000000E+01 0. -1.
        -11    1    4    4    0    0 -0.22979243763E+02 -0.48715601770E+01  0.16121403555E+02  0.28489952528E+02  0.00000000000E+00 0.  1.
         12    1    4    4    0    0 -0.68789714723E+02  0.72627090505E+02  0.32275717862E+03  0.33790370740E+03  0.00000000000E+00 0. -1.
         -5    1    5    5    0  502 -0.24885543164E+02  0.30886852181E+02 -0.31221104897E+03  0.31475564649E+03  0.47000000000E+01 0.  1.
         13    1    6    6    0    0  0.39729579613E+02 -0.49691797874E+02 -0.43369263186E+03  0.43833436233E+03  0.00000000000E+00 0. -1.
        -14    1    6    6    0    0  0.28703089208E+02 -0.49061926425E+02 -0.10988466659E+03  0.12371572215E+03  0.00000000000E+00 0.  1.
</event>
<event>
12    1  0.1046899E+000  0.1823405E+03  0.7818608E-02  0.1165567E+00
         21   -1    0    0  501  502  0.00000000000E+00  0.00000000000E+00  0.69649531630E+03  0.69649531630E+03  0.00000000000E+00 0.  1.
         21   -1    0    0  502  503 -0.00000000000E+00 -0.00000000000E+00 -0.64086088191E+02  0.64086088191E+02  0.00000000000E+00 0.  1.
         -6    2    1    2    0  503  0.37997040211E+02 -0.42955208514E+02  0.50832754011E+03  0.54002683640E+03  0.17304095180E+03 0.  0.
        -24    2    3    3    0    0  0.91088254888E+02 -0.26908340269E+02  0.31024841062E+03  0.33427550447E+03  0.80404649349E+02 0.  0.
          6    2    1    2  501    0 -0.37997040211E+02  0.42955208514E+02  0.12408168800E+03  0.22055456809E+03  0.17308705094E+03 0.  0.
         24    2    5    5    0    0 -0.89258109946E+02  0.17598571148E+02  0.62350485118E+02  0.13627237698E+03  0.80036603097E+02 0.  0.
          5    1    5    5  501    0  0.51261069736E+02  0.25356637366E+02  0.61731202883E+02  0.84282191110E+02  0.47000000000E+01 0. -1.
        -11    1    6    6    0    0 -0.20895091455E+02  0.29736178673E+02 -0.82316410045E+01  0.37263991770E+02  0.00000000000E+00 0.  1.
         12    1    6    6    0    0 -0.68363018491E+02 -0.12137607525E+02  0.70582126123E+02  0.99008385209E+02  0.00000000000E+00 0. -1.
         -5    1    3    3    0  503 -0.53091214677E+02 -0.16046868244E+02  0.19807912949E+03  0.20575133194E+03  0.47000000000E+01 0.  1.
         13    1    4    4    0    0  0.74707019117E+02  0.26595929742E+01  0.12249439810E+03  0.14350292577E+03  0.00000000000E+00 0. -1.
        -14    1    4    4    0    0  0.16381235771E+02 -0.29567933244E+02  0.18775401252E+03  0.19077257869E+03  0.00000000000E+00 0.  1.
</event>
<event>
12    1  0.1046899E+000  0.1927086E+03  0.7818608E-02  0.1156488E+00
         21   -1    0    0  503  502  0.00000000000E+00  0.00000000000E+00  0.79365841884E+03  0.79365841884E+03  0.00000000000E+00 0.  1.
         21   -1    0    0  501  503 -0.00000000000E+00 -0.00000000000E+00 -0.48018551584E+02  0.48018551584E+02  0.00000000000E+00 0.  1.
          6    2    1    2  501    0  0.29314179386E+02  0.82373879117E+02  0.29519979372E+03  0.35253302695E+03  0.17173188349E+03 0.  0.
         24    2    3    3    0    0 -0.16462113856E+02  0.10586998430E+02  0.23185318691E+03  0.24630822827E+03  0.80800725874E+02 0.  0.
         -6    2    1    2    0  502 -0.29314179386E+02 -0.82373879117E+02  0.45044007354E+03  0.48914394347E+03  0.16947200510E+03 0.  0.
        -24    2    5    5    0    0 -0.51827313364E+02 -0.34711651982E+02  0.13323716248E+03  0.16755677663E+03  0.80200765169E+02 0.  0.
          5    1    3    3  501    0  0.45776293242E+02  0.71786880687E+02  0.63346606801E+02  0.10622479868E+03  0.47000000000E+01 0. -1.
        -13    1    4    4    0    0  0.22938326350E+02  0.27685895244E+02  0.14532520553E+03  0.14970668313E+03  0.00000000000E+00 0.  1.
         14    1    4    4    0    0 -0.39400440206E+02 -0.17098896814E+02  0.86527981383E+02  0.96601545137E+02  0.00000000000E+00 0. -1.
         -5    1    5    5    0  502  0.22513133979E+02 -0.47662227135E+02  0.31720291106E+03  0.32158716685E+03  0.47000000000E+01 0.  1.
         11    1    6    6    0    0 -0.47563026426E+02 -0.59363461903E+02  0.10722113272E+03  0.13146342987E+03  0.00000000000E+00 0. -1.
        -12    1    6    6    0    0 -0.42642869381E+01  0.24651809920E+02  0.26016029760E+02  0.36093346754E+02  0.00000000000E+00 0.  1.
</event>
<event>
12    1  0.1084242E+000  0.3686078E+03  0.7818608E-02  0.1055242E+00
         21   -1    0    0  501  502  0.00000000000E+00  0.00000000000E+00  0.38937885414E+03  0.38937885414E+03  0.00000000000E+00 0.  1.
         21   -1    0    0  502  503 -0.00000000000E+00 -0.00000000000E+00 -0.55250996848E+03  0.55250996848E+03  0.00000000000E+00 0. -1.
         -6    2    1    2    0  503  0.27587458639E+03 -0.17260535662E+03  0.20438899744E+03  0.42148142772E+03  0.17312520062E+03 0.  0.
        -24    2    3    3    0    0  0.28615303843E+03 -0.17034012292E+03  0.16524441981E+03  0.38067498438E+03  0.81904862952E+02 0.  0.
          6    2    1    2  501    0 -0.27587458639E+03  0.17260535662E+03 -0.36752011179E+03  0.52040739490E+03  0.17278144447E+03 0.  0.
         24    2    5    5    0    0 -0.27256248913E+03  0.17313951433E+03 -0.38158200166E+03  0.50520601142E+03  0.73216719965E+02 0.  0.
          5    1    5    5  501    0 -0.33120972568E+01 -0.53415770668E+00  0.14061889878E+02  0.15201383477E+02  0.47000000000E+01 0. -1.
        -13    1    6    6    0    0 -0.86992074537E+02  0.22947537674E+02 -0.78568434817E+02  0.11944542464E+03  0.00000000000E+00 0.  1.
         14    1    6    6    0    0 -0.18557041459E+03  0.15019197665E+03 -0.30301356685E+03  0.38576058678E+03  0.00000000000E+00 0. -1.
         -5    1    3    3    0  503 -0.10278452047E+02 -0.22652337054E+01  0.39144577628E+02  0.40806443338E+02  0.47000000000E+01 0.  1.
         11    1    4    4    0    0  0.36795649155E+02  0.47980117653E+01  0.87652558254E+01  0.38128341471E+02  0.00000000000E+00 0. -1.
        -12    1    4    4    0    0  0.24935738928E+03 -0.17513813468E+03  0.15647916399E+03  0.34254664291E+03  0.00000000000E+00 0.  1.
</event>
<event>
12    1  0.1046899E+000  0.2275485E+03  0.7818608E-02  0.1128401E+00
         21   -1    0    0  501  502  0.00000000000E+00  0.00000000000E+00  0.39643273831E+03  0.39643273831E+03  0.00000000000E+00 0.  1.
         21   -1    0    0  502  503 -0.00000000000E+00 -0.00000000000E+00 -0.13282029532E+03  0.13282029532E+03  0.00000000000E+00 0.  1.
         -6    2    1    2    0  503 -0.10537927428E+03  0.10466875918E+03  0.16656771503E+03  0.28199846013E+03  0.17238905775E+03 0.  0.
        -24    2    3    3    0    0 -0.13240905485E+03  0.11689606883E+03  0.12446173399E+03  0.23027690004E+03  0.79623355550E+02 0.  0.
          6    2    1    2  501    0  0.10537927428E+03 -0.10466875918E+03  0.97044727958E+02  0.24725457350E+03  0.17221151035E+03 0.  0.
         24    2    5    5    0    0  0.77074396585E+01 -0.33067688817E+02 -0.75047091619E+01  0.87194661724E+02  0.79960688490E+02 0.  0.
          5    1    5    5  501    0  0.97671834620E+02 -0.71601070358E+02  0.10454943712E+03  0.16005991177E+03  0.47000000000E+01 0. -1.
        -11    1    6    6    0    0 -0.47147506259E+01 -0.55569632535E+02  0.92242547744E+01  0.56526983023E+02  0.00000000000E+00 0.  1.
         12    1    6    6    0    0  0.12422190284E+02  0.22501943718E+02 -0.16728963936E+02  0.30667678701E+02  0.00000000000E+00 0. -1.
         -5    1    3    3    0  503  0.27029780576E+02 -0.12227309650E+02  0.42105981043E+02  0.51721560097E+02  0.47000000000E+01 0.  1.
         11    1    4    4    0    0 -0.53156852383E+02  0.18177933096E+02  0.53118791176E+01  0.56429639966E+02  0.00000000000E+00 0. -1.
        -12    1    4    4    0    0 -0.79252202470E+02  0.98718135730E+02  0.11914985487E+03  0.17384726007E+03  0.00000000000E+00 0.  1.
</event>
<event>
12    1  0.1046899E+000  0.1918661E+03  0.7818608E-02  0.1158429E+00
         21   -1    0    0  501  502  0.00000000000E+00  0.00000000000E+00  0.18241304269E+03  0.18241304269E+03  0.00000000000E+00 0. -1.
         21   -1    0    0  502  503 -0.00000000000E+00 -0.00000000000E+00 -0.20665883221E+03  0.20665883221E+03  0.00000000000E+00 0. -1.
         -6    2    1    2    0  503  0.47948356979E+02  0.46987543546E+02 -0.59492024502E+02  0.19399524868E+03  0.17201157328E+03 0.  0.
        -24    2    3    3    0    0 -0.34289321832E+02 -0.55645633552E+01 -0.19999790319E+02  0.88607932946E+02  0.79023111880E+02 0.  0.
          6    2    1    2  501    0 -0.47948356979E+02 -0.46987543546E+02  0.35246234980E+02  0.19507662622E+03  0.17973791707E+03 0.  0.
         24    2    5    5    0    0  0.13909136903E+02 -0.59183856110E+02 -0.24455473516E+01  0.12147051204E+03  0.10513282875E+03 0.  0.
          5    1    5    5  501    0 -0.61857493883E+02  0.12196312565E+02  0.37691782331E+02  0.73606114182E+02  0.47000000000E+01 0. -1.
        -13    1    6    6    0    0 -0.27068388319E+02 -0.37836787117E+02 -0.40446726912E+02  0.61646231218E+02  0.00000000000E+00 0.  1.
         14    1    6    6    0    0  0.40977525222E+02 -0.21347068993E+02  0.38001179560E+02  0.59824280822E+02  0.00000000000E+00 0. -1.
         -5    1    3    3    0  503  0.82237678811E+02  0.52552106901E+02 -0.39492234183E+02  0.10538731573E+03  0.47000000000E+01 0.  1.
         13    1    4    4    0    0  0.13454461793E+02 -0.29659520697E+02 -0.41661415560E+01  0.32833922178E+02  0.00000000000E+00 0. -1.
        -14    1    4    4    0    0 -0.47743783624E+02  0.24094957342E+02 -0.15833648763E+02  0.55774010769E+02  0.00000000000E+00 0.  1.
</event>
<event>
12    1  0.1046899E+000  0.2281021E+03  0.7818608E-02  0.1129703E+00
         21   -1    0    0  501  502  0.00000000000E+00  0.00000000000E+00  0.28820733004E+03  0.28820733004E+03  0.00000000000E+00 0. -1.
         21   -1    0    0  502  503 -0.00000000000E+00 -0.00000000000E+00 -0.17579809400E+03  0.17579809400E+03  0.00000000000E+00 0. -1.
         -6    2    1    2    0  503  0.21011948343E+02  0.13589038974E+03  0.83631673985E+02  0.23409523643E+03  0.16999594944E+03 0.  0.
        -24    2    3    3    0    0 -0.80022733354E+01  0.10032960590E+02 -0.88057557515E+00  0.79672673765E+02  0.78627367086E+02 0.  0.
          6    2    1    2  501    0 -0.21011948343E+02 -0.13589038974E+03  0.28777562056E+02  0.22991018761E+03  0.18199683044E+03 0.  0.
         24    2    5    5    0    0 -0.70991213675E+02 -0.32397041677E+02  0.27728783932E+02  0.11487980035E+03  0.79618856701E+02 0.  0.
          5    1    5    5  501    0  0.49979265332E+02 -0.10349334807E+03  0.10487781235E+01  0.11503038726E+03  0.47000000000E+01 0. -1.
        -13    1    6    6    0    0 -0.48744637928E+02 -0.56737345594E+02  0.32509313986E+02  0.81559926481E+02  0.00000000000E+00 0.  1.
         14    1    6    6    0    0 -0.22246575747E+02  0.24340303917E+02 -0.47805300535E+01  0.33319873872E+02  0.00000000000E+00 0. -1.
         -5    1    3    3    0  503  0.29014221678E+02  0.12585742915E+03  0.84512249560E+02  0.15442256266E+03  0.47000000000E+01 0.  1.
         13    1    4    4    0    0  0.24862255982E+02  0.10802696225E+02 -0.26565572855E+02  0.37954705629E+02  0.00000000000E+00 0. -1.
        -14    1    4    4    0    0 -0.32864529317E+02 -0.76973563533E+00  0.25684997280E+02  0.41717968137E+02  0.00000000000E+00 0.  1.
</event>
<event>
12    1  0.1046899E+000  0.2048572E+03  0.7818608E-02  0.1145862E+00
         21   -1    0    0  501  502  0.00000000000E+00  0.00000000000E+00  0.54920951626E+02  0.54920951626E+02  0.00000000000E+00 0. -1.
         21   -1    0    0  502  503 -0.00000000000E+00 -0.00000000000E+00 -0.10883617383E+04  0.10883617383E+04  0.00000000000E+00 0. -1.
         -6    2    1    2    0  503  0.89705395407E+02 -0.65870265050E+02 -0.20265062480E+03  0.28760824370E+03  0.17107096869E+03 0.  0.
        -24    2    3    3    0    0  0.58854014737E+02  0.25123270674E+02 -0.14436353106E+03  0.17513110589E+03  0.75730452061E+02 0.  0.
          6    2    1    2  501    0 -0.89705395407E+02  0.65870265050E+02 -0.83079016190E+03  0.85567444626E+03  0.17198986913E+03 0.  0.
         24    2    5    5    0    0 -0.57928270669E+01  0.40983868304E+02 -0.62752678941E+03  0.63431785506E+03  0.82801180660E+02 0.  0.
          5    1    5    5  501    0 -0.83912568340E+02  0.24886396746E+02 -0.20326337250E+03  0.22135659120E+03  0.47000000000E+01 0. -1.
        -13    1    6    6    0    0 -0.20330604627E+02  0.52814385664E+02 -0.58636373650E+03  0.58908838411E+03  0.00000000000E+00 0.  1.
         14    1    6    6    0    0  0.14537777560E+02 -0.11830517360E+02 -0.41163052910E+02  0.45229470948E+02  0.00000000000E+00 0. -1.
         -5    1    3    3    0  503  0.30851380669E+02 -0.90993535724E+02 -0.58287093735E+02  0.11247713780E+03  0.47000000000E+01 0.  1.
         13    1    4    4    0    0  0.47808331249E+02 -0.16612031562E+02 -0.48978074443E+02  0.70430447291E+02  0.00000000000E+00 0. -1.
        -14    1    4    4    0    0  0.11045683488E+02  0.41735302236E+02 -0.95385456621E+02  0.10470065860E+03  0.00000000000E+00 0.  1.
</event>
<event>
12    1  0.1046899E+000  0.2252965E+03  0.7818608E-02  0.1130031E+00
         21   -1    0    0  501  502  0.00000000000E+00  0.00000000000E+00  0.44072212941E+03  0.44072212941E+03  0.00000000000E+00 0.  1.
         21   -1    0    0  502  503 -0.00000000000E+00 -0.00000000000E+00 -0.24763432287E+03  0.24763432287E+03  0.00000000000E+00 0.  1.
         -6    2    1    2    0  503  0.48265462865E+02 -0.13833575996E+03  0.34838535219E+03  0.41488654666E+03  0.17114951239E+03 0.  0.
        -24    2    3    3    0    0  0.18343674347E+02 -0.61185111295E+02  0.30447239827E+03  0.32108903316E+03  0.79464568677E+02 0.  0.
          6    2    1    2  501    0 -0.48265462865E+02  0.13833575996E+03 -0.15529754564E+03  0.27346990563E+03  0.17088629030E+03 0.  0.
         24    2    5    5    0    0  0.30192543978E+02  0.51620941883E+02 -0.10432312566E+03  0.14581568516E+03  0.82477803906E+02 0.  0.
          5    1    5    5  501    0 -0.78458006844E+02  0.86714818072E+02 -0.50974419984E+02  0.12765422047E+03  0.47000000000E+01 0. -1.
        -13    1    6    6    0    0 -0.16007273933E+01  0.57979744448E+02 -0.96294163711E+02  0.11241342918E+03  0.00000000000E+00 0.  1.
         14    1    6    6    0    0  0.31793271372E+02 -0.63588025644E+01 -0.80289619494E+01  0.33402255980E+02  0.00000000000E+00 0. -1.
         -5    1    3    3    0  503  0.29921788519E+02 -0.77150648660E+02  0.43912953918E+02  0.93797513499E+02  0.47000000000E+01 0.  1.
         13    1    4    4    0    0 -0.27430799059E+02 -0.21774726086E+02  0.62016925900E+02  0.71222795026E+02  0.00000000000E+00 0. -1.
        -14    1    4    4    0    0  0.45774473405E+02 -0.39410385209E+02  0.24245547237E+03  0.24986623813E+03  0.00000000000E+00 0.  1.
</event>
<event>
12    1  0.1046899E+000  0.2099559E+03  0.7818608E-02  0.1141656E+00
         21   -1    0    0  503  502  0.00000000000E+00  0.00000000000E+00  0.33407551421E+02  0.33407551421E+02  0.00000000000E+00 0.  1.
         21   -1    0    0  501  503 -0.00000000000E+00 -0.00000000000E+00 -0.14535256554E+04  0.14535256554E+04  0.00000000000E+00 0.  1.
          6    2    1    2  501    0 -0.10907587796E+03 -0.47979628550E+02 -0.93771384074E+03  0.96093116626E+03  0.17286372459E+03 0.  0.
         24    2    3    3    0    0 -0.12025076391E+03 -0.87910564143E+02 -0.78884461860E+03  0.80632362119E+03  0.75454862606E+02 0.  0.
         -6    2    1    2    0  502  0.10907587796E+03  0.47979628550E+02 -0.48240426326E+03  0.52600204058E+03  0.17252443759E+03 0.  0.
        -24    2    5    5    0    0  0.12423708096E+03  0.58658120818E+02 -0.27294727936E+03  0.31567322567E+03  0.79206948381E+02 0.  0.
          5    1    3    3  501    0  0.11174885946E+02  0.39930935593E+02 -0.14886922214E+03  0.15460754507E+03  0.47000000000E+01 0. -1.
        -11    1    4    4    0    0 -0.20597518854E+02 -0.56833860320E+02 -0.22988317035E+03  0.23769858534E+03  0.00000000000E+00 0.  1.
         12    1    4    4    0    0 -0.99653245057E+02 -0.31076703823E+02 -0.55896144825E+03  0.56862503585E+03  0.00000000000E+00 0. -1.
         -5    1    5    5    0  502 -0.15161203000E+02 -0.10678492268E+02 -0.20945698390E+03  0.21032881490E+03  0.47000000000E+01 0.  1.
         13    1    6    6    0    0  0.70649892681E+02  0.73896463129E+02 -0.16282442579E+03  0.19225994964E+03  0.00000000000E+00 0. -1.
        -14    1    6    6    0    0  0.53587188284E+02 -0.15238342311E+02 -0.11012285357E+03  0.12341327604E+03  0.00000000000E+00 0.  1.
</event>
<event>
12    1  0.1046899E+000  0.3015117E+03  0.7818608E-02  0.1084663E+00
         21   -1    0    0  501  502  0.00000000000E+00  0.00000000000E+00  0.43907121194E+02  0.43907121194E+02  0.00000000000E+00 0.  1.
         21   -1    0    0  502  503 -0.00000000000E+00 -0.00000000000E+00 -0.21622212071E+04  0.21622212071E+04  0.00000000000E+00 0. -1.
         -6    2    1    2    0  503 -0.21882177954E+03  0.11104708479E+03 -0.82262374709E+03  0.87613877463E+03  0.17519959156E+03 0.  0.
        -24    2    3    3    0    0 -0.56229277037E+02  0.28120463828E+01 -0.37010119693E+03  0.38323929824E+03  0.82023317123E+02 0.  0.
          6    2    1    2  501    0  0.21882177954E+03 -0.11104708479E+03 -0.12956903388E+04  0.13299895537E+04  0.17275512299E+03 0.  0.
         24    2    5    5    0    0  0.13362927110E+03 -0.12209947703E+03 -0.80062937755E+03  0.82750834583E+03  0.10486943226E+03 0.  0.
          5    1    5    5  501    0  0.85192508439E+02  0.11052392237E+02 -0.49506096125E+03  0.50248120783E+03  0.47000000000E+01 0. -1.
        -13    1    6    6    0    0  0.59348774375E+02 -0.12078386175E+03 -0.53760437763E+03  0.55419264261E+03  0.00000000000E+00 0.  1.
         14    1    6    6    0    0  0.74280496727E+02 -0.13156152767E+01 -0.26302499993E+03  0.27331570321E+03  0.00000000000E+00 0. -1.
         -5    1    3    3    0  503 -0.16259250250E+03  0.10823503841E+03 -0.45252255017E+03  0.49289947638E+03  0.47000000000E+01 0.  1.
         13    1    4    4    0    0 -0.36502073814E+02  0.41581214557E+02 -0.22873259357E+03  0.23532955224E+03  0.00000000000E+00 0. -1.
        -14    1    4    4    0    0 -0.19727203223E+02 -0.38769168174E+02 -0.14136860335E+03  0.14790974600E+03  0.00000000000E+00 0.  1.
</event>
<event>
12    1  0.1046899E+000  0.2178195E+03  0.7818608E-02  0.1135570E+00
         21   -1    0    0  503  502  0.00000000000E+00  0.00000000000E+00  0.47397239851E+02  0.47397239851E+02  0.00000000000E+00 0. -1.
         21   -1    0    0  501  503 -0.00000000000E+00 -0.00000000000E+00 -0.10578166675E+04  0.10578166675E+04  0.00000000000E+00 0. -1.
          6    2    1    2  501    0  0.83522149245E+02  0.10477099744E+03 -0.37606443109E+03  0.43459151405E+03  0.17173356234E+03 0.  0.
         24    2    3    3    0    0  0.10729884398E+03  0.33012084896E+02 -0.27478376041E+03  0.30812200391E+03  0.82645112617E+02 0.  0.
         -6    2    1    2    0  502 -0.83522149245E+02 -0.10477099744E+03 -0.63435499654E+03  0.67062239328E+03  0.17139201094E+03 0.  0.
        -24    2    5    5    0    0 -0.15951224333E+02 -0.37069267734E+02 -0.13263062091E+03  0.15983986304E+03  0.79557074136E+02 0.  0.
          5    1    3    3  501    0 -0.23776694733E+02  0.71758912547E+02 -0.10128067068E+03  0.12646951014E+03  0.47000000000E+01 0. -1.
        -11    1    4    4    0    0  0.10997815582E+01 -0.13614964616E+02 -0.51448828149E+01  0.14596115926E+02  0.00000000000E+00 0.  1.
         12    1    4    4    0    0  0.10619906242E+03  0.46627049512E+02 -0.26963887760E+03  0.29352588798E+03  0.00000000000E+00 0. -1.
         -5    1    5    5    0  502 -0.67570924912E+02 -0.67701729709E+02 -0.50172437564E+03  0.51078253025E+03  0.47000000000E+01 0.  1.
         11    1    6    6    0    0 -0.40814051017E+02  0.39794775968E+01 -0.55695307190E+02  0.69163503710E+02  0.00000000000E+00 0. -1.
        -12    1    6    6    0    0  0.24862826685E+02 -0.41048745331E+02 -0.76935313716E+02  0.90676359326E+02  0.00000000000E+00 0.  1.
</event>
<event>
12    1  0.1046899E+000  0.1791042E+03  0.7818608E-02  0.1168933E+00
         21   -1    0    0  503  502  0.00000000000E+00  0.00000000000E+00  0.54537999616E+03  0.54537999616E+03  0.00000000000E+00 0.  1.
         21   -1    0    0  501  503 -0.00000000000E+00 -0.00000000000E+00 -0.61014522283E+02  0.61014522283E+02  0.00000000000E+00 0.  1.
          6    2    1    2  501    0 -0.31651272869E+02  0.35909117380E+02  0.17956622235E+03  0.25286813570E+03  0.17148468752E+03 0.  0.
         24    2    3    3    0    0 -0.17607664145E+02  0.77447694678E+01  0.12208150308E+02  0.82511839312E+02  0.79304182752E+02 0.  0.
         -6    2    1    2    0  502  0.31651272869E+02 -0.35909117380E+02  0.30479925153E+03  0.35352638275E+03  0.17258925744E+03 0.  0.
        -24    2    5    5    0    0  0.75537660058E+02 -0.50097973480E+02  0.26801417228E+03  0.29434386275E+03  0.81184776667E+02 0.  0.
          5    1    3    3  501    0 -0.14043608725E+02  0.28164347912E+02  0.16735807204E+03  0.17035629638E+03  0.47000000000E+01 0. -1.
        -13    1    4    4    0    0  0.15112480039E+02  0.35273498852E+02  0.10187846613E+02  0.39703891406E+02  0.00000000000E+00 0.  1.
         14    1    4    4    0    0 -0.32720144184E+02 -0.27528729384E+02  0.20203036950E+01  0.42807947906E+02  0.00000000000E+00 0. -1.
         -5    1    5    5    0  502 -0.43886387189E+02  0.14188856099E+02  0.36785079242E+02  0.59182519993E+02  0.47000000000E+01 0.  1.
         11    1    6    6    0    0  0.51231910758E+02 -0.10485544713E+02  0.53345768925E+02  0.74702251573E+02  0.00000000000E+00 0. -1.
        -12    1    6    6    0    0  0.24305749300E+02 -0.39612428767E+02  0.21466840336E+03  0.21964161118E+03  0.00000000000E+00 0.  1.
</event>
<event>
12    1  0.1046899E+000  0.2022924E+03  0.7818608E-02  0.1148810E+00
         21   -1    0    0  503  502  0.00000000000E+00  0.00000000000E+00  0.80665546063E+03  0.80665546063E+03  0.00000000000E+00 0.  1.
         21   -1    0    0  501  503 -0.00000000000E+00 -0.00000000000E+00 -0.71173176181E+02  0.71173176181E+02  0.00000000000E+00 0.  1.
          6    2    1    2  501    0  0.68766021223E+02  0.48931886820E+02  0.12285316497E+03  0.23266459185E+03  0.17865278318E+03 0.  0.
         24    2    3    3    0    0  0.11823258988E+02 -0.38241610191E+01 -0.59488477827E+01  0.82206201445E+02  0.81043550672E+02 0.  0.
         -6    2    1    2    0  502 -0.68766021223E+02 -0.48931886820E+02  0.61262911948E+03  0.64516404496E+03  0.18384534711E+03 0.  0.
        -24    2    5    5    0    0  0.26676149959E+02  0.11324124460E+02  0.19689431121E+03  0.21435374362E+03  0.79626031202E+02 0.  0.
          5    1    3    3  501    0  0.56942762235E+02  0.52756047839E+02  0.12880201276E+03  0.15045839041E+03  0.47000000000E+01 0. -1.
        -13    1    4    4    0    0  0.69693161583E+01 -0.38043037549E+02  0.15347873387E+02  0.41610110444E+02  0.00000000000E+00 0.  1.
         14    1    4    4    0    0  0.48539428298E+01  0.34218876530E+02 -0.21296721170E+02  0.40596091001E+02  0.00000000000E+00 0. -1.
         -5    1    5    5    0  502 -0.95442171182E+02 -0.60256011280E+02  0.41573480827E+03  0.43081030134E+03  0.47000000000E+01 0.  1.
         11    1    6    6    0    0  0.27213070198E+02  0.42273245763E+02  0.14967669023E+03  0.15789455372E+03  0.00000000000E+00 0. -1.
        -12    1    6    6    0    0 -0.53692023972E+00 -0.30949121302E+02  0.47217620981E+02  0.56459189897E+02  0.00000000000E+00 0.  1.
</event>
<event>
12    1  0.1046899E+000  0.2370417E+03  0.7818608E-02  0.1121936E+00
         21   -1    0    0  501  502  0.00000000000E+00  0.00000000000E+00  0.25245902591E+03  0.25245902591E+03  0.00000000000E+00 0.  1.
         21   -1    0    0  502  503 -0.00000000000E+00 -0.00000000000E+00 -0.31816190151E+03  0.31816190151E+03  0.00000000000E+00 0. -1.
         -6    2    1    2    0  503 -0.16229810136E+03  0.66829081555E+01  0.12420375422E+03  0.26761044641E+03  0.17263673856E+03 0.  0.
        -24    2    3    3    0    0 -0.51297046107E+02  0.46628897730E+02  0.13602496257E+02  0.10583391964E+03  0.78804502405E+02 0.  0.
          6    2    1    2  501    0  0.16229810136E+03 -0.66829081555E+01 -0.18990662982E+03  0.30301048101E+03  0.17136361512E+03 0.  0.
         24    2    5    5    0    0  0.39075354825E+02  0.46849380168E+02 -0.63595360312E+02  0.11854862056E+03  0.79294752705E+02 0.  0.
          5    1    5    5  501    0  0.12322274653E+03 -0.53532288323E+02 -0.12631126951E+03  0.18446186045E+03  0.47000000000E+01 0. -1.
        -13    1    6    6    0    0  0.22424402125E+02 -0.78140406542E+01  0.96645067580E+01  0.25638169453E+02  0.00000000000E+00 0.  1.
         14    1    6    6    0    0  0.16650952700E+02  0.54663420822E+02 -0.73259867070E+02  0.92910451107E+02  0.00000000000E+00 0. -1.
         -5    1    3    3    0  503 -0.11100105525E+03 -0.39945989575E+02  0.11060125797E+03  0.16177652677E+03  0.47000000000E+01 0.  1.
         13    1    4    4    0    0  0.19782541140E+02  0.19504439859E+02  0.10476414098E+02  0.29690526444E+02  0.00000000000E+00 0. -1.
        -14    1    4    4    0    0 -0.71079587247E+02  0.27124457871E+02  0.31260821585E+01  0.76143393198E+02  0.00000000000E+00 0.  1.
</event>
<event>
12    1  0.1046899E+000  0.1745018E+03  0.7818608E-02  0.1173565E+00
         21   -1    0    0  503  502  0.00000000000E+00  0.00000000000E+00  0.26486265178E+03  0.26486265178E+03  0.00000000000E+00 0. -1.
         21   -1    0    0  501  503 -0.00000000000E+00 -0.00000000000E+00 -0.12778553141E+03  0.12778553141E+03  0.00000000000E+00 0. -1.
          6    2    1    2  501    0 -0.82380366871E+01 -0.30332772833E+02  0.13300736356E+03  0.21941248212E+03  0.17164770955E+03 0.  0.
         24    2    3    3    0    0 -0.30978181764E+02  0.15925855642E+02  0.13442049788E+02  0.89124611754E+02  0.80927295114E+02 0.  0.
         -6    2    1    2    0  502  0.82380366871E+01  0.30332772833E+02  0.40697568100E+01  0.17323570108E+03  0.17031178130E+03 0.  0.
        -24    2    5    5    0    0  0.47350130945E+02 -0.33622873487E+02 -0.11066644732E+02  0.96611414683E+02  0.76411794242E+02 0.  0.
          5    1    3    3  501    0  0.22740145077E+02 -0.46258628475E+02  0.11956531377E+03  0.13028787037E+03  0.47000000000E+01 0. -1.
        -13    1    4    4    0    0 -0.10911442035E+02 -0.33248167527E+02  0.55866142189E+01  0.35436005272E+02  0.00000000000E+00 0.  1.
         14    1    4    4    0    0 -0.20066739729E+02  0.49174023169E+02  0.78554355692E+01  0.53688606482E+02  0.00000000000E+00 0. -1.
         -5    1    5    5    0  502 -0.39112094258E+02  0.63955646320E+02  0.15136401542E+02  0.76624286392E+02  0.47000000000E+01 0.  1.
         11    1    6    6    0    0 -0.15155499792E+02  0.60377917142E+01 -0.15431863633E+02  0.22456324675E+02  0.00000000000E+00 0. -1.
        -12    1    6    6    0    0  0.62505630737E+02 -0.39660665201E+02  0.43652189006E+01  0.74155090008E+02  0.00000000000E+00 0.  1.
</event>
<event>
12    1  0.1046899E+000  0.1745270E+03  0.7818608E-02  0.1173554E+00
         21   -1    0    0  501  502  0.00000000000E+00  0.00000000000E+00  0.13181315990E+04  0.13181315990E+04  0.00000000000E+00 0. -1.
         21   -1    0    0  502  503 -0.00000000000E+00 -0.00000000000E+00 -0.25507850273E+02  0.25507850273E+02  0.00000000000E+00 0. -1.
         -6    2    1    2    0  503 -0.27502520857E+02  0.70448655671E+01  0.85770995095E+03  0.87501414099E+03  0.17081384076E+03 0.  0.
        -24    2    3    3    0    0 -0.22160619741E+02  0.56271984039E+02  0.74817666826E+03  0.75471669664E+03  0.78557851335E+02 0.  0.
          6    2    1    2  501    0  0.27502520857E+02 -0.70448655671E+01  0.43491379778E+03  0.46862530828E+03  0.17220234981E+03 0.  0.
         24    2    5    5    0    0 -0.14844148624E+01 -0.16859375174E+02  0.90085740786E+02  0.12240999098E+03  0.81131517804E+02 0.  0.
          5    1    5    5  501    0  0.28986935720E+02  0.98145096072E+01  0.34482805699E+03  0.34621531729E+03  0.47000000000E+01 0. -1.
        -13    1    6    6    0    0  0.37525281928E+02 -0.17640267568E+02  0.60937790765E+02  0.73707124262E+02  0.00000000000E+00 0.  1.
         14    1    6    6    0    0 -0.39009696790E+02  0.78089239347E+00  0.29147950021E+02  0.48702866723E+02  0.00000000000E+00 0. -1.
         -5    1    3    3    0  503 -0.53419011166E+01 -0.49227118472E+02  0.10953328269E+03  0.12029744435E+03  0.47000000000E+01 0.  1.
         13    1    4    4    0    0  0.21172004433E+02  0.43726955359E+02  0.26319072985E+03  0.26763718104E+03  0.00000000000E+00 0. -1.
        -14    1    4    4    0    0 -0.43332624173E+02  0.12545028680E+02  0.48498593840E+03  0.48707951560E+03  0.00000000000E+00 0.  1.
</event>
<event>
12    1  0.1046899E+000  0.1903855E+03  0.7818608E-02  0.1159705E+00
         21   -1    0    0  503  502  0.00000000000E+00  0.00000000000E+00  0.11596871650E+03  0.11596871650E+03  0.00000000000E+00 0.  1.
         21   -1    0    0  501  503 -0.00000000000E+00 -0.00000000000E+00 -0.34599394300E+03  0.34599394300E+03  0.00000000000E+00 0.  1.
          6    2    1    2  501    0 -0.53238944775E+02  0.34302496755E+02 -0.19618233369E+03  0.26859258939E+03  0.17217265898E+03 0.  0.
         24    2    3    3    0    0  0.97977156559E+01 -0.23153657534E+02 -0.14878812442E+03  0.17090363763E+03  0.80237524247E+02 0.  0.
         -6    2    1    2    0  502  0.53238944775E+02 -0.34302496755E+02 -0.33842892815E+02  0.19337007011E+03  0.17954274170E+03 0.  0.
        -24    2    5    5    0    0  0.48490603660E+02 -0.60645944109E+02  0.39687466527E+02  0.11497792952E+03  0.74937040885E+02 0.  0.
          5    1    3    3  501    0 -0.63036660431E+02  0.57456154290E+02 -0.47394209266E+02  0.97688951760E+02  0.47000000000E+01 0. -1.
        -11    1    4    4    0    0 -0.14912773477E+02 -0.44095514613E+02 -0.11516439429E+03  0.12421611383E+03  0.00000000000E+00 0.  1.
         12    1    4    4    0    0  0.24710489133E+02  0.20941857078E+02 -0.33623730128E+02  0.46687523802E+02  0.00000000000E+00 0. -1.
         -5    1    5    5    0  502  0.47483411158E+01  0.26343447354E+02 -0.73530359342E+02  0.78392140594E+02  0.47000000000E+01 0.  1.
         13    1    6    6    0    0  0.19158336030E+02 -0.37494236660E+02 -0.18366695737E+02  0.45936860303E+02  0.00000000000E+00 0. -1.
        -14    1    6    6    0    0  0.29332267629E+02 -0.23151707449E+02  0.58054162264E+02  0.69041069215E+02  0.00000000000E+00 0.  1.
</event>
<event>
12    1  0.1046899E+000  0.2040096E+03  0.7818608E-02  0.1146461E+00
         21   -1    0    0  503  502  0.00000000000E+00  0.00000000000E+00  0.86655988557E+02  0.86655988557E+02  0.00000000000E+00 0. -1.
         21   -1    0    0  501  503 -0.00000000000E+00 -0.00000000000E+00 -0.51453995996E+03  0.51453995996E+03  0.00000000000E+00 0. -1.
          6    2    1    2  501    0  0.93028607010E+02 -0.57213494845E+02 -0.29244311437E+03  0.35657100527E+03  0.17231425056E+03 0.  0.
         24    2    3    3    0    0  0.64367837474E+02 -0.91534503556E+02 -0.27619983922E+03  0.30876613798E+03  0.80798471127E+02 0.  0.
         -6    2    1    2    0  502 -0.93028607010E+02  0.57213494845E+02 -0.13544085704E+03  0.24462494325E+03  0.17195764417E+03 0.  0.
        -24    2    5    5    0    0 -0.12222795008E+03  0.60086477075E+02 -0.14359813319E+03  0.21381119929E+03  0.80899620379E+02 0.  0.
          5    1    3    3  501    0  0.28660769536E+02  0.34321008711E+02 -0.16243275146E+02  0.47804867292E+02  0.47000000000E+01 0. -1.
        -11    1    4    4    0    0  0.47078554770E+02 -0.91062084547E+01 -0.60442473266E+02  0.77153132965E+02  0.00000000000E+00 0.  1.
         12    1    4    4    0    0  0.17289282704E+02 -0.82428295101E+02 -0.21575736595E+03  0.23161300502E+03  0.00000000000E+00 0. -1.
         -5    1    5    5    0  502  0.29199343070E+02 -0.28729822298E+01  0.81572761494E+01  0.30813743959E+02  0.47000000000E+01 0.  1.
         13    1    6    6    0    0 -0.11625183324E+03  0.41994296624E+02 -0.79553600551E+02  0.14699246594E+03  0.00000000000E+00 0. -1.
        -14    1    6    6    0    0 -0.59761168374E+01  0.18092180451E+02 -0.64044532638E+02  0.66818733352E+02  0.00000000000E+00 0.  1.
</event>
<event>
12    1  0.1046899E+000  0.2669298E+03  0.7818608E-02  0.1103578E+00
         21   -1    0    0  501  502  0.00000000000E+00  0.00000000000E+00  0.20544193583E+03  0.20544193583E+03  0.00000000000E+00 0. -1.
         21   -1    0    0  502  503 -0.00000000000E+00 -0.00000000000E+00 -0.43866498974E+03  0.43866498974E+03  0.00000000000E+00 0. -1.
         -6    2    1    2    0  503  0.20405584940E+03  0.38655897609E+01  0.35071939268E+02  0.26564460334E+03  0.16638293753E+03 0.  0.
        -24    2    3    3    0    0  0.31521510970E+02  0.70255122176E+01 -0.85709461566E+01  0.87585976767E+02  0.80962205581E+02 0.  0.
          6    2    1    2  501    0 -0.20405584940E+03 -0.38655897609E+01 -0.26829499317E+03  0.37846232223E+03  0.17204009278E+03 0.  0.
         24    2    5    5    0    0 -0.13148970822E+03 -0.69356264048E+02 -0.17396203295E+03  0.24253708303E+03  0.80384158940E+02 0.  0.
          5    1    5    5  501    0 -0.72566141186E+02  0.65490674287E+02 -0.94332960227E+02  0.13592523920E+03  0.47000000000E+01 0. -1.
        -13    1    6    6    0    0 -0.10175035761E+03 -0.21972237920E+02 -0.14780069483E+03  0.18077875956E+03  0.00000000000E+00 0.  1.
         14    1    6    6    0    0 -0.29739350605E+02 -0.47384026128E+02 -0.26161338113E+02  0.61758323475E+02  0.00000000000E+00 0. -1.
         -5    1    3    3    0  503  0.17253433843E+03 -0.31599224567E+01  0.43642885425E+02  0.17805862657E+03  0.47000000000E+01 0.  1.
         11    1    4    4    0    0  0.13288527520E+02  0.13333401821E+02  0.35107671317E+02  0.39836078536E+02  0.00000000000E+00 0. -1.
        -12    1    4    4    0    0  0.18232983449E+02 -0.63078896037E+01 -0.43678617474E+02  0.47749898231E+02  0.00000000000E+00 0.  1.
</event>
<event>
12    1  0.1046899E+000  0.1836710E+03  0.7818608E-02  0.1165274E+00
         21   -1    0    0  501  502  0.00000000000E+00  0.00000000000E+00  0.37399264351E+03  0.37399264351E+03  0.00000000000E+00 0. -1.
         21   -1    0    0  502  503 -0.00000000000E+00 -0.00000000000E+00 -0.10683864333E+03  0.10683864333E+03  0.00000000000E+00 0. -1.
         -6    2    1    2    0  503 -0.47611142295E+02  0.45630792025E+02  0.31922988975E+02  0.18238752064E+03  0.16702437070E+03 0.  0.
        -24    2    3    3    0    0 -0.40876933176E+02  0.89702445195E+02  0.46922142248E+02  0.13511464486E+03  0.79604192613E+02 0.  0.
          6    2    1    2  501    0  0.47611142295E+02 -0.45630792025E+02  0.23523101121E+03  0.29844376620E+03  0.17142363577E+03 0.  0.
         24    2    5    5    0    0  0.39597767114E+02 -0.86204403432E+01  0.24319381367E+03  0.25946330268E+03  0.80843548140E+02 0.  0.
          5    1    5    5  501    0  0.80133751811E+01 -0.37010351682E+02 -0.79628024673E+01  0.38980463524E+02  0.47000000000E+01 0. -1.
        -13    1    6    6    0    0  0.75530549336E+00 -0.20812621875E+02  0.10666299069E+02  0.23398838679E+02  0.00000000000E+00 0.  1.
         14    1    6    6    0    0  0.38842461621E+02  0.12192181532E+02  0.23252751461E+03  0.23606446400E+03  0.00000000000E+00 0. -1.
         -5    1    3    3    0  503 -0.67342091192E+01 -0.44071653169E+02 -0.14999153273E+02  0.47272875779E+02  0.47000000000E+01 0.  1.
         13    1    4    4    0    0  0.26980004005E+01 -0.12087413342E+02  0.15846004484E+02  0.20111703696E+02  0.00000000000E+00 0. -1.
        -14    1    4    4    0    0 -0.43574933577E+02  0.10178985854E+03  0.31076137764E+02  0.11500294116E+03  0.00000000000E+00 0.  1.
</event>
<event>
12    1  0.1046899E+000  0.3682048E+03  0.7818608E-02  0.1055593E+00
         21   -1    0    0  503  502  0.00000000000E+00  0.00000000000E+00  0.31545125847E+03  0.31545125847E+03  0.00000000000E+00 0.  1.
         21   -1    0    0  501  503 -0.00000000000E+00 -0.00000000000E+00 -0.43318293148E+03  0.43318293148E+03  0.00000000000E+00 0.  1.
          6    2    1    2  501    0  0.18429029192E+03  0.26760929716E+03 -0.14788662768E+02  0.36630963228E+03  0.16848262382E+03 0.  0.
         24    2    3    3    0    0  0.64132561497E+02  0.12893747306E+03 -0.53288143594E+02  0.17876749034E+03  0.91544153013E+02 0.  0.
         -6    2    1    2    0  502 -0.18429029192E+03 -0.26760929716E+03 -0.10294301024E+03  0.38232455767E+03  0.17319687186E+03 0.  0.
        -24    2    5    5    0    0 -0.10846733035E+03 -0.24951758568E+03 -0.10925833577E+03  0.30397658474E+03  0.80250811960E+02 0.  0.
          5    1    3    3  501    0  0.12015773042E+03  0.13867182410E+03  0.38499480827E+02  0.18754214194E+03  0.47000000000E+01 0. -1.
        -11    1    4    4    0    0 -0.12430527370E+02  0.13036885213E+02  0.15498281108E+02  0.23762893428E+02  0.00000000000E+00 0.  1.
         12    1    4    4    0    0  0.76563088867E+02  0.11590058785E+03 -0.68786424702E+02  0.15500459691E+03  0.00000000000E+00 0. -1.
         -5    1    5    5    0  502 -0.75822961573E+02 -0.18091711475E+02  0.63153255285E+01  0.78347972931E+02  0.47000000000E+01 0.  1.
         11    1    6    6    0    0 -0.79623441333E+02 -0.17294787509E+03 -0.35215126399E+02  0.19362583773E+03  0.00000000000E+00 0. -1.
        -12    1    6    6    0    0 -0.28843889012E+02 -0.76569710590E+02 -0.74043209366E+02  0.11035074701E+03  0.00000000000E+00 0.  1.
</event>
<event>
12    1  0.1046899E+000  0.3113526E+03  0.7818608E-02  0.1079735E+00
         21   -1    0    0  503  502  0.00000000000E+00  0.00000000000E+00  0.45003682366E+03  0.45003682366E+03  0.00000000000E+00 0.  1.
         21   -1    0    0  501  503 -0.00000000000E+00 -0.00000000000E+00 -0.57778638906E+03  0.57778638906E+03  0.00000000000E+00 0.  1.
          6    2    1    2  501    0 -0.59683465217E+02  0.25235229182E+03 -0.47097381728E+03  0.56441915073E+03  0.17178138997E+03 0.  0.
         24    2    3    3    0    0 -0.17116956883E+01  0.18680276991E+03 -0.41061145120E+03  0.45800876062E+03  0.79196314308E+02 0.  0.
         -6    2    1    2    0  502  0.59683465217E+02 -0.25235229182E+03  0.34322425188E+03  0.46340406200E+03  0.17232713772E+03 0.  0.
        -24    2    5    5    0    0 -0.43566953586E+01 -0.45525304679E+02  0.83336736443E+02  0.12511105963E+03  0.81340220305E+02 0.  0.
          5    1    3    3  501    0 -0.57971769528E+02  0.65549521905E+02 -0.60362366083E+02  0.10641039011E+03  0.47000000000E+01 0. -1.
        -13    1    4    4    0    0  0.31225040774E+02  0.34592287529E+02 -0.10965958638E+03  0.11915055356E+03  0.00000000000E+00 0.  1.
         14    1    4    4    0    0 -0.32936736462E+02  0.15221048238E+03 -0.30095186481E+03  0.33885820706E+03  0.00000000000E+00 0. -1.
         -5    1    5    5    0  502  0.64040160575E+02 -0.20682698714E+03  0.25988751544E+03  0.33829300237E+03  0.47000000000E+01 0.  1.
         11    1    6    6    0    0  0.26142772809E+02 -0.32893059322E+02  0.78802563882E+01  0.42749226454E+02  0.00000000000E+00 0. -1.
        -12    1    6    6    0    0 -0.30499468167E+02 -0.12632245357E+02  0.75456480055E+02  0.82361833172E+02  0.00000000000E+00 0.  1.
</event>
<event>
12    1  0.1046899E+000  0.2896126E+03  0.7818608E-02  0.1090558E+00
         21   -1    0    0  501  502  0.00000000000E+00  0.00000000000E+00  0.10372216628E+03  0.10372216628E+03  0.00000000000E+00 0.  1.
         21   -1    0    0  502  503 -0.00000000000E+00 -0.00000000000E+00 -0.83402407640E+03  0.83402407640E+03  0.00000000000E+00 0.  1.
         -6    2    1    2    0  503 -0.18763086470E+03 -0.13768759630E+03 -0.28314303493E+03  0.40499254514E+03  0.17229558272E+03 0.  0.
        -24    2    3    3    0    0 -0.53010287094E+01 -0.31657284830E+02 -0.10697664338E+03  0.13014116065E+03  0.66801458654E+02 0.  0.
          6    2    1    2  501    0  0.18763086470E+03  0.13768759630E+03 -0.44715887518E+03  0.53275369754E+03  0.17237234992E+03 0.  0.
         24    2    5    5    0    0  0.79071593614E+02  0.14125247371E+03 -0.26742632837E+03  0.32269727161E+03  0.80075650164E+02 0.  0.
          5    1    5    5  501    0  0.10855927109E+03 -0.35648774135E+01 -0.17973254681E+03  0.21005642593E+03  0.47000000000E+01 0. -1.
        -11    1    6    6    0    0 -0.17854741748E+01  0.32630763495E+02 -0.14392931365E+02  0.35708698066E+02  0.00000000000E+00 0.  1.
         12    1    6    6    0    0  0.80857067788E+02  0.10862171022E+03 -0.25303339701E+03  0.28698857354E+03  0.00000000000E+00 0. -1.
         -5    1    3    3    0  503 -0.18232983599E+03 -0.10603031147E+03 -0.17616639155E+03  0.27485138449E+03  0.47000000000E+01 0.  1.
         13    1    4    4    0    0 -0.21101542610E+02 -0.47221761394E+02 -0.70240385277E+02  0.87228903315E+02  0.00000000000E+00 0. -1.
        -14    1    4    4    0    0  0.15800513900E+02  0.15564476563E+02 -0.36736258107E+02  0.42912257339E+02  0.00000000000E+00 0.  1.
</event>
<event>
12    1  0.1046899E+000  0.2195867E+03  0.7818608E-02  0.1134355E+00
         21   -1    0    0  503  502  0.00000000000E+00  0.00000000000E+00  0.73971942713E+03  0.73971942713E+03  0.00000000000E+00 0.  1.
         21   -1    0    0  501  503 -0.00000000000E+00 -0.00000000000E+00 -0.65408864022E+02  0.65408864022E+02  0.00000000000E+00 0.  1.
          6    2    1    2  501    0  0.13590927255E+03  0.54328767698E+01  0.37242311856E+03  0.43233933651E+03  0.17238757538E+03 0.  0.
         24    2    3    3    0    0  0.10811921386E+03 -0.60829765125E+02  0.25685303293E+03  0.29617194040E+03  0.79713944974E+02 0.  0.
         -6    2    1    2    0  502 -0.13590927255E+03 -0.54328767698E+01  0.30188744455E+03  0.37278895463E+03  0.17127384215E+03 0.  0.
        -24    2    5    5    0    0 -0.15546680923E+03 -0.34753455548E+02  0.27643551203E+03  0.32906156676E+03  0.80543100045E+02 0.  0.
          5    1    3    3  501    0  0.27790058689E+02  0.66262641895E+02  0.11557008562E+03  0.13616739611E+03  0.47000000000E+01 0. -1.
        -11    1    4    4    0    0  0.64210039301E+02 -0.28055928799E+01  0.66956988266E+02  0.92811846098E+02  0.00000000000E+00 0.  1.
         12    1    4    4    0    0  0.43909174564E+02 -0.58024172246E+02  0.18989604467E+03  0.20336009430E+03  0.00000000000E+00 0. -1.
         -5    1    5    5    0  502  0.19557536680E+02  0.29320578778E+02  0.25451932523E+02  0.43727387871E+02  0.47000000000E+01 0.  1.
         13    1    6    6    0    0 -0.13419913930E+03 -0.52364302070E+02  0.19072838641E+03  0.23901620553E+03  0.00000000000E+00 0. -1.
        -14    1    6    6    0    0 -0.21267669938E+02  0.17610846522E+02  0.85707125611E+02  0.90045361237E+02  0.00000000000E+00 0.  1.
</event>
<event>
12    1  0.1046899E+000  0.1865916E+03  0.7818608E-02  0.1161761E+00
         21   -1    0    0  503  502  0.00000000000E+00  0.00000000000E+00  0.68707065561E+02  0.68707065561E+02  0.00000000000E+00 0. -1.
         21   -1    0    0  501  503 -0.00000000000E+00 -0.00000000000E+00 -0.10926984909E+04  0.10926984909E+04  0.00000000000E+00 0. -1.
          6    2    1    2  501    0 -0.62168793032E+01 -0.69824587222E+02 -0.85428004770E+02  0.20447415388E+03  0.17203956823E+03 0.  0.
         24    2    3    3    0    0 -0.29673607581E+02  0.26370503618E+02 -0.43061691953E+02  0.96674765826E+02  0.76914072742E+02 0.  0.
         -6    2    1    2    0  502  0.62168793032E+01  0.69824587222E+02 -0.93856342058E+03  0.95693140259E+03  0.17292279273E+03 0.  0.
        -24    2    5    5    0    0 -0.12438050038E+02  0.11217294940E+03 -0.65219350082E+03  0.66680865079E+03  0.80869886819E+02 0.  0.
          5    1    3    3  501    0  0.23456728278E+02 -0.96195090840E+02 -0.42366312817E+02  0.10779938805E+03  0.47000000000E+01 0. -1.
        -13    1    4    4    0    0 -0.10901901337E+02 -0.10257171742E+01 -0.58880033846E+02  0.59889581182E+02  0.00000000000E+00 0.  1.
         14    1    4    4    0    0 -0.18771706245E+02  0.27396220792E+02  0.15818341893E+02  0.36785184644E+02  0.00000000000E+00 0. -1.
         -5    1    5    5    0  502  0.18654929341E+02 -0.42348362178E+02 -0.28636991976E+03  0.29012275180E+03  0.47000000000E+01 0.  1.
         13    1    6    6    0    0 -0.32871594226E+02  0.14577683728E+02 -0.11683036746E+03  0.12223904994E+03  0.00000000000E+00 0. -1.
        -14    1    6    6    0    0  0.20433544188E+02  0.97595265673E+02 -0.53536313336E+03  0.54456960085E+03  0.00000000000E+00 0.  1.
</event>
<event>
12    1  0.1046899E+000  0.2283016E+03  0.7818608E-02  0.1130714E+00
         21   -1    0    0  503  502  0.00000000000E+00  0.00000000000E+00  0.93742025048E+02  0.93742025048E+02  0.00000000000E+00 0.  1.
         21   -1    0    0  501  503 -0.00000000000E+00 -0.00000000000E+00 -0.78170935628E+03  0.78170935628E+03  0.00000000000E+00 0.  1.
          6    2    1    2  501    0  0.11717941641E+03 -0.48599859842E+02 -0.98263707969E+02  0.24855051938E+03  0.18981212388E+03 0.  0.
         24    2    3    3    0    0  0.11929350926E+03 -0.81108358750E+02 -0.23553047624E+02  0.16691079462E+03  0.80591315262E+02 0.  0.
         -6    2    1    2    0  502 -0.11717941641E+03  0.48599859842E+02 -0.58970362326E+03  0.62690086195E+03  0.17076699160E+03 0.  0.
        -24    2    5    5    0    0 -0.58154941543E+02  0.68445384803E+02 -0.51955401455E+03  0.53298179521E+03  0.77887432013E+02 0.  0.
          5    1    3    3  501    0 -0.21140928496E+01  0.32508498908E+02 -0.74710660346E+02  0.81639724761E+02  0.47000000000E+01 0. -1.
        -11    1    4    4    0    0  0.11790039410E+03 -0.41218284765E+02 -0.12666555585E+02  0.12553840671E+03  0.00000000000E+00 0.  1.
         12    1    4    4    0    0  0.13931151609E+01 -0.39890073984E+02 -0.10886492039E+02  0.41372387908E+02  0.00000000000E+00 0. -1.
         -5    1    5    5    0  502 -0.59024474870E+02 -0.19845524961E+02 -0.70149608712E+02  0.93919066739E+02  0.47000000000E+01 0.  1.
         11    1    6    6    0    0  0.34743466343E+01 -0.12513975642E+02 -0.11901357571E+03  0.11972009804E+03  0.00000000000E+00 0. -1.
        -12    1    6    6    0    0 -0.61629288177E+02  0.80959360446E+02 -0.40054043884E+03  0.41326169717E+03  0.00000000000E+00 0.  1.
</event>
<event>
12    1  0.1046899E+000  0.2950797E+03  0.7818608E-02  0.1087774E+00
         21   -1    0    0  501  502  0.00000000000E+00  0.00000000000E+00  0.67612839352E+03  0.67612839352E+03  0.00000000000E+00 0. -1.
         21   -1    0    0  502  503 -0.00000000000E+00 -0.00000000000E+00 -0.15505122194E+03  0.15505122194E+03  0.00000000000E+00 0. -1.
         -6    2    1    2    0  503  0.10539873282E+03  0.21527333317E+03  0.43226671188E+03  0.52337989819E+03  0.17210609165E+03 0.  0.
        -24    2    3    3    0    0  0.25667514069E+02  0.19759036660E+03  0.33595512969E+03  0.39701627441E+03  0.71100624028E+02 0.  0.
          6    2    1    2  501    0 -0.10539873282E+03 -0.21527333317E+03  0.88810459704E+02  0.30779971726E+03  0.17146972719E+03 0.  0.
         24    2    5    5    0    0 -0.52622775840E+02 -0.54957415682E+02  0.84783409012E+02  0.13890684538E+03  0.79482143752E+02 0.  0.
          5    1    5    5  501    0 -0.52775956980E+02 -0.16031591749E+03  0.40270506927E+01  0.16889287188E+03  0.47000000000E+01 0. -1.
        -13    1    6    6    0    0 -0.48074100581E+02 -0.75041064950E+02  0.72854490941E+02  0.11510889377E+03  0.00000000000E+00 0.  1.
         14    1    6    6    0    0 -0.45486752589E+01  0.20083649268E+02  0.11928918071E+02  0.23797951611E+02  0.00000000000E+00 0. -1.
         -5    1    3    3    0  503  0.79731218752E+02  0.17682966573E+02  0.96311582193E+02  0.12636362378E+03  0.47000000000E+01 0.  1.
         13    1    4    4    0    0 -0.16957185149E+02  0.13492644666E+02  0.24409796089E+02  0.32641013057E+02  0.00000000000E+00 0. -1.
        -14    1    4    4    0    0  0.42624699217E+02  0.18409772193E+03  0.31154533360E+03  0.36437526136E+03  0.00000000000E+00 0.  1.
</event>
<event>
12    1  0.1046899E+000  0.2213019E+03  0.7818608E-02  0.1133122E+00
         21   -1    0    0  501  502  0.00000000000E+00  0.00000000000E+00  0.56033402069E+03  0.56033402069E+03  0.00000000000E+00 0. -1.
         21   -1    0    0  502  503 -0.00000000000E+00 -0.00000000000E+00 -0.89425496916E+02  0.89425496916E+02  0.00000000000E+00 0. -1.
         -6    2    1    2    0  503  0.40960309918E+02 -0.13173850353E+03  0.28992059538E+03  0.36473067428E+03  0.17303679618E+03 0.  0.
        -24    2    3    3    0    0  0.15954502371E+02 -0.24227583217E+02  0.21578268472E+03  0.23168027708E+03  0.79196349851E+02 0.  0.
          6    2    1    2  501    0 -0.40960309918E+02  0.13173850353E+03  0.18098792839E+03  0.28502884332E+03  0.17161594041E+03 0.  0.
         24    2    5    5    0    0 -0.51755200786E+02  0.90529491043E+01  0.92597461695E+02  0.13336065439E+03  0.80313246291E+02 0.  0.
          5    1    5    5  501    0  0.10794890867E+02  0.12268555442E+03  0.88390466695E+02  0.15166818894E+03  0.47000000000E+01 0. -1.
        -11    1    6    6    0    0 -0.79847859078E+01  0.58150435202E+01 -0.14542152448E+02  0.17579696668E+02  0.00000000000E+00 0.  1.
         12    1    6    6    0    0 -0.43770414878E+02  0.32379055841E+01  0.10713961414E+03  0.11578095772E+03  0.00000000000E+00 0. -1.
         -5    1    3    3    0  503  0.25005807547E+02 -0.10751092031E+03  0.74137910666E+02  0.13305039720E+03  0.47000000000E+01 0.  1.
         11    1    4    4    0    0  0.22492923410E+02 -0.28421484972E+02  0.33887492235E+02  0.49619296060E+02  0.00000000000E+00 0. -1.
        -12    1    4    4    0    0 -0.65384210395E+01  0.41939017548E+01  0.18189519248E+03  0.18206098102E+03  0.00000000000E+00 0.  1.
</event>
<event>
12    1  0.1046899E+000  0.1788357E+03  0.7818608E-02  0.1169010E+00
         21   -1    0    0  501  502  0.00000000000E+00  0.00000000000E+00  0.25528085526E+03  0.25528085526E+03  0.00000000000E+00 0.  1.
         21   -1    0    0  502  503 -0.00000000000E+00 -0.00000000000E+00 -0.12574290568E+03  0.12574290568E+03  0.00000000000E+00 0.  1.
         -6    2    1    2    0  503  0.47393141188E+02 -0.26461832452E+01  0.50856111425E+02  0.18592619806E+03  0.17242127171E+03 0.  0.
        -24    2    3    3    0    0  0.91090044488E+02  0.20919809242E+02  0.13154692878E+02  0.12341010157E+03  0.79510833227E+02 0.  0.
          6    2    1    2  501    0 -0.47393141188E+02  0.26461832452E+01  0.78681838155E+02  0.19509756288E+03  0.17210204899E+03 0.  0.
         24    2    5    5    0    0  0.19426626089E+02 -0.37291022033E+02  0.16201990403E+02  0.95169173318E+02  0.83825133054E+02 0.  0.
          5    1    5    5  501    0 -0.66819767277E+02  0.39937205278E+02  0.62479847751E+02  0.99928389557E+02  0.47000000000E+01 0. -1.
        -13    1    6    6    0    0  0.50822688244E+02 -0.11466915666E+02  0.21070063098E+01  0.52142835278E+02  0.00000000000E+00 0.  1.
         14    1    6    6    0    0 -0.31396062155E+02 -0.25824106367E+02  0.14094984094E+02  0.43026338040E+02  0.00000000000E+00 0. -1.
         -5    1    3    3    0  503 -0.43696903299E+02 -0.23565992487E+02  0.37701418546E+02  0.62516096489E+02  0.47000000000E+01 0.  1.
         11    1    4    4    0    0  0.31214698209E+02 -0.30603130076E+02  0.49755688080E+01  0.43996195741E+02  0.00000000000E+00 0. -1.
        -12    1    4    4    0    0  0.59875346279E+02  0.51522939318E+02  0.81791240701E+01  0.79413905826E+02  0.00000000000E+00 0.  1.
</event>
<event>
12    1  0.1046899E+000  0.3687771E+03  0.7818608E-02  0.1055167E+00
         21   -1    0    0  501  502  0.00000000000E+00  0.00000000000E+00  0.50291030412E+03  0.50291030412E+03  0.00000000000E+00 0. -1.
         21   -1    0    0  502  503 -0.00000000000E+00 -0.00000000000E+00 -0.27977113260E+03  0.27977113260E+03  0.00000000000E+00 0.  1.
         -6    2    1    2    0  503 -0.21364946242E+03 -0.24598459542E+03  0.18329246178E+03  0.41181631770E+03  0.17274848479E+03 0.  0.
        -24    2    3    3    0    0 -0.13866121073E+03 -0.12142682457E+03  0.17389765504E+03  0.26604859642E+03  0.81055882844E+02 0.  0.
          6    2    1    2  501    0  0.21364946242E+03  0.24598459542E+03  0.39846709745E+02  0.37086511902E+03  0.17262289029E+03 0.  0.
         24    2    5    5    0    0  0.42727578622E+02  0.13833409435E+03  0.81330143289E+00  0.16507732126E+03  0.79296235103E+02 0.  0.
          5    1    5    5  501    0  0.17092188380E+03  0.10765050108E+03  0.39033408312E+02  0.20578779776E+03  0.47000000000E+01 0. -1.
        -13    1    6    6    0    0  0.21654086389E+02  0.13468299091E+03 -0.16704243131E+02  0.13743158020E+03  0.00000000000E+00 0.  1.
         14    1    6    6    0    0  0.21073492232E+02  0.36511034369E+01  0.17517544564E+02  0.27645741060E+02  0.00000000000E+00 0. -1.
         -5    1    3    3    0  503 -0.74988251694E+02 -0.12455777085E+03  0.93948067374E+01  0.14576772127E+03  0.47000000000E+01 0.  1.
         11    1    4    4    0    0 -0.34589881116E+02 -0.43860525603E+02  0.10539749167E+03  0.11928468818E+03  0.00000000000E+00 0. -1.
        -12    1    4    4    0    0 -0.10407132961E+03 -0.77566298968E+02  0.68500163367E+02  0.14676390825E+03  0.00000000000E+00 0.  1.
</event>
<event>
12    1  0.1046899E+000  0.1755145E+03  0.7818608E-02  0.1172248E+00
         21   -1    0    0  501  502  0.00000000000E+00  0.00000000000E+00  0.73411584340E+02  0.73411584340E+02  0.00000000000E+00 0. -1.
         21   -1    0    0  502  503 -0.00000000000E+00 -0.00000000000E+00 -0.12739189389E+04  0.12739189389E+04  0.00000000000E+00 0. -1.
         -6    2    1    2    0  503  0.30643548737E+02 -0.49442270548E+01 -0.48415635632E+02  0.18194618223E+03  0.17261769027E+03 0.  0.
        -24    2    3    3    0    0  0.24683162002E+02  0.60980987162E+02 -0.52342369634E+02  0.11546934927E+03  0.79154959927E+02 0.  0.
          6    2    1    2  501    0 -0.30643548737E+02  0.49442270548E+01 -0.11520917189E+04  0.11653843410E+04  0.17274796958E+03 0.  0.
         24    2    5    5    0    0 -0.54242737914E+02  0.14308795238E+02 -0.35489835502E+03  0.36777292790E+03  0.78466985818E+02 0.  0.
          5    1    5    5  501    0  0.23599189177E+02 -0.93645681828E+01 -0.79719336389E+03  0.79761141310E+03  0.47000000000E+01 0. -1.
        -11    1    6    6    0    0 -0.39638909906E+02  0.35042079268E+02 -0.32156884502E+03  0.32589217939E+03  0.00000000000E+00 0.  1.
         12    1    6    6    0    0 -0.14603828008E+02 -0.20733284031E+02 -0.33329509994E+02  0.41880748509E+02  0.00000000000E+00 0. -1.
         -5    1    3    3    0  503  0.59603867346E+01 -0.65925214217E+02  0.39267340020E+01  0.66476832954E+02  0.47000000000E+01 0.  1.
         13    1    4    4    0    0  0.21060086397E+02 -0.11741591789E+02 -0.31621332815E+02  0.39765574380E+02  0.00000000000E+00 0. -1.
        -14    1    4    4    0    0  0.36230756055E+01  0.72722578952E+02 -0.20721036819E+02  0.75703774893E+02  0.00000000000E+00 0.  1.
</event>
<event>
12    1  0.1046899E+000  0.2168639E+03  0.7818608E-02  0.1138349E+00
         21   -1    0    0  501  502  0.00000000000E+00  0.00000000000E+00  0.30060033079E+02  0.30060033079E+02  0.00000000000E+00 0.  1.
         21   -1    0    0  502  503 -0.00000000000E+00 -0.00000000000E+00 -0.35482769131E+04  0.35482769131E+04  0.00000000000E+00 0.  1.
         -6    2    1    2    0  503 -0.85381153814E+02  0.73986372379E+02 -0.41465269656E+03  0.46793888745E+03  0.18511082869E+03 0.  0.
        -24    2    3    3    0    0  0.48091219495E+01  0.90001134989E+02 -0.17585151934E+03  0.21212870254E+03  0.77145950202E+02 0.  0.
          6    2    1    2  501    0  0.85381153814E+02 -0.73986372379E+02 -0.31035641835E+04  0.31103980588E+04  0.17234128397E+03 0.  0.
         24    2    5    5    0    0  0.20284895857E+02  0.24686189104E+02 -0.15271702473E+04  0.15295711456E+04  0.79486101911E+02 0.  0.
          5    1    5    5  501    0  0.65096257957E+02 -0.98672561483E+02 -0.15763939362E+04  0.15808269131E+04  0.47000000000E+01 0. -1.
        -13    1    6    6    0    0  0.46645436951E+01  0.34858552232E+02 -0.27221580848E+03  0.27447827422E+03  0.00000000000E+00 0.  1.
         14    1    6    6    0    0  0.15620352162E+02 -0.10172363128E+02 -0.12549544388E+04  0.12550928714E+04  0.00000000000E+00 0. -1.
         -5    1    3    3    0  503 -0.90190275764E+02 -0.16014762610E+02 -0.23880117721E+03  0.25581018491E+03  0.47000000000E+01 0.  1.
         13    1    4    4    0    0 -0.34657616904E+02  0.43786489242E+02 -0.64855628114E+02  0.85584224876E+02  0.00000000000E+00 0. -1.
        -14    1    4    4    0    0  0.39466738854E+02  0.46214645747E+02 -0.11099589123E+03  0.12654447766E+03  0.00000000000E+00 0.  1.
</event>
<event>
12    1  0.1046899E+000  0.1892617E+03  0.7818608E-02  0.1163352E+00
         21   -1    0    0  503  502  0.00000000000E+00  0.00000000000E+00  0.77135458686E+03  0.77135458686E+03  0.00000000000E+00 0. -1.
         21   -1    0    0  501  503 -0.00000000000E+00 -0.00000000000E+00 -0.42302216401E+02  0.42302216401E+02  0.00000000000E+00 0. -1.
          6    2    1    2  501    0  0.40194936289E+01 -0.95361311034E+01  0.32675768106E+03  0.36906596621E+03  0.17126590774E+03 0.  0.
         24    2    3    3    0    0  0.23794460293E+02  0.70450824499E+01  0.33141121584E+03  0.34242518290E+03  0.82497287026E+02 0.  0.
         -6    2    1    2    0  502 -0.40194936289E+01  0.95361311034E+01  0.40229468939E+03  0.44459083705E+03  0.18897857326E+03 0.  0.
        -24    2    5    5    0    0  0.22800956767E+02 -0.53307194700E+02  0.33009740328E+03  0.34507622365E+03  0.82169117328E+02 0.  0.
          5    1    3    3  501    0 -0.19774966664E+02 -0.16581213553E+02 -0.46535347815E+01  0.26640783311E+02  0.47000000000E+01 0. -1.
        -11    1    4    4    0    0 -0.26217701338E+02 -0.15890716899E+02  0.13624264528E+03  0.13964935066E+03  0.00000000000E+00 0.  1.
         12    1    4    4    0    0  0.50012161630E+02  0.22935799349E+02  0.19516857057E+03  0.20277583224E+03  0.00000000000E+00 0. -1.
         -5    1    5    5    0  502 -0.26820450396E+02  0.62843325803E+02  0.72197286111E+02  0.99514613396E+02  0.47000000000E+01 0.  1.
         13    1    6    6    0    0 -0.20017456196E+02 -0.48796648162E+02  0.23244050627E+03  0.23834932426E+03  0.00000000000E+00 0. -1.
        -14    1    6    6    0    0  0.42818412962E+02 -0.45105465377E+01  0.97656897016E+02  0.10672689939E+03  0.00000000000E+00 0.  1.
</event>
<event>
12    1  0.1046899E+000  0.2154104E+03  0.7818608E-02  0.1139041E+00
         21   -1    0    0  501  502  0.00000000000E+00  0.00000000000E+00  0.40437667967E+03  0.40437667967E+03  0.00000000000E+00 0. -1.
         21   -1    0    0  502  503 -0.00000000000E+00 -0.00000000000E+00 -0.12162440343E+03  0.12162440343E+03  0.00000000000E+00 0. -1.
         -6    2    1    2    0  503 -0.79585532928E+02 -0.84231245569E+02  0.58166923457E+02  0.21480946634E+03  0.17126282745E+03 0.  0.
        -24    2    3    3    0    0 -0.50063123273E+02 -0.61257626193E+02 -0.32122194927E+02  0.11696482031E+03  0.79938230558E+02 0.  0.
          6    2    1    2  501    0  0.79585532928E+02  0.84231245569E+02  0.22458535278E+03  0.31119161675E+03  0.18158436571E+03 0.  0.
         24    2    5    5    0    0  0.97696441557E+02  0.51686378910E+02  0.23550123745E+03  0.27209660562E+03  0.79747435641E+02 0.  0.
          5    1    5    5  501    0 -0.18110908629E+02  0.32544866659E+02 -0.10915884671E+02  0.39095011131E+02  0.47000000000E+01 0. -1.
        -11    1    6    6    0    0  0.70905529865E+02  0.69218986058E+02  0.14113804793E+03  0.17244944410E+03  0.00000000000E+00 0.  1.
         12    1    6    6    0    0  0.26790911692E+02 -0.17532607148E+02  0.94363189526E+02  0.99647161526E+02  0.00000000000E+00 0. -1.
         -5    1    3    3    0  503 -0.29522409655E+02 -0.22973619375E+02  0.90289118383E+02  0.97844646034E+02  0.47000000000E+01 0.  1.
         13    1    4    4    0    0 -0.60204673375E+02 -0.69112828545E+02 -0.41953158239E+02  0.10080304188E+03  0.00000000000E+00 0. -1.
        -14    1    4    4    0    0  0.10141550102E+02  0.78552023520E+01  0.98309633117E+01  0.16161778432E+02  0.00000000000E+00 0.  1.
</event>
<event>
12    1  0.1046899E+000  0.2205153E+03  0.7818608E-02  0.1133622E+00
         21   -1    0    0  501  502  0.00000000000E+00  0.00000000000E+00  0.67619399678E+03  0.67619399678E+03  0.00000000000E+00 0.  1.
         21   -1    0    0  502  503 -0.00000000000E+00 -0.00000000000E+00 -0.71969141877E+02  0.71969141877E+02  0.00000000000E+00 0.  1.
         -6    2    1    2    0  503  0.76426919384E+02 -0.11518902913E+03  0.32550942127E+03  0.39317094334E+03  0.17180634714E+03 0.  0.
        -24    2    3    3    0    0  0.56980570119E+02 -0.11038951613E+03  0.13579685234E+03  0.20234603765E+03  0.84086284279E+02 0.  0.
          6    2    1    2  501    0 -0.76426919384E+02  0.11518902913E+03  0.27871543364E+03  0.35499219532E+03  0.17096075383E+03 0.  0.
         24    2    5    5    0    0 -0.81082882645E+02  0.92796776618E+02  0.29419183982E+03  0.32697969606E+03  0.71980604426E+02 0.  0.
          5    1    5    5  501    0  0.46559632605E+01  0.22392252509E+02 -0.15476406178E+02  0.28012499255E+02  0.47000000000E+01 0. -1.
        -13    1    6    6    0    0 -0.93406753794E+02  0.70810226000E+02  0.24976052671E+03  0.27589713746E+03  0.00000000000E+00 0.  1.
         14    1    6    6    0    0  0.12323871149E+02  0.21986550618E+02  0.44431313111E+02  0.51082558598E+02  0.00000000000E+00 0. -1.
         -5    1    3    3    0  503  0.19446349265E+02 -0.47995129999E+01  0.18971256893E+03  0.19082490570E+03  0.47000000000E+01 0.  1.
         11    1    4    4    0    0  0.28965309298E+02 -0.80999193230E+02  0.13695065376E+03  0.16172612656E+03  0.00000000000E+00 0. -1.
        -12    1    4    4    0    0  0.28015260821E+02 -0.29390322898E+02 -0.11538014223E+01  0.40619911086E+02  0.00000000000E+00 0.  1.
</event>
<event>
12    1  0.1046899E+000  0.2442752E+03  0.7818608E-02  0.1117978E+00
         21   -1    0    0  503  502  0.00000000000E+00  0.00000000000E+00  0.39050672989E+03  0.39050672989E+03  0.00000000000E+00 0.  1.
         21   -1    0    0  501  503 -0.00000000000E+00 -0.00000000000E+00 -0.22880397142E+03  0.22880397142E+03  0.00000000000E+00 0. -1.
          6    2    1    2  501    0 -0.16359331148E+03 -0.18025433885E+02  0.26301983807E+03  0.35485749259E+03  0.17221125690E+03 0.  0.
         24    2    3    3    0    0 -0.18915352200E+03 -0.32153147225E+02  0.23768460238E+03  0.31591033848E+03  0.80576001304E+02 0.  0.
         -6    2    1    2    0  502  0.16359331148E+03  0.18025433885E+02 -0.10131707959E+03  0.26445320872E+03  0.18050667898E+03 0.  0.
        -24    2    5    5    0    0  0.55757225757E+02 -0.50777726583E+02 -0.20239049320E+02  0.11293346325E+03  0.81591067301E+02 0.  0.
          5    1    3    3  501    0  0.25560210524E+02  0.14127713340E+02  0.25335235689E+02  0.38947154115E+02  0.47000000000E+01 0. -1.
        -13    1    4    4    0    0 -0.10387629735E+03  0.94474737888E+01  0.16967366814E+03  0.19917001173E+03  0.00000000000E+00 0.  1.
         14    1    4    4    0    0 -0.85277224651E+02 -0.41600621014E+02  0.68010934238E+02  0.11674032675E+03  0.00000000000E+00 0. -1.
         -5    1    5    5    0  502  0.10783608572E+03  0.68803160468E+02 -0.81078030270E+02  0.15151974547E+03  0.47000000000E+01 0.  1.
         11    1    6    6    0    0  0.14327653525E+02  0.28326323336E+01 -0.39814852842E+02  0.42409055263E+02  0.00000000000E+00 0. -1.
        -12    1    6    6    0    0  0.41429572232E+02 -0.53610358917E+02  0.19575803522E+02  0.70524407988E+02  0.00000000000E+00 0.  1.
</event>
<event>
12    1  0.1046899E+000  0.2082861E+03  0.7818608E-02  0.1143028E+00
         21   -1    0    0  501  502  0.00000000000E+00  0.00000000000E+00  0.34631955201E+03  0.34631955201E+03  0.00000000000E+00 0.  1.
         21   -1    0    0  502  503 -0.00000000000E+00 -0.00000000000E+00 -0.35378152702E+03  0.35378152702E+03  0.00000000000E+00 0. -1.
         -6    2    1    2    0  503  0.70888181087E+02 -0.93494317156E+02 -0.28524400262E+03  0.35319576419E+03  0.17209527957E+03 0.  0.
        -24    2    3    3    0    0  0.48279213237E+01 -0.54335121494E+02 -0.24936544971E+03  0.26830311973E+03  0.82630637733E+02 0.  0.
          6    2    1    2  501    0 -0.70888181087E+02  0.93494317156E+02  0.27778202760E+03  0.34690531485E+03  0.17150545488E+03 0.  0.
         24    2    5    5    0    0 -0.10661581307E+03  0.88752981843E+02  0.26324809627E+03  0.30776110573E+03  0.78570443713E+02 0.  0.
          5    1    5    5  501    0  0.35727631988E+02  0.47413353129E+01  0.14533931337E+02  0.39144209126E+02  0.47000000000E+01 0. -1.
        -11    1    6    6    0    0 -0.42338522070E+02  0.10889283423E+02  0.14905130185E+03  0.15533002777E+03  0.00000000000E+00 0.  1.
         12    1    6    6    0    0 -0.64277291004E+02  0.77863698420E+02  0.11419679442E+03  0.15243107795E+03  0.00000000000E+00 0. -1.
         -5    1    3    3    0  503  0.66060259763E+02 -0.39159195662E+02 -0.35878552905E+02  0.84892644460E+02  0.47000000000E+01 0.  1.
         13    1    4    4    0    0  0.38005522284E+02 -0.33575450040E+01 -0.99643531821E+02  0.10669829552E+03  0.00000000000E+00 0. -1.
        -14    1    4    4    0    0 -0.33177600961E+02 -0.50977576490E+02 -0.14972191789E+03  0.16160482421E+03  0.00000000000E+00 0.  1.
</event>
<event>
12    1  0.1046899E+000  0.2560574E+03  0.7818608E-02  0.1109563E+00
         21   -1    0    0  503  502  0.00000000000E+00  0.00000000000E+00  0.58582190386E+03  0.58582190386E+03  0.00000000000E+00 0.  1.
         21   -1    0    0  501  503 -0.00000000000E+00 -0.00000000000E+00 -0.16545949305E+03  0.16545949305E+03  0.00000000000E+00 0. -1.
          6    2    1    2  501    0  0.18252078210E+03  0.49638559045E+02  0.42396768310E+03  0.49519861715E+03  0.17232310252E+03 0.  0.
         24    2    3    3    0    0  0.77549484927E+02 -0.36516128150E+02  0.16267924561E+03  0.20068997393E+03  0.80402602315E+02 0.  0.
         -6    2    1    2    0  502 -0.18252078210E+03 -0.49638559045E+02 -0.36052722985E+01  0.25608277977E+03  0.17259075775E+03 0.  0.
        -24    2    5    5    0    0 -0.10926837056E+03 -0.33255015028E+01 -0.66449956459E+02  0.14892700800E+03  0.76243171716E+02 0.  0.
          5    1    3    3  501    0  0.10497129718E+03  0.86154687195E+02  0.26128843750E+03  0.29450864321E+03  0.47000000000E+01 0. -1.
        -13    1    4    4    0    0  0.37388433323E+02 -0.55131321669E+01  0.14018765172E+03  0.14519251794E+03  0.00000000000E+00 0.  1.
         14    1    4    4    0    0  0.40161051604E+02 -0.31002995983E+02  0.22491593890E+02  0.55497455992E+02  0.00000000000E+00 0. -1.
         -5    1    5    5    0  502 -0.73252411545E+02 -0.46313057542E+02  0.62844684160E+02  0.10715577177E+03  0.47000000000E+01 0.  1.
         13    1    6    6    0    0 -0.93881963381E+01  0.18245538177E+02  0.84932086654E+01  0.22207487190E+02  0.00000000000E+00 0. -1.
        -14    1    6    6    0    0 -0.99880174221E+02 -0.21571039680E+02 -0.74943165124E+02  0.12671952081E+03  0.00000000000E+00 0.  1.
</event>
<event>
12    1  0.1046899E+000  0.2267030E+03  0.7818608E-02  0.1129114E+00
         21   -1    0    0  501  502  0.00000000000E+00  0.00000000000E+00  0.61212173343E+02  0.61212173343E+02  0.00000000000E+00 0.  1.
         21   -1    0    0  502  503 -0.00000000000E+00 -0.00000000000E+00 -0.84813694522E+03  0.84813694522E+03  0.00000000000E+00 0.  1.
         -6    2    1    2    0  503  0.10320750384E+03  0.10420483490E+03 -0.44517683090E+03  0.49924439162E+03  0.17190728702E+03 0.  0.
        -24    2    3    3    0    0  0.20483253015E+02  0.68803759991E+02 -0.11771744544E+03  0.15961477439E+03  0.80411182042E+02 0.  0.
          6    2    1    2  501    0 -0.10320750384E+03 -0.10420483490E+03 -0.34174794098E+03  0.41010472695E+03  0.17286930159E+03 0.  0.
         24    2    5    5    0    0  0.17901313517E+01 -0.36541305878E+02 -0.72928193202E+02  0.11364393130E+03  0.79107206707E+02 0.  0.
          5    1    5    5  501    0 -0.10499763520E+03 -0.67663529021E+02 -0.26881974778E+03  0.29646079564E+03  0.47000000000E+01 0. -1.
        -13    1    6    6    0    0 -0.19150402195E+02  0.14336376771E+02 -0.47180476233E+02  0.52898647816E+02  0.00000000000E+00 0.  1.
         14    1    6    6    0    0  0.20940533547E+02 -0.50877682649E+02 -0.25747716969E+02  0.60745283489E+02  0.00000000000E+00 0. -1.
         -5    1    3    3    0  503  0.82724250830E+02  0.35401074907E+02 -0.32745938546E+03  0.33962961723E+03  0.47000000000E+01 0.  1.
         11    1    4    4    0    0  0.40956328953E+02  0.25479257919E+02 -0.22939233815E+02  0.53411814362E+02  0.00000000000E+00 0. -1.
        -12    1    4    4    0    0 -0.20473075939E+02  0.43324502072E+02 -0.94778211628E+02  0.10620296002E+03  0.00000000000E+00 0.  1.
</event>
<event>
12    1  0.1046899E+000  0.1762930E+03  0.7818608E-02  0.1172146E+00
         21   -1    0    0  501  502  0.00000000000E+00  0.00000000000E+00  0.22303865232E+03  0.22303865232E+03  0.00000000000E+00 0. -1.
         21   -1    0    0  502  503 -0.00000000000E+00 -0.00000000000E+00 -0.13714342131E+03  0.13714342131E+03  0.00000000000E+00 0. -1.
         -6    2    1    2    0  503  0.39866187784E+02 -0.15516487447E+02  0.40628651451E+02  0.17817027241E+03  0.16811866149E+03 0.  0.
        -24    2    3    3    0    0 -0.15543037192E+02  0.41354195977E+02  0.33609406391E+02  0.98321561423E+02  0.81152829357E+02 0.  0.
          6    2    1    2  501    0 -0.39866187784E+02  0.15516487447E+02  0.45266579559E+02  0.18201180122E+03  0.17102385286E+03 0.  0.
         24    2    5    5    0    0 -0.14369708129E+02  0.74923502043E+02  0.33926327005E+02  0.11620940623E+03  0.80830753811E+02 0.  0.
          5    1    5    5  501    0 -0.25496479655E+02 -0.59407014596E+02  0.11340252554E+02  0.65802394987E+02  0.47000000000E+01 0. -1.
        -13    1    6    6    0    0 -0.38077640444E+02  0.36644944018E+02  0.45483060690E+02  0.69724224152E+02  0.00000000000E+00 0.  1.
         14    1    6    6    0    0  0.23707932315E+02  0.38278558025E+02 -0.11556733686E+02  0.46485182076E+02  0.00000000000E+00 0. -1.
         -5    1    3    3    0  503  0.55409224977E+02 -0.56870683424E+02  0.70192450598E+01  0.79848710990E+02  0.47000000000E+01 0.  1.
         13    1    4    4    0    0 -0.11188456725E+02  0.23923490939E+02  0.60481622234E+02  0.65996527262E+02  0.00000000000E+00 0. -1.
        -14    1    4    4    0    0 -0.43545804674E+01  0.17430705037E+02 -0.26872215843E+02  0.32325034160E+02  0.00000000000E+00 0.  1.
</event>
<event>
12    1  0.1046899E+000  0.3014698E+03  0.7818608E-02  0.1084696E+00
         21   -1    0    0  503  502  0.00000000000E+00  0.00000000000E+00  0.60579642725E+03  0.60579642725E+03  0.00000000000E+00 0.  1.
         21   -1    0    0  501  503 -0.00000000000E+00 -0.00000000000E+00 -0.45157391640E+03  0.45157391640E+03  0.00000000000E+00 0.  1.
          6    2    1    2  501    0 -0.24543608932E+03 -0.28283257925E+02 -0.35551681079E+03  0.46515565935E+03  0.17011398548E+03 0.  0.
         24    2    3    3    0    0 -0.23976863929E+03 -0.11588485991E+02 -0.24298128122E+03  0.35115052432E+03  0.81507633429E+02 0.  0.
         -6    2    1    2    0  502  0.24543608932E+03  0.28283257925E+02  0.50973932164E+03  0.59221468430E+03  0.17275774846E+03 0.  0.
        -24    2    5    5    0    0  0.47354948909E+02  0.19681030068E+02  0.12105552245E+03  0.15585780941E+03  0.83710113531E+02 0.  0.
          5    1    3    3  501    0 -0.56674500219E+01 -0.16694771935E+02 -0.11253552957E+03  0.11400513504E+03  0.47000000000E+01 0. -1.
        -13    1    4    4    0    0 -0.10339742231E+03 -0.20431761408E+02 -0.55404011151E+02  0.11907177779E+03  0.00000000000E+00 0.  1.
         14    1    4    4    0    0 -0.13637121699E+03  0.88432754176E+01 -0.18757727007E+03  0.23207874653E+03  0.00000000000E+00 0. -1.
         -5    1    5    5    0  502  0.19808114041E+03  0.86022278572E+01  0.38868379920E+03  0.43635687489E+03  0.47000000000E+01 0.  1.
         11    1    6    6    0    0  0.66758124100E+02  0.10861649766E+02  0.11547660528E+03  0.13382626400E+03  0.00000000000E+00 0. -1.
        -12    1    6    6    0    0 -0.19403175191E+02  0.88193803015E+01  0.55789171715E+01  0.22031545411E+02  0.00000000000E+00 0.  1.
</event>
<event>
12    1  0.1046899E+000  0.3069129E+03  0.7818608E-02  0.1082881E+00
         21   -1    0    0  503  502  0.00000000000E+00  0.00000000000E+00  0.71828144623E+03  0.71828144623E+03  0.00000000000E+00 0.  1.
         21   -1    0    0  501  503 -0.00000000000E+00 -0.00000000000E+00 -0.12755192187E+03  0.12755192187E+03  0.00000000000E+00 0.  1.
          6    2    1    2  501    0  0.30550116298E+02 -0.24204203360E+03  0.30401461311E+03  0.43199582470E+03  0.18621990210E+03 0.  0.
         24    2    3    3    0    0  0.52277692506E+02 -0.23630241341E+03  0.31603861862E+03  0.40607869684E+03  0.80297645370E+02 0.  0.
         -6    2    1    2    0  502 -0.30550116298E+02  0.24204203360E+03  0.28671491125E+03  0.41383754341E+03  0.17186743834E+03 0.  0.
        -24    2    5    5    0    0 -0.59892381187E+02  0.24168206930E+03  0.28174283595E+03  0.38370600485E+03  0.76511127331E+02 0.  0.
          5    1    3    3  501    0 -0.21727576209E+02 -0.57396201942E+01 -0.12024005513E+02  0.25917127859E+02  0.47000000000E+01 0. -1.
        -11    1    4    4    0    0  0.38526187438E+02 -0.33752861007E+02  0.51699047945E+02  0.72775781020E+02  0.00000000000E+00 0.  1.
         12    1    4    4    0    0  0.13751505068E+02 -0.20254955240E+03  0.26433957068E+03  0.33330291582E+03  0.00000000000E+00 0. -1.
         -5    1    5    5    0  502  0.29342264890E+02  0.35996430466E+00  0.49720753076E+01  0.30131538560E+02  0.47000000000E+01 0.  1.
         13    1    6    6    0    0  0.12237137643E+02  0.28834543259E+02  0.61625759382E+02  0.69129679893E+02  0.00000000000E+00 0. -1.
        -14    1    6    6    0    0 -0.72129518830E+02  0.21284752604E+03  0.22011707656E+03  0.31457632495E+03  0.00000000000E+00 0.  1.
</event>
<event>
12    1  0.1046899E+000  0.2949327E+03  0.7818608E-02  0.1087854E+00
         21   -1    0    0  503  502  0.00000000000E+00  0.00000000000E+00  0.72825017478E+03  0.72825017478E+03  0.00000000000E+00 0. -1.
         21   -1    0    0  501  503 -0.00000000000E+00 -0.00000000000E+00 -0.21382522677E+03  0.21382522677E+03  0.00000000000E+00 0. -1.
          6    2    1    2  501    0 -0.15154769744E+03  0.18434237587E+03 -0.55909378039E+02  0.30018523413E+03  0.17331041544E+03 0.  0.
         24    2    3    3    0    0 -0.13686388031E+03  0.20945734034E+03 -0.34025783359E+02  0.26347886354E+03  0.75228042915E+02 0.  0.
         -6    2    1    2    0  502  0.15154769744E+03 -0.18434237587E+03  0.57033432605E+03  0.64189016742E+03  0.17260627862E+03 0.  0.
        -24    2    5    5    0    0  0.12325143430E+03 -0.15654845501E+03  0.30159061490E+03  0.37019465250E+03  0.79930262864E+02 0.  0.
          5    1    3    3  501    0 -0.14683817136E+02 -0.25114964477E+02 -0.21883594679E+02  0.36706370598E+02  0.47000000000E+01 0. -1.
        -11    1    4    4    0    0 -0.67638961054E+02  0.13467644909E+03  0.12962525941E+02  0.15126401446E+03  0.00000000000E+00 0.  1.
         12    1    4    4    0    0 -0.69224919253E+02  0.74780891254E+02 -0.46988309300E+02  0.11221484908E+03  0.00000000000E+00 0. -1.
         -5    1    5    5    0  502  0.28296263146E+02 -0.27793920854E+02  0.26874371115E+03  0.27169551492E+03  0.47000000000E+01 0.  1.
         13    1    6    6    0    0  0.82768505449E+02 -0.53167474997E+02  0.18285842042E+03  0.20764057362E+03  0.00000000000E+00 0. -1.
        -14    1    6    6    0    0  0.40482928849E+02 -0.10338098002E+03  0.11873219448E+03  0.16255407889E+03  0.00000000000E+00 0.  1.
</event>
<event>
12    1  0.1046899E+000  0.2058551E+03  0.7818608E-02  0.1144955E+00
         21   -1    0    0  501  502  0.00000000000E+00  0.00000000000E+00  0.13630532529E+03  0.13630532529E+03  0.00000000000E+00 0. -1.
         21   -1    0    0  502  503 -0.00000000000E+00 -0.00000000000E+00 -0.53500125393E+03  0.53500125393E+03  0.00000000000E+00 0.  1.
         -6    2    1    2    0  503  0.63676078532E+02 -0.93651305553E+02 -0.41673127346E+03  0.46466291695E+03  0.17152685532E+03 0.  0.
        -24    2    3    3    0    0  0.10916046514E+03 -0.62315609479E+02 -0.32567496635E+03  0.35806040132E+03  0.79648132142E+02 0.  0.
          6    2    1    2  501    0 -0.63676078532E+02  0.93651305553E+02  0.18035344826E+02  0.20664366228E+03  0.17190439054E+03 0.  0.
         24    2    5    5    0    0 -0.32065790503E+02  0.17126001200E+02 -0.47439328247E+02  0.10098214927E+03  0.81396497283E+02 0.  0.
          5    1    5    5  501    0 -0.31610288029E+02  0.76525304353E+02  0.65474673074E+02  0.10566151300E+03  0.47000000000E+01 0. -1.
        -13    1    6    6    0    0 -0.38667518236E+02  0.40718083431E+02 -0.11231339934E+02  0.57265017956E+02  0.00000000000E+00 0.  1.
         14    1    6    6    0    0  0.66017277327E+01 -0.23592082230E+02 -0.36207988313E+02  0.43717131319E+02  0.00000000000E+00 0. -1.
         -5    1    3    3    0  503 -0.45484386603E+02 -0.31335696074E+02 -0.91056307111E+02  0.10660251563E+03  0.47000000000E+01 0.  1.
         13    1    4    4    0    0  0.84649297628E+02 -0.78157533657E+02 -0.28947851203E+03  0.31156365735E+03  0.00000000000E+00 0. -1.
        -14    1    4    4    0    0  0.24511167507E+02  0.15841924179E+02 -0.36196454320E+02  0.46496743968E+02  0.00000000000E+00 0.  1.
</event>
<event>
12    1  0.1046899E+000  0.2726962E+03  0.7818608E-02  0.1099920E+00
         21   -1    0    0  503  502  0.00000000000E+00  0.00000000000E+00  0.34962613118E+04  0.34962613118E+04  0.00000000000E+00 0. -1.
         21   -1    0    0  501  503 -0.00000000000E+00 -0.00000000000E+00 -0.31771690171E+02  0.31771690171E+02  0.00000000000E+00 0. -1.
          6    2    1    2  501    0  0.15138569841E+03  0.14608396999E+03  0.27484499617E+04  0.27618241600E+04  0.17157314171E+03 0.  0.
         24    2    3    3    0    0  0.15621292301E+03  0.60230331355E+02  0.18754713850E+04  0.18846082033E+04  0.79529829884E+02 0.  0.
         -6    2    1    2    0  502 -0.15138569841E+03 -0.14608396999E+03  0.71603965989E+03  0.76620884191E+03  0.17350803702E+03 0.  0.
        -24    2    5    5    0    0 -0.16385356802E+03 -0.84178614971E+02  0.49659874584E+03  0.53781417140E+03  0.93272384055E+02 0.  0.
          5    1    3    3  501    0 -0.48272246013E+01  0.85853638638E+02  0.87297857670E+03  0.87721595673E+03  0.47000000000E+01 0. -1.
        -11    1    4    4    0    0  0.89798678751E+00  0.51640789245E+01  0.63371398978E+01  0.82239548572E+01  0.00000000000E+00 0.  1.
         12    1    4    4    0    0  0.15531493623E+03  0.55066252431E+02  0.18691342451E+04  0.18763842485E+04  0.00000000000E+00 0. -1.
         -5    1    5    5    0  502  0.12467869607E+02 -0.61905355023E+02  0.21944091406E+03  0.22839467050E+03  0.47000000000E+01 0.  1.
         11    1    6    6    0    0 -0.65744067120E+02 -0.74310858859E+02  0.17196342721E+03  0.19853414418E+03  0.00000000000E+00 0. -1.
        -12    1    6    6    0    0 -0.98109500899E+02 -0.98677561118E+01  0.32463531862E+03  0.33928002723E+03  0.00000000000E+00 0.  1.
</event>
<event>
12    1  0.1046899E+000  0.2224071E+03  0.7818608E-02  0.1132382E+00
         21   -1    0    0  503  502  0.00000000000E+00  0.00000000000E+00  0.95444465113E+03  0.95444465113E+03  0.00000000000E+00 0. -1.
         21   -1    0    0  501  503 -0.00000000000E+00 -0.00000000000E+00 -0.64029658521E+02  0.64029658521E+02  0.00000000000E+00 0. -1.
          6    2    1    2  501    0  0.16697391506E+02 -0.13743546923E+03  0.21845560142E+03  0.31066478680E+03  0.17211173370E+03 0.  0.
         24    2    3    3    0    0 -0.27070163824E+02 -0.12058986786E+03  0.21865602707E+03  0.26353196007E+03  0.79774217664E+02 0.  0.
         -6    2    1    2    0  502 -0.16697391506E+02  0.13743546923E+03  0.67195939119E+03  0.70780952285E+03  0.17406201812E+03 0.  0.
        -24    2    5    5    0    0 -0.19047498439E+02  0.15763704962E+03  0.66082117198E+03  0.68414992058E+03  0.78512711591E+02 0.  0.
          5    1    3    3  501    0  0.43767555330E+02 -0.16845601363E+02 -0.20042564665E+00  0.47132826727E+02  0.47000000000E+01 0. -1.
        -13    1    4    4    0    0 -0.27131439615E+02 -0.13212220297E+03  0.19363085928E+03  0.23597733196E+03  0.00000000000E+00 0.  1.
         14    1    4    4    0    0  0.61275791152E-01  0.11532335101E+02  0.25025167787E+02  0.27554628111E+02  0.00000000000E+00 0. -1.
         -5    1    5    5    0  502  0.23501069327E+01 -0.20201580387E+02  0.11138219208E+02  0.23659602276E+02  0.47000000000E+01 0.  1.
         11    1    6    6    0    0 -0.18689155660E+02  0.16440150958E+02  0.21667487104E+03  0.21809989189E+03  0.00000000000E+00 0. -1.
        -12    1    6    6    0    0 -0.35834277884E+00  0.14119689866E+03  0.44414630094E+03  0.46605002869E+03  0.00000000000E+00 0.  1.
</event>
<event>
12    1  0.1046899E+000  0.2237055E+03  0.7818608E-02  0.1131453E+00
         21   -1    0    0  501  502  0.00000000000E+00  0.00000000000E+00  0.10562766943E+04  0.10562766943E+04  0.00000000000E+00 0.  1.
         21   -1    0    0  502  503 -0.00000000000E+00 -0.00000000000E+00 -0.54010154536E+02  0.54010154536E+02  0.00000000000E+00 0.  1.
         -6    2    1    2    0  503  0.14080477415E+03  0.22895808717E+02  0.30315817839E+03  0.37676123622E+03  0.17231931265E+03 0.  0.
        -24    2    3    3    0    0  0.17113350383E+03  0.71253024517E+01  0.24863223477E+03  0.31223442598E+03  0.79592100943E+02 0.  0.
          6    2    1    2  501    0 -0.14080477415E+03 -0.22895808717E+02  0.69910836136E+03  0.73352561261E+03  0.17016791984E+03 0.  0.
         24    2    5    5    0    0 -0.53789592612E+02 -0.52867875707E+02  0.52335949543E+03  0.53508237011E+03  0.81973463922E+02 0.  0.
          5    1    5    5  501    0 -0.87015181534E+02  0.29972066989E+02  0.17574886593E+03  0.19844324250E+03  0.47000000000E+01 0. -1.
        -11    1    6    6    0    0 -0.20472906915E+02 -0.42752084838E+02  0.10415093390E+03  0.11443031813E+03  0.00000000000E+00 0.  1.
         12    1    6    6    0    0 -0.33316685697E+02 -0.10115790869E+02  0.41920856153E+03  0.42065205197E+03  0.00000000000E+00 0. -1.
         -5    1    3    3    0  503 -0.30328729682E+02  0.15770506266E+02  0.54525943624E+02  0.64526810243E+02  0.47000000000E+01 0.  1.
         13    1    4    4    0    0  0.94312037581E+02  0.40873201673E+02  0.11309013486E+03  0.15282263461E+03  0.00000000000E+00 0. -1.
        -14    1    4    4    0    0  0.76821466247E+02 -0.33747899222E+02  0.13554209991E+03  0.15941179137E+03  0.00000000000E+00 0.  1.
</event>
<event>
12    1  0.1046899E+000  0.3294240E+03  0.7818608E-02  0.1071488E+00
         21   -1    0    0  503  502  0.00000000000E+00  0.00000000000E+00  0.49159174372E+03  0.49159174372E+03  0.00000000000E+00 0.  1.
         21   -1    0    0  501  503 -0.00000000000E+00 -0.00000000000E+00 -0.31854728992E+03  0.31854728992E+03  0.00000000000E+00 0.  1.
          6    2    1    2  501    0 -0.18361830561E+03 -0.21177623172E+03 -0.13865850153E+03  0.35662067692E+03  0.17142716436E+03 0.  0.
         24    2    3    3    0    0 -0.11032747411E+03 -0.43229623528E+02 -0.79390518390E+02  0.16345160864E+03  0.79828704499E+02 0.  0.
         -6    2    1    2    0  502  0.18361830561E+03  0.21177623172E+03  0.31170295533E+03  0.45351835673E+03  0.17307603258E+03 0.  0.
        -24    2    5    5    0    0  0.15480414812E+03  0.88211370231E+02  0.23380698806E+03  0.30456063661E+03  0.79661179972E+02 0.  0.
          5    1    3    3  501    0 -0.73290831502E+02 -0.16854660819E+03 -0.59267983143E+02  0.19316906828E+03  0.47000000000E+01 0. -1.
        -11    1    4    4    0    0 -0.94324042522E+02 -0.47143690415E+02 -0.94126092707E+02  0.14134805931E+03  0.00000000000E+00 0.  1.
         12    1    4    4    0    0 -0.16003431587E+02  0.39140668870E+01  0.14735574317E+02  0.22103549322E+02  0.00000000000E+00 0. -1.
         -5    1    5    5    0  502  0.28814157496E+02  0.12356486148E+03  0.77895967267E+02  0.14895772012E+03  0.47000000000E+01 0.  1.
         13    1    6    6    0    0  0.10897239159E+03  0.40214129560E+02  0.92647652709E+02  0.14857908970E+03  0.00000000000E+00 0. -1.
        -14    1    6    6    0    0  0.45831756527E+02  0.47997240672E+02  0.14115933535E+03  0.15598154690E+03  0.00000000000E+00 0.  1.
</event>
