<event>
12    1  0.8684423E-002  0.2574728E+03  0.7818608E-02  0.1109184E+00
         21   -1    0    0  503  502  0.00000000000E+00  0.00000000000E+00  0.18822004681E+03  0.18822004681E+03  0.00000000000E+00 0. -1.
         21   -1    0    0  501  503 -0.00000000000E+00 -0.00000000000E+00 -0.36863617900E+03  0.36863617900E+03  0.00000000000E+00 0.  1.
          6    2    1    2  501    0 -0.12205171312E+03 -0.14176928269E+03 -0.15609897680E+03  0.29823764238E+03  0.17199898425E+03 0.  0.
         24    2    3    3    0    0 -0.58690193396E+02 -0.16371187900E+02 -0.21295882807E+02  0.10347283932E+03  0.80873724154E+02 0.  0.
         -6    2    1    2    0  502  0.12205171312E+03  0.14176928269E+03 -0.24317155382E+02  0.25861858343E+03  0.17690985688E+03 0.  0.
        -24    2    5    5    0    0  0.81202127682E+02  0.82733793981E+02 -0.83600174046E+02  0.16539603327E+03  0.83235764626E+02 0.  0.
          5    1    3    3  501    0 -0.63361519723E+02 -0.12539809479E+03 -0.13480309400E+03  0.19476480306E+03  0.47000000000E+01 0. -1.
        -13    1    4    4    0    0 -0.77336863401E+02 -0.22030157056E+02 -0.23713357399E+02  0.83836994100E+02  0.00000000000E+00 0.  1.
         14    1    4    4    0    0  0.18646670004E+02  0.56589691562E+01  0.24174745918E+01  0.19635845222E+02  0.00000000000E+00 0. -1.
         -5    1    5    5    0  502  0.40849585438E+02  0.59035488707E+02  0.59283018665E+02  0.93222550165E+02  0.47000000000E+01 0.  1.
         13    1    6    6    0    0  0.42655442831E+02  0.31585469334E+02  0.79479686007E+01  0.53668416047E+02  0.00000000000E+00 0. -1.
        -14    1    6    6    0    0  0.38546684851E+02  0.51148324647E+02 -0.91548142647E+02  0.11172761722E+03  0.00000000000E+00 0.  1.
</event>
<event>
12    1  0.8684423E-002  0.1940231E+03  0.7818608E-02  0.1155052E+00
         21   -1    0    0  501  502  0.00000000000E+00  0.00000000000E+00  0.47703208596E+03  0.47703208596E+03  0.00000000000E+00 0.  1.
         21   -1    0    0  502  503 -0.00000000000E+00 -0.00000000000E+00 -0.16674290678E+03  0.16674290678E+03  0.00000000000E+00 0. -1.
         -6    2    1    2    0  503 -0.16586787691E+02 -0.87335226778E+02 -0.79030419763E+02  0.20878680449E+03  0.17159125595E+03 0.  0.
        -24    2    3    3    0    0  0.49262256568E+02 -0.65474275310E+02 -0.81163482938E+02  0.13921211234E+03  0.77966984107E+02 0.  0.
          6    2    1    2  501    0  0.16586787691E+02  0.87335226778E+02  0.38931959894E+03  0.43498818825E+03  0.17245988066E+03 0.  0.
         24    2    5    5    0    0 -0.81143297580E+00 -0.29972706923E+01  0.28275229994E+03  0.29412890599E+03  0.80952505613E+02 0.  0.
          5    1    5    5  501    0  0.17398220666E+02  0.90332497470E+02  0.10656729900E+03  0.14085928226E+03  0.47000000000E+01 0. -1.
        -11    1    6    6    0    0  0.17403463696E+02 -0.17323789293E+02  0.26160918500E+03  0.26275912905E+03  0.00000000000E+00 0.  1.
         12    1    6    6    0    0 -0.18214896672E+02  0.14326518601E+02  0.21143114939E+02  0.31369776941E+02  0.00000000000E+00 0. -1.
         -5    1    3    3    0  503 -0.65849044259E+02 -0.21860951468E+02  0.21330631746E+01  0.69574692148E+02  0.47000000000E+01 0.  1.
         13    1    4    4    0    0  0.32407478683E+02 -0.81127055876E+02 -0.50587868906E+02  0.10095036578E+03  0.00000000000E+00 0. -1.
        -14    1    4    4    0    0  0.16854777885E+02  0.15652780566E+02 -0.30575614032E+02  0.38261746568E+02  0.00000000000E+00 0.  1.
</event>
<event>
12    1  0.8684423E-002  0.1778287E+03  0.7818608E-02  0.1169960E+00
         21   -1    0    0  503  502  0.00000000000E+00  0.00000000000E+00  0.39968915475E+03  0.39968915475E+03  0.00000000000E+00 0.  1.
         21   -1    0    0  501  503 -0.00000000000E+00 -0.00000000000E+00 -0.79069879928E+02  0.79069879928E+02  0.00000000000E+00 0.  1.
          6    2    1    2  501    0 -0.45483587787E+02 -0.25367701465E+01  0.15646005934E+03  0.23686030813E+03  0.17189491976E+03 0.  0.
         24    2    3    3    0    0  0.28194912209E+02  0.43039610127E+01  0.13548482829E+03  0.15980599429E+03  0.79801879420E+02 0.  0.
         -6    2    1    2    0  502  0.45483587787E+02  0.25367701465E+01  0.16415921548E+03  0.24189872654E+03  0.17173105110E+03 0.  0.
        -24    2    5    5    0    0  0.47195573389E+02 -0.31915930221E+02  0.27396248113E+02  0.10077424709E+03  0.78478313666E+02 0.  0.
          5    1    3    3  501    0 -0.73678499996E+02 -0.68407311593E+01  0.20975231043E+02  0.77054313843E+02  0.47000000000E+01 0. -1.
        -13    1    4    4    0    0 -0.95668724532E+01 -0.59160162758E+01 -0.61832580190E+01  0.12835769429E+02  0.00000000000E+00 0.  1.
         14    1    4    4    0    0  0.37761784662E+02  0.10219977289E+02  0.14166808631E+03  0.14697022486E+03  0.00000000000E+00 0. -1.
         -5    1    5    5    0  502 -0.17119856016E+01  0.34452700368E+02  0.13676296737E+03  0.14112447946E+03  0.47000000000E+01 0.  1.
         13    1    6    6    0    0  0.28455976092E+02 -0.57550412679E+02  0.25114650280E+02  0.68938655583E+02  0.00000000000E+00 0. -1.
        -14    1    6    6    0    0  0.18739597297E+02  0.25634482458E+02  0.22815978330E+01  0.31835591504E+02  0.00000000000E+00 0.  1.
</event>
<event>
12    1  0.8684423E-002  0.2031385E+03  0.7818608E-02  0.1147487E+00
         21   -1    0    0  503  502  0.00000000000E+00  0.00000000000E+00  0.90807055846E+02  0.90807055846E+02  0.00000000000E+00 0. -1.
         21   -1    0    0  501  503 -0.00000000000E+00 -0.00000000000E+00 -0.10055781267E+04  0.10055781267E+04  0.00000000000E+00 0.  1.
          6    2    1    2  501    0 -0.66042948216E+02  0.80566821960E+02 -0.86558931855E+03  0.88910634818E+03  0.17439193267E+03 0.  0.
         24    2    3    3    0    0 -0.77987758882E+02 -0.56683865851E+01 -0.41501571154E+03  0.43017513871E+03  0.81843680250E+02 0.  0.
         -6    2    1    2    0  502  0.66042948216E+02 -0.80566821960E+02 -0.49181752314E+02  0.20727883437E+03  0.17231653028E+03 0.  0.
        -24    2    5    5    0    0  0.75197665476E+02 -0.72529792507E+02  0.23283036193E+02  0.13364705955E+03  0.80026102351E+02 0.  0.
          5    1    3    3  501    0  0.11944810665E+02  0.86235208545E+02 -0.45057360701E+03  0.45893120948E+03  0.47000000000E+01 0. -1.
        -13    1    4    4    0    0 -0.24134151184E+02  0.91263572957E+01 -0.31139503323E+03  0.31246218071E+03  0.00000000000E+00 0.  1.
         14    1    4    4    0    0 -0.53853607697E+02 -0.14794743881E+02 -0.10362067830E+03  0.11771295800E+03  0.00000000000E+00 0. -1.
         -5    1    5    5    0  502 -0.91547172593E+01 -0.80370294534E+01 -0.72464788506E+02  0.73631774824E+02  0.47000000000E+01 0.  1.
         11    1    6    6    0    0  0.49350151812E+00 -0.54704949197E+02  0.71876118120E+01  0.55177321193E+02  0.00000000000E+00 0. -1.
        -12    1    6    6    0    0  0.74704163958E+02 -0.17824843310E+02  0.16095424381E+02  0.78469738356E+02  0.00000000000E+00 0.  1.
</event>
<event>
12    1  0.8684423E-002  0.2074023E+03  0.7818608E-02  0.1144690E+00
         21   -1    0    0  503  502  0.00000000000E+00  0.00000000000E+00  0.19037890865E+03  0.19037890865E+03  0.00000000000E+00 0.  1.
         21   -1    0    0  501  503 -0.00000000000E+00 -0.00000000000E+00 -0.26190126622E+03  0.26190126622E+03  0.00000000000E+00 0.  1.
          6    2    1    2  501    0 -0.90402997316E+02 -0.74606459893E+02 -0.12542676588E+03  0.23798737832E+03  0.16482503711E+03 0.  0.
         24    2    3    3    0    0 -0.63805520665E+02 -0.78418937963E+02 -0.19981331327E+02  0.12907094053E+03  0.77713446641E+02 0.  0.
         -6    2    1    2    0  502  0.90402997316E+02  0.74606459893E+02  0.53904408316E+02  0.21429279655E+03  0.17110491412E+03 0.  0.
        -24    2    5    5    0    0  0.58371397717E+01  0.13255798314E+02 -0.19440038630E+02  0.86555621707E+02  0.83091348271E+02 0.  0.
          5    1    3    3  501    0 -0.26597476650E+02  0.38124780703E+01 -0.10544543455E+03  0.10891643779E+03  0.47000000000E+01 0. -1.
        -11    1    4    4    0    0 -0.45383985693E+02 -0.36046218680E+02 -0.47811316517E+02  0.75132935691E+02  0.00000000000E+00 0.  1.
         12    1    4    4    0    0 -0.18421534972E+02 -0.42372719283E+02  0.27829985190E+02  0.53938004838E+02  0.00000000000E+00 0. -1.
         -5    1    5    5    0  502  0.84565857544E+02  0.61350661579E+02  0.73344446946E+02  0.12773717484E+03  0.47000000000E+01 0.  1.
         11    1    6    6    0    0  0.53843714992E+01  0.24155207809E+02 -0.49082987108E+02  0.54969129010E+02  0.00000000000E+00 0. -1.
        -12    1    6    6    0    0  0.45276827246E+00 -0.10899409495E+02  0.29642948477E+02  0.31586492697E+02  0.00000000000E+00 0.  1.
</event>
<event>
12    1  0.8684423E-002  0.1941790E+03  0.7818608E-02  0.1154970E+00
         21   -1    0    0  503  502  0.00000000000E+00  0.00000000000E+00  0.13516233089E+03  0.13516233089E+03  0.00000000000E+00 0.  1.
         21   -1    0    0  501  503 -0.00000000000E+00 -0.00000000000E+00 -0.47251602094E+03  0.47251602094E+03  0.00000000000E+00 0.  1.
          6    2    1    2  501    0  0.89308190477E+02  0.11661876418E+02 -0.36413580660E+03  0.41267463965E+03  0.17202767310E+03 0.  0.
         24    2    3    3    0    0 -0.33735712401E+01 -0.17642309125E+02 -0.85900503106E+02  0.11791097439E+03  0.78749408847E+02 0.  0.
         -6    2    1    2    0  502 -0.89308190477E+02 -0.11661876418E+02  0.26782116545E+02  0.19500371218E+03  0.17087192206E+03 0.  0.
        -24    2    5    5    0    0  0.17693063676E+02 -0.11554352174E+01 -0.14189837788E+02  0.79849707737E+02  0.76552235737E+02 0.  0.
          5    1    3    3  501    0  0.92681761717E+02  0.29304185543E+02 -0.27823530349E+03  0.29476366526E+03  0.47000000000E+01 0. -1.
        -13    1    4    4    0    0  0.11499602665E+02  0.47624954531E+00  0.12362397338E+02  0.16890723579E+02  0.00000000000E+00 0.  1.
         14    1    4    4    0    0 -0.14873173906E+02 -0.18118558670E+02 -0.98262900444E+02  0.10102025081E+03  0.00000000000E+00 0. -1.
         -5    1    5    5    0  502 -0.10700125415E+03 -0.10506441200E+02  0.40971954333E+02  0.11515400444E+03  0.47000000000E+01 0.  1.
         13    1    6    6    0    0  0.15124795281E+02  0.36852159175E+02 -0.21300417319E+01  0.39892081244E+02  0.00000000000E+00 0. -1.
        -14    1    6    6    0    0  0.25682683943E+01 -0.38007594392E+02 -0.12059796056E+02  0.39957626493E+02  0.00000000000E+00 0.  1.
</event>
<event>
12    1  0.8684423E-002  0.2297359E+03  0.7818608E-02  0.1127026E+00
         21   -1    0    0  501  502  0.00000000000E+00  0.00000000000E+00  0.25099926626E+02  0.25099926626E+02  0.00000000000E+00 0.  1.
         21   -1    0    0  502  503 -0.00000000000E+00 -0.00000000000E+00 -0.38120163404E+04  0.38120163404E+04  0.00000000000E+00 0. -1.
         -6    2    1    2    0  503 -0.34211584050E+02 -0.14629333951E+03 -0.31846057214E+04  0.31928814893E+04  0.17379997202E+03 0.  0.
        -24    2    3    3    0    0 -0.31997834775E+02 -0.80315966061E+01 -0.15851736170E+04  0.15874761334E+04  0.78846116193E+02 0.  0.
          6    2    1    2  501    0  0.34211584050E+02  0.14629333951E+03 -0.60231069234E+03  0.64423477769E+03  0.17230236508E+03 0.  0.
         24    2    5    5    0    0  0.30228199759E+02  0.57880713065E+01 -0.21473878140E+03  0.23193431214E+03  0.82058120143E+02 0.  0.
          5    1    5    5  501    0  0.39833842912E+01  0.14050526820E+03 -0.38757191095E+03  0.41230046555E+03  0.47000000000E+01 0. -1.
        -13    1    6    6    0    0  0.52789252260E+01  0.20959806292E+02 -0.78510307412E+01  0.22996069556E+02  0.00000000000E+00 0.  1.
         14    1    6    6    0    0  0.24949274533E+02 -0.15171734985E+02 -0.20688775066E+03  0.20893824258E+03  0.00000000000E+00 0. -1.
         -5    1    3    3    0  503 -0.22137492750E+01 -0.13826174290E+03 -0.15994321044E+04  0.16054053559E+04  0.47000000000E+01 0.  1.
         11    1    4    4    0    0  0.13059617745E+02 -0.30223264795E+02 -0.81636160316E+03  0.81702525448E+03  0.00000000000E+00 0. -1.
        -12    1    4    4    0    0 -0.45057452520E+02  0.22191668189E+02 -0.76881201386E+03  0.77045087892E+03  0.00000000000E+00 0.  1.
</event>
<event>
12    1  0.8684423E-002  0.2059651E+03  0.7818608E-02  0.1144908E+00
         21   -1    0    0  501  502  0.00000000000E+00  0.00000000000E+00  0.13483783363E+03  0.13483783363E+03  0.00000000000E+00 0.  1.
         21   -1    0    0  502  503 -0.00000000000E+00 -0.00000000000E+00 -0.34366931447E+03  0.34366931447E+03  0.00000000000E+00 0.  1.
         -6    2    1    2    0  503 -0.11283772863E+03  0.15124923077E+02 -0.17505167574E+03  0.27030483964E+03  0.17164061539E+03 0.  0.
        -24    2    3    3    0    0 -0.12912361997E+03  0.47424377088E+02 -0.10640340878E+03  0.19256707826E+03  0.82694700285E+02 0.  0.
          6    2    1    2  501    0  0.11283772863E+03 -0.15124923077E+02 -0.33779805097E+02  0.20820230847E+03  0.17101464767E+03 0.  0.
         24    2    5    5    0    0  0.97794766795E+02 -0.54251432727E+02 -0.68083550653E+02  0.15383309459E+03  0.80760242426E+02 0.  0.
          5    1    5    5  501    0  0.15042961835E+02  0.39126509651E+02  0.34303745556E+02  0.54369213875E+02  0.47000000000E+01 0. -1.
        -11    1    6    6    0    0  0.89116583468E+02 -0.93444395599E+01 -0.30561679157E+02  0.94673651206E+02  0.00000000000E+00 0.  1.
         12    1    6    6    0    0  0.86781833271E+01 -0.44906993167E+02 -0.37521871497E+02  0.59159443386E+02  0.00000000000E+00 0. -1.
         -5    1    3    3    0  503  0.16285891341E+02 -0.32299454011E+02 -0.68648266965E+02  0.77737761374E+02  0.47000000000E+01 0.  1.
         11    1    4    4    0    0  0.93348385892E+01 -0.55735216440E+01 -0.15540662823E+01  0.10982644354E+02  0.00000000000E+00 0. -1.
        -12    1    4    4    0    0 -0.13845845856E+03  0.52997898732E+02 -0.10484934249E+03  0.18158443391E+03  0.00000000000E+00 0.  1.
</event>
<event>
12    1  0.8684423E-002  0.2101823E+03  0.7818608E-02  0.1141637E+00
         21   -1    0    0  503  502  0.00000000000E+00  0.00000000000E+00  0.45974886624E+02  0.45974886624E+02  0.00000000000E+00 0. -1.
         21   -1    0    0  501  503 -0.00000000000E+00 -0.00000000000E+00 -0.99817888619E+03  0.99817888619E+03  0.00000000000E+00 0. -1.
          6    2    1    2  501    0 -0.73869735203E+02  0.95044249402E+02 -0.58469142472E+03  0.62132169113E+03  0.17229751767E+03 0.  0.
         24    2    3    3    0    0 -0.46126749622E+02  0.88824669717E+02 -0.57761039532E+03  0.59164699824E+03  0.79968135942E+02 0.  0.
         -6    2    1    2    0  502  0.73869735203E+02 -0.95044249402E+02 -0.36751257485E+03  0.42283208169E+03  0.17097172139E+03 0.  0.
        -24    2    5    5    0    0  0.60403573280E+02  0.87515346046E+01 -0.14477869159E+03  0.17668705321E+03  0.80822423938E+02 0.  0.
          5    1    3    3  501    0 -0.27742985581E+02  0.62195796846E+01 -0.70810294036E+01  0.29674692885E+02  0.47000000000E+01 0. -1.
        -13    1    4    4    0    0  0.19553185857E+01  0.41504658287E+01  0.11683078696E+01  0.47344039377E+01  0.00000000000E+00 0.  1.
         14    1    4    4    0    0 -0.48082068208E+02  0.84674203888E+02 -0.57877870319E+03  0.58691259430E+03  0.00000000000E+00 0. -1.
         -5    1    5    5    0  502  0.13466161922E+02 -0.10379578401E+03 -0.22273388326E+03  0.24614502848E+03  0.47000000000E+01 0.  1.
         13    1    6    6    0    0 -0.14515938333E+02  0.15235605966E+02 -0.58853092995E+02  0.62502181641E+02  0.00000000000E+00 0. -1.
        -14    1    6    6    0    0  0.74919511613E+02 -0.64840713614E+01 -0.85925598596E+02  0.11418487157E+03  0.00000000000E+00 0.  1.
</event>
<event>
12    1  0.8684423E-002  0.2084749E+03  0.7818608E-02  0.1142897E+00
         21   -1    0    0  501  502  0.00000000000E+00  0.00000000000E+00  0.63476083156E+02  0.63476083156E+02  0.00000000000E+00 0.  1.
         21   -1    0    0  502  503 -0.00000000000E+00 -0.00000000000E+00 -0.18048012566E+04  0.18048012566E+04  0.00000000000E+00 0.  1.
         -6    2    1    2    0  503  0.77606746676E+02 -0.86957165406E+02 -0.16076737684E+04  0.16211343989E+04  0.17285091182E+03 0.  0.
        -24    2    3    3    0    0  0.87018558413E+02 -0.12206398175E+03 -0.12611661665E+04  0.12726940468E+04  0.82086491342E+02 0.  0.
          6    2    1    2  501    0 -0.77606746676E+02  0.86957165406E+02 -0.13365140503E+03  0.24714294091E+03  0.17214116135E+03 0.  0.
         24    2    5    5    0    0  0.88957941296E+01  0.61142270030E+02 -0.11844627032E+03  0.15547841936E+03  0.79539346220E+02 0.  0.
          5    1    5    5  501    0 -0.86502540805E+02  0.25814895376E+02 -0.15205134705E+02  0.91664521547E+02  0.47000000000E+01 0. -1.
        -13    1    6    6    0    0 -0.33539845041E+02  0.21080344218E+02 -0.30792691289E+02  0.50174614642E+02  0.00000000000E+00 0.  1.
         14    1    6    6    0    0  0.42435639170E+02  0.40061925812E+02 -0.87653579033E+02  0.10530380472E+03  0.00000000000E+00 0. -1.
         -5    1    3    3    0  503 -0.94118117373E+01  0.35106816347E+02 -0.34650760191E+03  0.34844035205E+03  0.47000000000E+01 0.  1.
         11    1    4    4    0    0  0.16503710244E+02 -0.81861140863E+02 -0.80913730291E+03  0.81343518106E+03  0.00000000000E+00 0. -1.
        -12    1    4    4    0    0  0.70514848169E+02 -0.40202840890E+02 -0.45202886362E+03  0.45925886575E+03  0.00000000000E+00 0.  1.
</event>
<event>
12    1  0.8684423E-002  0.1731877E+03  0.7818608E-02  0.1175185E+00
         21   -1    0    0  501  502  0.00000000000E+00  0.00000000000E+00  0.76108340662E+02  0.76108340662E+02  0.00000000000E+00 0. -1.
         21   -1    0    0  502  503 -0.00000000000E+00 -0.00000000000E+00 -0.60147743014E+03  0.60147743014E+03  0.00000000000E+00 0. -1.
         -6    2    1    2    0  503  0.37580519045E+01  0.18087370140E+02 -0.46303838888E+03  0.49352303843E+03  0.16976208047E+03 0.  0.
        -24    2    3    3    0    0 -0.46925158238E+02 -0.25626893247E+02 -0.34186726754E+03  0.35501579941E+03  0.79399503014E+02 0.  0.
          6    2    1    2  501    0 -0.37580519045E+01 -0.18087370140E+02 -0.62330700598E+02  0.18406273238E+03  0.17219958566E+03 0.  0.
         24    2    5    5    0    0 -0.18443547964E+02  0.52833631455E+02 -0.21133983642E+02  0.10060788381E+03  0.80893411015E+02 0.  0.
          5    1    5    5  501    0  0.14685496059E+02 -0.70921001595E+02 -0.41196716956E+02  0.83454848569E+02  0.47000000000E+01 0. -1.
        -13    1    6    6    0    0 -0.10831558565E+02  0.63722949094E+02 -0.41120489610E+02  0.76608299602E+02  0.00000000000E+00 0.  1.
         14    1    6    6    0    0 -0.76119893983E+01 -0.10889317639E+02  0.19986505968E+02  0.23999584206E+02  0.00000000000E+00 0. -1.
         -5    1    3    3    0  503  0.50683210143E+02  0.43714263387E+02 -0.12117112134E+03  0.13850723902E+03  0.47000000000E+01 0.  1.
         11    1    4    4    0    0  0.86761924524E+01  0.13915772332E+02 -0.15885275554E+03  0.15969697235E+03  0.00000000000E+00 0. -1.
        -12    1    4    4    0    0 -0.55601350691E+02 -0.39542665579E+02 -0.18301451200E+03  0.19531882706E+03  0.00000000000E+00 0.  1.
</event>
<event>
12    1  0.8684423E-002  0.1800662E+03  0.7818608E-02  0.1168206E+00
         21   -1    0    0  503  502  0.00000000000E+00  0.00000000000E+00  0.38509100585E+03  0.38509100585E+03  0.00000000000E+00 0. -1.
         21   -1    0    0  501  503 -0.00000000000E+00 -0.00000000000E+00 -0.89837905805E+02  0.89837905805E+02  0.00000000000E+00 0. -1.
          6    2    1    2  501    0 -0.34934726359E+02  0.14328028477E+02  0.84311351265E+02  0.19882718991E+03  0.17606282967E+03 0.  0.
         24    2    3    3    0    0 -0.11849789555E+02  0.78078033601E+02  0.41958074436E+02  0.11874680830E+03  0.78126356811E+02 0.  0.
         -6    2    1    2    0  502  0.34934726359E+02 -0.14328028477E+02  0.21094174878E+03  0.27610172174E+03  0.17409770781E+03 0.  0.
        -24    2    5    5    0    0 -0.12794562508E+02  0.27592213978E+02  0.19128900693E+03  0.20944054859E+03  0.79679533888E+02 0.  0.
          5    1    3    3  501    0 -0.23084936804E+02 -0.63750005124E+02  0.42353276829E+02  0.80080381609E+02  0.47000000000E+01 0. -1.
        -13    1    4    4    0    0  0.15504799052E+02 -0.72572352555E+01 -0.46485521435E+01  0.17739089442E+02  0.00000000000E+00 0.  1.
         14    1    4    4    0    0 -0.27354588607E+02  0.85335268856E+02  0.46606626580E+02  0.10100771886E+03  0.00000000000E+00 0. -1.
         -5    1    5    5    0  502  0.47729288867E+02 -0.41920242455E+02  0.19652741851E+02  0.66661173148E+02  0.47000000000E+01 0.  1.
         11    1    6    6    0    0  0.32241805523E+02  0.17832129868E+02  0.61248629232E+02  0.71476663757E+02  0.00000000000E+00 0. -1.
        -12    1    6    6    0    0 -0.45036368031E+02  0.97600841102E+01  0.13004037769E+03  0.13796388483E+03  0.00000000000E+00 0.  1.
</event>
<event>
12    1  0.8684423E-002  0.1838623E+03  0.7818608E-02  0.1164237E+00
         21   -1    0    0  501  502  0.00000000000E+00  0.00000000000E+00  0.74015306237E+02  0.74015306237E+02  0.00000000000E+00 0. -1.
         21   -1    0    0  502  503 -0.00000000000E+00 -0.00000000000E+00 -0.48583749168E+03  0.48583749168E+03  0.00000000000E+00 0. -1.
         -6    2    1    2    0  503 -0.61406881552E+02  0.67959797634E+01 -0.27617135790E+03  0.33177696241E+03  0.17317142782E+03 0.  0.
        -24    2    3    3    0    0 -0.40384711911E+02 -0.44341771419E+02 -0.86425094596E+02  0.13408342268E+03  0.83138135724E+02 0.  0.
          6    2    1    2  501    0  0.61406881552E+02 -0.67959797634E+01 -0.13565082754E+03  0.22807583551E+03  0.17262806634E+03 0.  0.
         24    2    5    5    0    0 -0.69539446147E+01 -0.51680611236E+02 -0.98092012737E+02  0.13796153439E+03  0.81805250970E+02 0.  0.
          5    1    5    5  501    0  0.68360826167E+02  0.44884631473E+02 -0.37558814807E+02  0.90114301120E+02  0.47000000000E+01 0. -1.
        -13    1    6    6    0    0 -0.36156253371E+02 -0.38257511376E+02 -0.25328664035E+02  0.58416205425E+02  0.00000000000E+00 0.  1.
         14    1    6    6    0    0  0.29202308756E+02 -0.13423099861E+02 -0.72763348702E+02  0.79545328970E+02  0.00000000000E+00 0. -1.
         -5    1    3    3    0  503 -0.21022169641E+02  0.51137751182E+02 -0.18974626331E+03  0.19769353973E+03  0.47000000000E+01 0.  1.
         11    1    4    4    0    0  0.87184666545E+01 -0.17457484534E+02 -0.74279537843E+02  0.76799903445E+02  0.00000000000E+00 0. -1.
        -12    1    4    4    0    0 -0.49103178565E+02 -0.26884286885E+02 -0.12145556753E+02  0.57283519230E+02  0.00000000000E+00 0.  1.
</event>
<event>
12    1  0.8684423E-002  0.1948599E+03  0.7818608E-02  0.1154297E+00
         21   -1    0    0  503  502  0.00000000000E+00  0.00000000000E+00  0.30724332498E+03  0.30724332498E+03  0.00000000000E+00 0.  1.
         21   -1    0    0  501  503 -0.00000000000E+00 -0.00000000000E+00 -0.33170583867E+03  0.33170583867E+03  0.00000000000E+00 0.  1.
          6    2    1    2  501    0  0.65747157824E+02 -0.62659352622E+02 -0.26555553837E+03  0.32937840442E+03  0.17239926364E+03 0.  0.
         24    2    3    3    0    0 -0.41849005832E+01 -0.80605824496E+02 -0.20947474399E+03  0.23783762583E+03  0.78563703807E+02 0.  0.
         -6    2    1    2    0  502 -0.65747157824E+02  0.62659352622E+02  0.24109302468E+03  0.30957075923E+03  0.17163719058E+03 0.  0.
        -24    2    5    5    0    0 -0.56585230132E+02 -0.59044471821E+01  0.59084070114E+02  0.11480350042E+03  0.80325373337E+02 0.  0.
          5    1    3    3  501    0  0.69932058407E+02  0.17946471875E+02 -0.56080794378E+02  0.91540778585E+02  0.47000000000E+01 0. -1.
        -11    1    4    4    0    0  0.19713586725E+02  0.55132494363E+01 -0.21434768347E+02  0.29639006647E+02  0.00000000000E+00 0.  1.
         12    1    4    4    0    0 -0.23898487308E+02 -0.86119073933E+02 -0.18803997564E+03  0.20819861919E+03  0.00000000000E+00 0. -1.
         -5    1    5    5    0  502 -0.91619276924E+01  0.68563799804E+02  0.18200895457E+03  0.19476725881E+03  0.47000000000E+01 0.  1.
         13    1    6    6    0    0 -0.60746069595E+02  0.26106426717E+02  0.38281166139E+02  0.76400773347E+02  0.00000000000E+00 0. -1.
        -14    1    6    6    0    0  0.41608394626E+01 -0.32010873899E+02  0.20802903975E+02  0.38402727072E+02  0.00000000000E+00 0.  1.
</event>
<event>
12    1  0.8684423E-002  0.1801384E+03  0.7818608E-02  0.1167825E+00
         21   -1    0    0  501  502  0.00000000000E+00  0.00000000000E+00  0.26065656031E+03  0.26065656031E+03  0.00000000000E+00 0. -1.
         21   -1    0    0  502  503 -0.00000000000E+00 -0.00000000000E+00 -0.26515953573E+03  0.26515953573E+03  0.00000000000E+00 0. -1.
         -6    2    1    2    0  503  0.15263718272E+02 -0.52407224918E+02 -0.19404142459E+03  0.26433061347E+03  0.17099444564E+03 0.  0.
        -24    2    3    3    0    0 -0.43533917777E+02 -0.26915215124E+02 -0.55452624079E+02  0.11156952485E+03  0.82177457708E+02 0.  0.
          6    2    1    2  501    0 -0.15263718272E+02  0.52407224918E+02  0.18953844917E+03  0.26148548258E+03  0.17166926214E+03 0.  0.
         24    2    5    5    0    0  0.15100848672E+02 -0.11408789136E+02  0.16799091769E+03  0.18745253931E+03  0.80989567036E+02 0.  0.
          5    1    5    5  501    0 -0.30364566944E+02  0.63816014054E+02  0.21547531484E+02  0.74032943265E+02  0.47000000000E+01 0. -1.
        -11    1    6    6    0    0  0.42966064398E+02  0.93118542133E+01  0.62654381221E+02  0.76539955611E+02  0.00000000000E+00 0.  1.
         12    1    6    6    0    0 -0.27865215727E+02 -0.20720643349E+02  0.10533653647E+03  0.11091258370E+03  0.00000000000E+00 0. -1.
         -5    1    3    3    0  503  0.58797636050E+02 -0.25492009794E+02 -0.13858880051E+03  0.15276108862E+03  0.47000000000E+01 0.  1.
         11    1    4    4    0    0 -0.26558950747E+02 -0.28296607369E+02 -0.75726423000E+02  0.85091521280E+02  0.00000000000E+00 0. -1.
        -12    1    4    4    0    0 -0.16974967031E+02  0.13813922454E+01  0.20273798921E+02  0.26478003568E+02  0.00000000000E+00 0.  1.
</event>
<event>
12    1  0.8684423E-002  0.2575579E+03  0.7818608E-02  0.1109042E+00
         21   -1    0    0  503  502  0.00000000000E+00  0.00000000000E+00  0.40573336399E+02  0.40573336399E+02  0.00000000000E+00 0.  1.
         21   -1    0    0  501  503 -0.00000000000E+00 -0.00000000000E+00 -0.22701284054E+04  0.22701284054E+04  0.00000000000E+00 0.  1.
          6    2    1    2  501    0  0.54513957851E+02 -0.18084913548E+03 -0.17299708845E+04  0.17486337565E+04  0.17100459637E+03 0.  0.
         24    2    3    3    0    0  0.63155064462E+02 -0.84039968299E+02 -0.13469855407E+04  0.13534799294E+04  0.80539393710E+02 0.  0.
         -6    2    1    2    0  502 -0.54513957851E+02  0.18084913548E+03 -0.49958418452E+03  0.56206798525E+03  0.17509392113E+03 0.  0.
        -24    2    5    5    0    0 -0.82971005195E+01  0.25120309397E+02 -0.25369607320E+03  0.26732993467E+03  0.80023275300E+02 0.  0.
          5    1    3    3  501    0 -0.86411066115E+01 -0.96809167179E+02 -0.38298534373E+03  0.39515382712E+03  0.47000000000E+01 0. -1.
        -13    1    4    4    0    0  0.16212340961E+02 -0.83899707876E+02 -0.85419432044E+03  0.85845788368E+03  0.00000000000E+00 0.  1.
         14    1    4    4    0    0  0.46942723501E+02 -0.14026042270E+00 -0.49279122029E+03  0.49502204573E+03  0.00000000000E+00 0. -1.
         -5    1    5    5    0  502 -0.46216857331E+02  0.15572882608E+03 -0.24588811132E+03  0.29473805058E+03  0.47000000000E+01 0.  1.
         11    1    6    6    0    0 -0.13067578864E+02 -0.92966259805E+01 -0.21389825326E+03  0.21449860516E+03  0.00000000000E+00 0. -1.
        -12    1    6    6    0    0  0.47704783449E+01  0.34416935378E+02 -0.39797819945E+02  0.52831329501E+02  0.00000000000E+00 0.  1.
</event>
<event>
12    1  0.8684423E-002  0.2949045E+03  0.7818608E-02  0.1089408E+00
         21   -1    0    0  501  502  0.00000000000E+00  0.00000000000E+00  0.86457079793E+03  0.86457079793E+03  0.00000000000E+00 0. -1.
         21   -1    0    0  502  503 -0.00000000000E+00 -0.00000000000E+00 -0.38110668083E+03  0.38110668083E+03  0.00000000000E+00 0.  1.
         -6    2    1    2    0  503  0.12491475847E+03  0.18643700582E+03 -0.29520637821E+03  0.41727147483E+03  0.19132753056E+03 0.  0.
        -24    2    3    3    0    0  0.52280404180E+02  0.16117439245E+03 -0.11142534411E+03  0.21799401110E+03  0.79970970486E+02 0.  0.
          6    2    1    2  501    0 -0.12491475847E+03 -0.18643700582E+03  0.77867049531E+03  0.82840600393E+03  0.17194857679E+03 0.  0.
         24    2    5    5    0    0 -0.67580119758E+02 -0.26020087554E+02  0.38540020070E+03  0.39979841757E+03  0.77854623823E+02 0.  0.
          5    1    5    5  501    0 -0.57334638717E+02 -0.16041691827E+03  0.39327029461E+03  0.42860758636E+03  0.47000000000E+01 0. -1.
        -13    1    6    6    0    0 -0.40757383285E+01 -0.15283599546E+02  0.24295716142E+03  0.24347152265E+03  0.00000000000E+00 0.  1.
         14    1    6    6    0    0 -0.63504381429E+02 -0.10736488008E+02  0.14244303928E+03  0.15632689492E+03  0.00000000000E+00 0. -1.
         -5    1    3    3    0  503  0.72634354295E+02  0.25262613368E+02 -0.18378103410E+03  0.19927746373E+03  0.47000000000E+01 0.  1.
         13    1    4    4    0    0 -0.17867643742E+02  0.66900928005E+02 -0.49907773603E+02  0.85356738028E+02  0.00000000000E+00 0. -1.
        -14    1    4    4    0    0  0.70148047921E+02  0.94273464450E+02 -0.61517570509E+02  0.13263727307E+03  0.00000000000E+00 0.  1.
</event>
<event>
12    1  0.8684423E-002  0.2211386E+03  0.7818608E-02  0.1133262E+00
         21   -1    0    0  503  502  0.00000000000E+00  0.00000000000E+00  0.73292506551E+02  0.73292506551E+02  0.00000000000E+00 0. -1.
         21   -1    0    0  501  503 -0.00000000000E+00 -0.00000000000E+00 -0.82750062269E+03  0.82750062269E+03  0.00000000000E+00 0. -1.
          6    2    1    2  501    0  0.13800505894E+03 -0.56139073527E+01 -0.57840682895E+03  0.61923884799E+03  0.17270025720E+03 0.  0.
         24    2    3    3    0    0  0.44169332414E+02  0.49987958586E+02 -0.35196811853E+03  0.36785609073E+03  0.83587206557E+02 0.  0.
         -6    2    1    2    0  502 -0.13800505894E+03  0.56139073527E+01 -0.17580128719E+03  0.28155428125E+03  0.17114265531E+03 0.  0.
        -24    2    5    5    0    0 -0.14758866143E+03  0.48474567261E+02 -0.12515137747E+03  0.21435022662E+03  0.78428028899E+02 0.  0.
          5    1    3    3  501    0  0.93835726523E+02 -0.55601865939E+02 -0.22643871042E+03  0.25138275725E+03  0.47000000000E+01 0. -1.
        -13    1    4    4    0    0 -0.10928080093E+02  0.17275800303E+02 -0.22211821391E+03  0.22305689221E+03  0.00000000000E+00 0.  1.
         14    1    4    4    0    0  0.55097412507E+02  0.32712158284E+02 -0.12984990462E+03  0.14479919853E+03  0.00000000000E+00 0. -1.
         -5    1    5    5    0  502  0.95836024875E+01 -0.42860659909E+02 -0.50649909719E+02  0.67204054632E+02  0.47000000000E+01 0.  1.
         11    1    6    6    0    0 -0.66969801957E+02  0.14389839831E+02 -0.92629640055E+01  0.69121808185E+02  0.00000000000E+00 0. -1.
        -12    1    6    6    0    0 -0.80618859468E+02  0.34084727430E+02 -0.11588841347E+03  0.14522841844E+03  0.00000000000E+00 0.  1.
</event>
<event>
12    1  0.8684423E-002  0.1850109E+03  0.7818608E-02  0.1163307E+00
         21   -1    0    0  503  502  0.00000000000E+00  0.00000000000E+00  0.69093512302E+02  0.69093512302E+02  0.00000000000E+00 0. -1.
         21   -1    0    0  501  503 -0.00000000000E+00 -0.00000000000E+00 -0.50829395775E+03  0.50829395775E+03  0.00000000000E+00 0. -1.
          6    2    1    2  501    0  0.43019982391E+02  0.49312020026E+02 -0.27139375753E+03  0.32845638887E+03  0.17305095654E+03 0.  0.
         24    2    3    3    0    0 -0.14020572570E+02  0.84952087971E+02 -0.16177430965E+03  0.19976158436E+03  0.79500500750E+02 0.  0.
         -6    2    1    2    0  502 -0.43019982391E+02 -0.49312020026E+02 -0.16780668792E+03  0.24893108118E+03  0.17182899774E+03 0.  0.
        -24    2    5    5    0    0 -0.43367501505E+02 -0.87846925794E+02 -0.72785477645E+02  0.14628518436E+03  0.80646183103E+02 0.  0.
          5    1    3    3  501    0  0.57040554961E+02 -0.35640067945E+02 -0.10961944788E+03  0.12869480451E+03  0.47000000000E+01 0. -1.
        -11    1    4    4    0    0 -0.29216801037E+02  0.37580175150E+02 -0.24059500134E+02  0.53336203219E+02  0.00000000000E+00 0.  1.
         12    1    4    4    0    0  0.15196228467E+02  0.47371912821E+02 -0.13771480951E+03  0.14642538114E+03  0.00000000000E+00 0. -1.
         -5    1    5    5    0  502  0.34751911382E+00  0.38534905769E+02 -0.95021210272E+02  0.10264589682E+03  0.47000000000E+01 0.  1.
         11    1    6    6    0    0 -0.76529106903E+01 -0.79333624136E+02 -0.20324223804E+02  0.82252446977E+02  0.00000000000E+00 0. -1.
        -12    1    6    6    0    0 -0.35714590814E+02 -0.85133016584E+01 -0.52461253841E+02  0.64032737383E+02  0.00000000000E+00 0.  1.
</event>
<event>
12    1  0.8684423E-002  0.1825249E+03  0.7818608E-02  0.1169635E+00
         21   -1    0    0  503  502  0.00000000000E+00  0.00000000000E+00  0.11726005987E+03  0.11726005987E+03  0.00000000000E+00 0. -1.
         21   -1    0    0  501  503 -0.00000000000E+00 -0.00000000000E+00 -0.26405802886E+03  0.26405802886E+03  0.00000000000E+00 0.  1.
          6    2    1    2  501    0 -0.38487184057E+02 -0.49269459079E+02 -0.10506557781E+03  0.21060416710E+03  0.17148351706E+03 0.  0.
         24    2    3    3    0    0 -0.71900817576E+02 -0.15458150016E+02 -0.11860286408E+03  0.16095516262E+03  0.80195031248E+02 0.  0.
         -6    2    1    2    0  502  0.38487184057E+02  0.49269459079E+02 -0.41732391185E+02  0.17071392164E+03  0.15327396267E+03 0.  0.
        -24    2    5    5    0    0  0.18275211274E+02  0.46432760327E+02  0.26781012983E+02  0.99070727584E+02  0.81288386803E+02 0.  0.
          5    1    3    3  501    0  0.33413633518E+02 -0.33811309063E+02  0.13537286273E+02  0.49649004472E+02  0.47000000000E+01 0. -1.
        -11    1    4    4    0    0 -0.48874261107E+02 -0.46376037067E+02 -0.92347382531E+02  0.11431303195E+03  0.00000000000E+00 0.  1.
         12    1    4    4    0    0 -0.23026556469E+02  0.30917887051E+02 -0.26255481551E+02  0.46642130676E+02  0.00000000000E+00 0. -1.
         -5    1    5    5    0  502  0.20211972784E+02  0.28366987526E+01 -0.68513404168E+02  0.71643194054E+02  0.47000000000E+01 0.  1.
         11    1    6    6    0    0 -0.25715732023E+02  0.39008047902E+02 -0.59924222193E+00  0.46725643557E+02  0.00000000000E+00 0. -1.
        -12    1    6    6    0    0  0.43990943296E+02  0.74247124242E+01  0.27380255205E+02  0.52345084027E+02  0.00000000000E+00 0.  1.
</event>
<event>
12    1  0.8684423E-002  0.2435433E+03  0.7818608E-02  0.1117531E+00
         21   -1    0    0  501  502  0.00000000000E+00  0.00000000000E+00  0.29439088680E+03  0.29439088680E+03  0.00000000000E+00 0.  1.
         21   -1    0    0  502  503 -0.00000000000E+00 -0.00000000000E+00 -0.24014892869E+03  0.24014892869E+03  0.00000000000E+00 0.  1.
         -6    2    1    2    0  503 -0.17291930485E+03  0.35677812736E+01 -0.80685415335E+02  0.25611798083E+03  0.17079949884E+03 0.  0.
        -24    2    3    3    0    0 -0.31658194892E+02 -0.12584740326E+02  0.75503256160E+01  0.88716543797E+02  0.81565928754E+02 0.  0.
          6    2    1    2  501    0  0.17291930485E+03 -0.35677812736E+01  0.13492737345E+03  0.27842183466E+03  0.17146284396E+03 0.  0.
         24    2    5    5    0    0  0.10179237652E+02 -0.48011949494E+01  0.52012849923E+02  0.95712341228E+02  0.79554053034E+02 0.  0.
          5    1    5    5  501    0  0.16274006720E+03  0.12334136758E+01  0.82914523522E+02  0.18270949344E+03  0.47000000000E+01 0. -1.
        -13    1    6    6    0    0  0.18406618855E+02 -0.20771243666E+02  0.66869597294E+02  0.72400215630E+02  0.00000000000E+00 0.  1.
         14    1    6    6    0    0 -0.82273812030E+01  0.15970048716E+02 -0.14856747371E+02  0.23312125598E+02  0.00000000000E+00 0. -1.
         -5    1    3    3    0  503 -0.14126110996E+03  0.16152521600E+02 -0.88235740951E+02  0.16740143704E+03  0.47000000000E+01 0.  1.
         13    1    4    4    0    0 -0.37764922276E+02  0.17555207527E+02  0.29412573927E+02  0.50985038696E+02  0.00000000000E+00 0. -1.
        -14    1    4    4    0    0  0.61067273846E+01 -0.30139947853E+02 -0.21862248311E+02  0.37731505101E+02  0.00000000000E+00 0.  1.
</event>
<event>
12    1  0.8684423E-002  0.1738930E+03  0.7818608E-02  0.1173892E+00
         21   -1    0    0  503  502  0.00000000000E+00  0.00000000000E+00  0.25302099005E+03  0.25302099005E+03  0.00000000000E+00 0. -1.
         21   -1    0    0  501  503 -0.00000000000E+00 -0.00000000000E+00 -0.12348064593E+03  0.12348064593E+03  0.00000000000E+00 0. -1.
          6    2    1    2  501    0 -0.26041950788E+02 -0.69887235413E+01  0.99001212918E+02  0.19994732150E+03  0.17161196275E+03 0.  0.
         24    2    3    3    0    0  0.19868579403E+02 -0.60438109908E+02  0.51546079702E+02  0.11486681049E+03  0.80559668832E+02 0.  0.
         -6    2    1    2    0  502  0.26041950788E+02  0.69887235413E+01  0.30539131205E+02  0.17655431448E+03  0.17178987738E+03 0.  0.
        -24    2    5    5    0    0 -0.53855551643E+01 -0.78172631433E+01  0.81019259577E+02  0.11509507000E+03  0.81195079332E+02 0.  0.
          5    1    3    3  501    0 -0.45910530191E+02  0.53449386366E+02  0.47455133216E+02  0.85080511011E+02  0.47000000000E+01 0. -1.
        -13    1    4    4    0    0  0.75749973471E+00 -0.12768971132E+01  0.52664433453E+02  0.52685356818E+02  0.00000000000E+00 0.  1.
         14    1    4    4    0    0  0.19111079668E+02 -0.59161212795E+02 -0.11183537513E+01  0.62181453670E+02  0.00000000000E+00 0. -1.
         -5    1    5    5    0  502  0.31427505952E+02  0.14805986685E+02 -0.50480128372E+02  0.61459244484E+02  0.47000000000E+01 0.  1.
         11    1    6    6    0    0 -0.25380686606E+02 -0.37207240631E+02  0.35544637528E+02  0.57375772456E+02  0.00000000000E+00 0. -1.
        -12    1    6    6    0    0  0.19995131442E+02  0.29389977488E+02  0.45474622049E+02  0.57719297541E+02  0.00000000000E+00 0.  1.
</event>
<event>
12    1  0.8684423E-002  0.1751901E+03  0.7818608E-02  0.1172630E+00
         21   -1    0    0  501  502  0.00000000000E+00  0.00000000000E+00  0.24990064732E+03  0.24990064732E+03  0.00000000000E+00 0. -1.
         21   -1    0    0  502  503 -0.00000000000E+00 -0.00000000000E+00 -0.13933811469E+03  0.13933811469E+03  0.00000000000E+00 0.  1.
         -6    2    1    2    0  503  0.27131237302E+02 -0.20747368112E+02 -0.12189972604E+02  0.17561367432E+03  0.17182843145E+03 0.  0.
        -24    2    3    3    0    0  0.47626676254E+02  0.16864408434E+02 -0.61175808375E+02  0.11037249975E+03  0.76726140318E+02 0.  0.
          6    2    1    2  501    0 -0.27131237302E+02  0.20747368112E+02  0.12275250524E+03  0.21362508770E+03  0.17146703249E+03 0.  0.
         24    2    5    5    0    0 -0.27885418407E+02  0.36959977987E+02  0.15309520093E+03  0.17889488917E+03  0.80134913066E+02 0.  0.
          5    1    5    5  501    0  0.75418110508E+00 -0.16212609876E+02 -0.30342695690E+02  0.34730198529E+02  0.47000000000E+01 0. -1.
        -11    1    6    6    0    0  0.11980365207E+02 -0.89501267894E+01  0.90137214619E+02  0.91369313116E+02  0.00000000000E+00 0.  1.
         12    1    6    6    0    0 -0.39865783614E+02  0.45910104777E+02  0.62957986307E+02  0.87525576054E+02  0.00000000000E+00 0. -1.
         -5    1    3    3    0  503 -0.20495438951E+02 -0.37611776546E+02  0.48985835771E+02  0.65241174567E+02  0.47000000000E+01 0.  1.
         13    1    4    4    0    0  0.47319442074E+02  0.23596363415E+02 -0.42475571261E+01  0.53046769045E+02  0.00000000000E+00 0. -1.
        -14    1    4    4    0    0  0.30723417990E+00 -0.67319549808E+01 -0.56928251249E+02  0.57325730706E+02  0.00000000000E+00 0.  1.
</event>
<event>
12    1  0.8684423E-002  0.2015377E+03  0.7818608E-02  0.1148564E+00
         21   -1    0    0  503  502  0.00000000000E+00  0.00000000000E+00  0.71787790469E+02  0.71787790469E+02  0.00000000000E+00 0. -1.
         21   -1    0    0  501  503 -0.00000000000E+00 -0.00000000000E+00 -0.88128808335E+03  0.88128808335E+03  0.00000000000E+00 0.  1.
          6    2    1    2  501    0 -0.26394619351E+02 -0.10243824199E+03 -0.69092796931E+03  0.71972141183E+03  0.17154352950E+03 0.  0.
         24    2    3    3    0    0 -0.23556322570E+02 -0.11440181075E+03 -0.69215148186E+03  0.70650135551E+03  0.80173666913E+02 0.  0.
         -6    2    1    2    0  502  0.26394619351E+02  0.10243824199E+03 -0.11857232357E+03  0.23335446199E+03  0.17089365015E+03 0.  0.
        -24    2    5    5    0    0  0.72794019205E+02  0.10458328500E+03 -0.11013497399E+03  0.18591202967E+03  0.78720629745E+02 0.  0.
          5    1    3    3  501    0 -0.28382967809E+01  0.11963568756E+02  0.12235125488E+01  0.13220056314E+02  0.47000000000E+01 0. -1.
        -13    1    4    4    0    0 -0.25166142381E+02 -0.16067815185E+02 -0.32624934876E+03  0.32761280038E+03  0.00000000000E+00 0.  1.
         14    1    4    4    0    0  0.16098198104E+01 -0.98333995565E+02 -0.36590213309E+03  0.37888855513E+03  0.00000000000E+00 0. -1.
         -5    1    5    5    0  502 -0.46399399854E+02 -0.21450430054E+01 -0.84373495756E+01  0.47442432317E+02  0.47000000000E+01 0.  1.
         13    1    6    6    0    0  0.39211554863E+02  0.10901478156E+03 -0.83138424089E+02  0.14259651536E+03  0.00000000000E+00 0. -1.
        -14    1    6    6    0    0  0.33582464342E+02 -0.44314965641E+01 -0.26996549904E+02  0.43315514308E+02  0.00000000000E+00 0.  1.
</event>
<event>
12    1  0.8684423E-002  0.2097880E+03  0.7818608E-02  0.1145237E+00
         21   -1    0    0  501  502  0.00000000000E+00  0.00000000000E+00  0.27765548977E+03  0.27765548977E+03  0.00000000000E+00 0. -1.
         21   -1    0    0  502  503 -0.00000000000E+00 -0.00000000000E+00 -0.14649299368E+03  0.14649299368E+03  0.00000000000E+00 0. -1.
         -6    2    1    2    0  503  0.76709310194E+02  0.46374080670E+02  0.50540649519E+02  0.19940224869E+03  0.17079820227E+03 0.  0.
        -24    2    3    3    0    0  0.54525893093E+02  0.81230793724E+02  0.79179038491E+02  0.14891124194E+03  0.79584690577E+02 0.  0.
          6    2    1    2  501    0 -0.76709310194E+02 -0.46374080670E+02  0.80621846573E+02  0.22474623477E+03  0.18967370474E+03 0.  0.
         24    2    5    5    0    0 -0.82156003177E+02 -0.87123260051E+02  0.10331377005E+03  0.17755327475E+03  0.80692992206E+02 0.  0.
          5    1    5    5  501    0  0.54466929833E+01  0.40749179382E+02 -0.22691923476E+02  0.47192960024E+02  0.47000000000E+01 0. -1.
        -11    1    6    6    0    0 -0.24051985429E+02 -0.80043404747E+02  0.75975194308E+02  0.11294987736E+03  0.00000000000E+00 0.  1.
         12    1    6    6    0    0 -0.58104017748E+02 -0.70798553046E+01  0.27338575741E+02  0.64603397381E+02  0.00000000000E+00 0. -1.
         -5    1    3    3    0  503  0.22183417101E+02 -0.34856713054E+02 -0.28638388972E+02  0.50491006745E+02  0.47000000000E+01 0.  1.
         11    1    4    4    0    0  0.18740219031E+02  0.74587376611E+02  0.20047298982E+02  0.79475573326E+02  0.00000000000E+00 0. -1.
        -12    1    4    4    0    0  0.35785674062E+02  0.66434171127E+01  0.59131739509E+02  0.69435668617E+02  0.00000000000E+00 0.  1.
</event>
<event>
12    1  0.8684423E-002  0.1866993E+03  0.7818608E-02  0.1162743E+00
         21   -1    0    0  503  502  0.00000000000E+00  0.00000000000E+00  0.19262483745E+03  0.19262483745E+03  0.00000000000E+00 0.  1.
         21   -1    0    0  501  503 -0.00000000000E+00 -0.00000000000E+00 -0.19587571377E+03  0.19587571377E+03  0.00000000000E+00 0.  1.
          6    2    1    2  501    0  0.37080402528E+02 -0.59387975945E+02 -0.63920224802E+02  0.19733832617E+03  0.17307435367E+03 0.  0.
         24    2    3    3    0    0  0.52360461384E+02 -0.10279254963E+03 -0.59290971243E+02  0.15085222928E+03  0.77026291812E+02 0.  0.
         -6    2    1    2    0  502 -0.37080402528E+02  0.59387975945E+02  0.60669348478E+02  0.19116222505E+03  0.16721345192E+03 0.  0.
        -24    2    5    5    0    0  0.41301570891E+01 -0.26674448089E+02  0.46645589454E+02  0.94602363452E+02  0.77750959973E+02 0.  0.
          5    1    3    3  501    0 -0.15280058856E+02  0.43404573689E+02 -0.46292535586E+01  0.46486096892E+02  0.47000000000E+01 0. -1.
        -13    1    4    4    0    0  0.46108910139E+02 -0.67803337146E+02 -0.75797703083E+02  0.11166295677E+03  0.00000000000E+00 0.  1.
         14    1    4    4    0    0  0.62515512445E+01 -0.34989212488E+02  0.16506731840E+02  0.39189272505E+02  0.00000000000E+00 0. -1.
         -5    1    5    5    0  502 -0.41210559617E+02  0.86062424034E+02  0.14023759025E+02  0.96559861597E+02  0.47000000000E+01 0.  1.
         13    1    6    6    0    0  0.12685138657E+02 -0.27323658771E+02 -0.14094851775E+02  0.33258982515E+02  0.00000000000E+00 0. -1.
        -14    1    6    6    0    0 -0.85549815678E+01  0.64921068204E+00  0.60740441228E+02  0.61343380937E+02  0.00000000000E+00 0.  1.
</event>
<event>
12    1  0.8684423E-002  0.2687908E+03  0.7818608E-02  0.1102141E+00
         21   -1    0    0  501  502  0.00000000000E+00  0.00000000000E+00  0.71409478433E+02  0.71409478433E+02  0.00000000000E+00 0. -1.
         21   -1    0    0  502  503 -0.00000000000E+00 -0.00000000000E+00 -0.14494539220E+04  0.14494539220E+04  0.00000000000E+00 0. -1.
         -6    2    1    2    0  503 -0.82382900445E+01 -0.20500797744E+03 -0.11079401796E+04  0.11398059157E+04  0.17184278768E+03 0.  0.
        -24    2    3    3    0    0 -0.63774909941E+02 -0.10592567628E+03 -0.50146711165E+03  0.52277002477E+03  0.80819222361E+02 0.  0.
          6    2    1    2  501    0  0.82382900445E+01  0.20500797744E+03 -0.27010426392E+03  0.38105748467E+03  0.17364432903E+03 0.  0.
         24    2    5    5    0    0 -0.35690058739E+02  0.16920281858E+03 -0.26085136940E+03  0.32344311767E+03  0.81661737342E+02 0.  0.
          5    1    5    5  501    0  0.43928348784E+02  0.35805158861E+02 -0.92528945187E+01  0.57614367001E+02  0.47000000000E+01 0. -1.
        -13    1    6    6    0    0 -0.12203944603E+02 -0.47003656609E+01 -0.69745177727E+01  0.14821389927E+02  0.00000000000E+00 0.  1.
         14    1    6    6    0    0 -0.23486114136E+02  0.17390318424E+03 -0.25387685162E+03  0.30862172774E+03  0.00000000000E+00 0. -1.
         -5    1    3    3    0  503  0.55536619897E+02 -0.99082301159E+02 -0.60647306797E+03  0.61703589095E+03  0.47000000000E+01 0.  1.
         13    1    4    4    0    0 -0.58355655258E+02 -0.51397534896E+02 -0.39963672838E+03  0.40713216990E+03  0.00000000000E+00 0. -1.
        -14    1    4    4    0    0 -0.54192546830E+01 -0.54528141382E+02 -0.10183038327E+03  0.11563785488E+03  0.00000000000E+00 0.  1.
</event>
<event>
12    1  0.8684423E-002  0.3793145E+03  0.7818608E-02  0.1051292E+00
         21   -1    0    0  501  502  0.00000000000E+00  0.00000000000E+00  0.34906033870E+03  0.34906033870E+03  0.00000000000E+00 0.  1.
         21   -1    0    0  502  503 -0.00000000000E+00 -0.00000000000E+00 -0.50648049499E+03  0.50648049499E+03  0.00000000000E+00 0. -1.
         -6    2    1    2    0  503 -0.33084480728E+03 -0.64278967744E+02 -0.26437763813E+03  0.46143497842E+03  0.17157106856E+03 0.  0.
        -24    2    3    3    0    0 -0.12213986576E+03 -0.12500431378E+02 -0.40491231449E+02  0.15097405891E+03  0.77969346849E+02 0.  0.
          6    2    1    2  501    0  0.33084480728E+03  0.64278967744E+02  0.10695748184E+03  0.39410585527E+03  0.17403864525E+03 0.  0.
         24    2    5    5    0    0  0.59510320150E+02 -0.31038226443E+01  0.24459297788E+02  0.10257389353E+03  0.79825024059E+02 0.  0.
          5    1    5    5  501    0  0.27133448713E+03  0.67382790388E+02  0.82498184052E+02  0.29153196175E+03  0.47000000000E+01 0. -1.
        -13    1    6    6    0    0  0.26112660772E+02 -0.40029521176E+02  0.16839813669E+01  0.47823314518E+02  0.00000000000E+00 0.  1.
         14    1    6    6    0    0  0.33397659378E+02  0.36925698532E+02  0.22775316421E+02  0.54750579011E+02  0.00000000000E+00 0. -1.
         -5    1    3    3    0  503 -0.20870494152E+03 -0.51778536366E+02 -0.22388640668E+03  0.31046091951E+03  0.47000000000E+01 0.  1.
         13    1    4    4    0    0 -0.24198793601E+02  0.20670082556E+02 -0.35169826928E+02  0.47431536458E+02  0.00000000000E+00 0. -1.
        -14    1    4    4    0    0 -0.97941072157E+02 -0.33170513935E+02 -0.53214045208E+01  0.10354252245E+03  0.00000000000E+00 0.  1.
</event>
<event>
12    1  0.8684423E-002  0.2498635E+03  0.7818608E-02  0.1114973E+00
         21   -1    0    0  503  502  0.00000000000E+00  0.00000000000E+00  0.46332945762E+03  0.46332945762E+03  0.00000000000E+00 0.  1.
         21   -1    0    0  501  503 -0.00000000000E+00 -0.00000000000E+00 -0.37163876302E+03  0.37163876302E+03  0.00000000000E+00 0.  1.
          6    2    1    2  501    0  0.43704963450E+02  0.17370214119E+03 -0.29142594238E+03  0.37757326118E+03  0.15984345462E+03 0.  0.
         24    2    3    3    0    0  0.68989257810E+02  0.10942093754E+03 -0.26076151066E+03  0.30185162585E+03  0.79908568518E+02 0.  0.
         -6    2    1    2    0  502 -0.43704963450E+02 -0.17370214119E+03  0.38311663698E+03  0.45739495945E+03  0.17421031460E+03 0.  0.
        -24    2    5    5    0    0  0.41564691036E+02 -0.59862836157E+02  0.15996703863E+03  0.19272887815E+03  0.79017620383E+02 0.  0.
          5    1    3    3  501    0 -0.25284294361E+02  0.64281203653E+02 -0.30664431716E+02  0.75721635328E+02  0.47000000000E+01 0. -1.
        -11    1    4    4    0    0  0.26320190774E+02  0.10091987498E+03 -0.21350306815E+03  0.23761551658E+03  0.00000000000E+00 0.  1.
         12    1    4    4    0    0  0.42669067036E+02  0.85010625580E+01 -0.47258442512E+02  0.64236109277E+02  0.00000000000E+00 0. -1.
         -5    1    5    5    0  502 -0.85269654486E+02 -0.11383930503E+03  0.22314959835E+03  0.26466608130E+03  0.47000000000E+01 0.  1.
         11    1    6    6    0    0  0.38486097406E+02 -0.20021395447E+02  0.21128304309E+02  0.48253924319E+02  0.00000000000E+00 0. -1.
        -12    1    6    6    0    0  0.30785936295E+01 -0.39841440710E+02  0.13883873432E+03  0.14447495383E+03  0.00000000000E+00 0.  1.
</event>
<event>
12    1  0.8684423E-002  0.2194913E+03  0.7818608E-02  0.1134575E+00
         21   -1    0    0  503  502  0.00000000000E+00  0.00000000000E+00  0.73243567908E+03  0.73243567908E+03  0.00000000000E+00 0. -1.
         21   -1    0    0  501  503 -0.00000000000E+00 -0.00000000000E+00 -0.95226990099E+02  0.95226990099E+02  0.00000000000E+00 0.  1.
          6    2    1    2  501    0  0.17087243860E+02  0.13542057186E+03  0.87358895839E+02  0.23623718302E+03  0.17188869880E+03 0.  0.
         24    2    3    3    0    0  0.57849312628E+02  0.11131605216E+03 -0.50343117528E+00  0.13631495012E+03  0.53326407561E+02 0.  0.
         -6    2    1    2    0  502 -0.17087243860E+02 -0.13542057186E+03  0.54984979314E+03  0.59142548615E+03  0.16976043552E+03 0.  0.
        -24    2    5    5    0    0  0.53279390686E+02 -0.79316807165E+02  0.38645654402E+03  0.40482822056E+03  0.73534878606E+02 0.  0.
          5    1    3    3  501    0 -0.40762068768E+02  0.24104519704E+02  0.87862327014E+02  0.99922232905E+02  0.47000000000E+01 0. -1.
        -11    1    4    4    0    0 -0.68877672625E+01  0.30298099112E+02 -0.87572731654E+01  0.32281666329E+02  0.00000000000E+00 0.  1.
         12    1    4    4    0    0  0.64737079891E+02  0.81017953046E+02  0.82538419902E+01  0.10403328379E+03  0.00000000000E+00 0. -1.
         -5    1    5    5    0  502 -0.70366634546E+02 -0.56103764697E+02  0.16339324912E+03  0.18659726559E+03  0.47000000000E+01 0.  1.
         13    1    6    6    0    0  0.13279471772E+02 -0.35725669343E+02  0.28376765188E+03  0.28631581876E+03  0.00000000000E+00 0. -1.
        -14    1    6    6    0    0  0.39999918914E+02 -0.43591137822E+02  0.10268889214E+03  0.11851240179E+03  0.00000000000E+00 0.  1.
</event>
<event>
12    1  0.8684423E-002  0.2029255E+03  0.7818608E-02  0.1147500E+00
         21   -1    0    0  501  502  0.00000000000E+00  0.00000000000E+00  0.15777367176E+03  0.15777367176E+03  0.00000000000E+00 0. -1.
         21   -1    0    0  502  503 -0.00000000000E+00 -0.00000000000E+00 -0.57963078651E+03  0.57963078651E+03  0.00000000000E+00 0. -1.
         -6    2    1    2    0  503 -0.29370231091E+02 -0.10339305868E+03 -0.48507167859E+03  0.52580726896E+03  0.17212209523E+03 0.  0.
        -24    2    3    3    0    0  0.86709856739E+01 -0.19355817916E+02 -0.36531654187E+03  0.37456979088E+03  0.79978239496E+02 0.  0.
          6    2    1    2  501    0  0.29370231091E+02  0.10339305868E+03  0.63214563841E+02  0.21159718931E+03  0.17095190664E+03 0.  0.
         24    2    5    5    0    0  0.51577950828E+02  0.11121896409E+03  0.93982199082E+02  0.17256944290E+03  0.76926041712E+02 0.  0.
          5    1    5    5  501    0 -0.22207719737E+02 -0.78259054136E+01 -0.30767635241E+02  0.39027746409E+02  0.47000000000E+01 0. -1.
        -11    1    6    6    0    0  0.61870487306E+02  0.50921524423E+02  0.34482883883E+02  0.87235475180E+02  0.00000000000E+00 0.  1.
         12    1    6    6    0    0 -0.10292536478E+02  0.60297439667E+02  0.59499315199E+02  0.85333967719E+02  0.00000000000E+00 0. -1.
         -5    1    3    3    0  503 -0.38041216765E+02 -0.84037240761E+02 -0.11975513672E+03  0.15123747809E+03  0.47000000000E+01 0.  1.
         13    1    4    4    0    0  0.43777043315E+02 -0.17536342990E+02 -0.22790572660E+03  0.23273369559E+03  0.00000000000E+00 0. -1.
        -14    1    4    4    0    0 -0.35106057641E+02 -0.18194749253E+01 -0.13741081527E+03  0.14183609528E+03  0.00000000000E+00 0.  1.
</event>
<event>
12    1  0.8684423E-002  0.2113491E+03  0.7818608E-02  0.1141344E+00
         21   -1    0    0  503  502  0.00000000000E+00  0.00000000000E+00  0.10868647007E+04  0.10868647007E+04  0.00000000000E+00 0.  1.
         21   -1    0    0  501  503 -0.00000000000E+00 -0.00000000000E+00 -0.43307280760E+02  0.43307280760E+02  0.00000000000E+00 0.  1.
          6    2    1    2  501    0  0.14295044101E+02  0.11492224808E+03  0.37725457675E+03  0.43242275655E+03  0.17679636113E+03 0.  0.
         24    2    3    3    0    0 -0.49317842733E+02  0.37464873077E+02  0.17152725652E+03  0.20352962733E+03  0.90370587826E+02 0.  0.
         -6    2    1    2    0  502 -0.14295044101E+02 -0.11492224808E+03  0.66630284322E+03  0.69774922495E+03  0.17170623355E+03 0.  0.
        -24    2    5    5    0    0 -0.90031066281E+01 -0.77565375325E+02  0.64369593241E+03  0.65351458964E+03  0.81482648992E+02 0.  0.
          5    1    3    3  501    0  0.63612886835E+02  0.77457375006E+02  0.20572732023E+03  0.22889312922E+03  0.47000000000E+01 0. -1.
        -13    1    4    4    0    0 -0.15309651614E+01  0.25625226458E+02  0.62599066536E+00  0.25678550381E+02  0.00000000000E+00 0.  1.
         14    1    4    4    0    0 -0.47786877572E+02  0.11839646619E+02  0.17090126586E+03  0.17785107695E+03  0.00000000000E+00 0. -1.
         -5    1    5    5    0  502 -0.52919374733E+01 -0.37356872759E+02  0.22606910807E+02  0.44234635307E+02  0.47000000000E+01 0.  1.
         11    1    6    6    0    0  0.41439334963E+01 -0.66034740849E+02  0.22685210383E+03  0.23630411802E+03  0.00000000000E+00 0. -1.
        -12    1    6    6    0    0 -0.13147040124E+02 -0.11530634476E+02  0.41684382859E+03  0.41721047161E+03  0.00000000000E+00 0.  1.
</event>
<event>
12    1  0.8684423E-002  0.1876620E+03  0.7818608E-02  0.1160716E+00
         21   -1    0    0  501  502  0.00000000000E+00  0.00000000000E+00  0.53684561355E+02  0.53684561355E+02  0.00000000000E+00 0.  1.
         21   -1    0    0  502  503 -0.00000000000E+00 -0.00000000000E+00 -0.65482661033E+03  0.65482661033E+03  0.00000000000E+00 0.  1.
         -6    2    1    2    0  503 -0.14650190222E+02  0.75141778068E+02 -0.28783907775E+03  0.34330469520E+03  0.17072159845E+03 0.  0.
        -24    2    3    3    0    0 -0.39626084040E+02  0.57832625978E+02 -0.90906873690E+02  0.14398639444E+03  0.86909049800E+02 0.  0.
          6    2    1    2  501    0  0.14650190222E+02 -0.75141778068E+02 -0.31330297122E+03  0.36520647649E+03  0.17133623028E+03 0.  0.
         24    2    5    5    0    0 -0.47387632099E+02 -0.47923248631E+01 -0.12575660794E+03  0.15546028381E+03  0.78003982889E+02 0.  0.
          5    1    5    5  501    0  0.62037822321E+02 -0.70349453205E+02 -0.18754636328E+03  0.20974619268E+03  0.47000000000E+01 0. -1.
        -11    1    6    6    0    0 -0.12626038776E+02  0.43121155640E+01 -0.11793178788E+03  0.11868410925E+03  0.00000000000E+00 0.  1.
         12    1    6    6    0    0 -0.34761593323E+02 -0.91044404271E+01 -0.78248200589E+01  0.36776174553E+02  0.00000000000E+00 0. -1.
         -5    1    3    3    0  503  0.24975893818E+02  0.17309152090E+02 -0.19693220406E+03  0.19931830075E+03  0.47000000000E+01 0.  1.
         13    1    4    4    0    0 -0.67304594301E+02  0.46115446377E+02 -0.65340063711E+02  0.10452687087E+03  0.00000000000E+00 0. -1.
        -14    1    4    4    0    0  0.27678510260E+02  0.11717179601E+02 -0.25566809979E+02  0.39459523572E+02  0.00000000000E+00 0.  1.
</event>
<event>
12    1  0.8684423E-002  0.1805495E+03  0.7818608E-02  0.1167594E+00
         21   -1    0    0  501  502  0.00000000000E+00  0.00000000000E+00  0.89361395379E+03  0.89361395379E+03  0.00000000000E+00 0.  1.
         21   -1    0    0  502  503 -0.00000000000E+00 -0.00000000000E+00 -0.36440715025E+02  0.36440715025E+02  0.00000000000E+00 0.  1.
         -6    2    1    2    0  503 -0.33138715444E+02 -0.47358292152E+02  0.46394422039E+03  0.49735709768E+03  0.16964333373E+03 0.  0.
        -24    2    3    3    0    0 -0.82345125296E+02 -0.13148815258E+02  0.35111408624E+03  0.36951231580E+03  0.79401756728E+02 0.  0.
          6    2    1    2  501    0  0.33138715444E+02  0.47358292152E+02  0.39322901837E+03  0.43269757114E+03  0.17104720074E+03 0.  0.
         24    2    5    5    0    0 -0.83555297727E+00  0.29147157660E+02  0.85902736567E+02  0.12292760839E+03  0.82955782229E+02 0.  0.
          5    1    5    5  501    0  0.33974268421E+02  0.18211134492E+02  0.30732628181E+03  0.30976996275E+03  0.47000000000E+01 0. -1.
        -13    1    6    6    0    0 -0.21222720689E+02 -0.13072954454E+02  0.68539130829E+02  0.72930915711E+02  0.00000000000E+00 0.  1.
         14    1    6    6    0    0  0.20387167712E+02  0.42220112114E+02  0.17363605737E+02  0.49996692675E+02  0.00000000000E+00 0. -1.
         -5    1    3    3    0  503  0.49206409852E+02 -0.34209476894E+02  0.11283013415E+03  0.12784478188E+03  0.47000000000E+01 0.  1.
         13    1    4    4    0    0 -0.17971123241E+02 -0.22138754707E+02  0.23262501904E+03  0.23436613496E+03  0.00000000000E+00 0. -1.
        -14    1    4    4    0    0 -0.64374002055E+02  0.89899394489E+01  0.11848906720E+03  0.13514618085E+03  0.00000000000E+00 0.  1.
</event>
<event>
12    1  0.8684423E-002  0.4282576E+03  0.7818608E-02  0.1034447E+00
         21   -1    0    0  503  502  0.00000000000E+00  0.00000000000E+00  0.12825150792E+04  0.12825150792E+04  0.00000000000E+00 0. -1.
         21   -1    0    0  501  503 -0.00000000000E+00 -0.00000000000E+00 -0.15318515320E+03  0.15318515320E+03  0.00000000000E+00 0.  1.
          6    2    1    2  501    0  0.35867817934E+03 -0.15852035196E+03  0.37799762939E+03  0.57088532571E+03  0.17102370880E+03 0.  0.
         24    2    3    3    0    0  0.28481294277E+03 -0.18382208351E+03  0.28535506111E+03  0.44963770203E+03  0.76404066813E+02 0.  0.
         -6    2    1    2    0  502 -0.35867817934E+03  0.15852035196E+03  0.75133229661E+03  0.86481490668E+03  0.17212165627E+03 0.  0.
        -24    2    5    5    0    0 -0.24034505129E+03  0.17659945995E+03  0.53973357867E+03  0.62165715793E+03  0.78690362363E+02 0.  0.
          5    1    3    3  501    0  0.73865236572E+02  0.25301731549E+02  0.92642568276E+02  0.12124762369E+03  0.47000000000E+01 0. -1.
        -13    1    4    4    0    0  0.23478651998E+03 -0.17140254897E+03  0.21115497696E+03  0.35929092398E+03  0.00000000000E+00 0.  1.
         14    1    4    4    0    0  0.50026422795E+02 -0.12419534536E+02  0.74200084153E+02  0.90346778050E+02  0.00000000000E+00 0. -1.
         -5    1    5    5    0  502 -0.11833312805E+03 -0.18079107993E+02  0.21159871794E+03  0.24315774875E+03  0.47000000000E+01 0.  1.
         13    1    6    6    0    0 -0.76315271438E+02  0.32597726745E+02  0.21426865380E+03  0.22977747593E+03  0.00000000000E+00 0. -1.
        -14    1    6    6    0    0 -0.16402977985E+03  0.14400173321E+03  0.32546492487E+03  0.39187968200E+03  0.00000000000E+00 0.  1.
</event>
<event>
12    1  0.8684423E-002  0.1826536E+03  0.7818608E-02  0.1167162E+00
         21   -1    0    0  503  502  0.00000000000E+00  0.00000000000E+00  0.99613170104E+02  0.99613170104E+02  0.00000000000E+00 0. -1.
         21   -1    0    0  501  503 -0.00000000000E+00 -0.00000000000E+00 -0.49551605217E+03  0.49551605217E+03  0.00000000000E+00 0. -1.
          6    2    1    2  501    0  0.98940737708E+01  0.25594537362E+02 -0.37746577134E+03  0.41933606862E+03  0.18058061045E+03 0.  0.
         24    2    3    3    0    0  0.29771132085E+02  0.13692634559E+02 -0.70420305594E+02  0.11138191493E+03  0.79831716672E+02 0.  0.
         -6    2    1    2    0  502 -0.98940737708E+01 -0.25594537362E+02 -0.18437110718E+02  0.17579315365E+03  0.17265669052E+03 0.  0.
        -24    2    5    5    0    0  0.16647710636E+02 -0.79530018403E+02 -0.10288831234E+02  0.11494919838E+03  0.80655365989E+02 0.  0.
          5    1    3    3  501    0 -0.19877058314E+02  0.11901902803E+02 -0.30704546575E+03  0.30795415369E+03  0.47000000000E+01 0. -1.
        -11    1    4    4    0    0  0.57274822670E+02  0.12506550880E+02 -0.44899300860E+02  0.73842848973E+02  0.00000000000E+00 0.  1.
         12    1    4    4    0    0 -0.27503690585E+02  0.11860836794E+01 -0.25521004734E+02  0.37539065957E+02  0.00000000000E+00 0. -1.
         -5    1    5    5    0  502 -0.26541784407E+02  0.53935481041E+02 -0.81482794841E+01  0.60843955272E+02  0.47000000000E+01 0.  1.
         13    1    6    6    0    0 -0.32820153740E+02 -0.33555379568E+02 -0.32416921306E+01  0.47049277969E+02  0.00000000000E+00 0. -1.
        -14    1    6    6    0    0  0.49467864376E+02 -0.45974638835E+02 -0.70471391038E+01  0.67899920408E+02  0.00000000000E+00 0.  1.
</event>
<event>
12    1  0.8684423E-002  0.1923199E+03  0.7818608E-02  0.1156549E+00
         21   -1    0    0  503  502  0.00000000000E+00  0.00000000000E+00  0.17411209095E+03  0.17411209095E+03  0.00000000000E+00 0.  1.
         21   -1    0    0  501  503 -0.00000000000E+00 -0.00000000000E+00 -0.22526136551E+03  0.22526136551E+03  0.00000000000E+00 0.  1.
          6    2    1    2  501    0  0.84665635967E+02  0.23580112346E+01  0.23613614032E+02  0.19303290673E+03  0.17184373768E+03 0.  0.
         24    2    3    3    0    0  0.22459183752E+02  0.39055246933E+02  0.61155574022E+02  0.11149875091E+03  0.81622545735E+02 0.  0.
         -6    2    1    2    0  502 -0.84665635967E+02 -0.23580112346E+01 -0.74762888601E+02  0.20634054973E+03  0.17266471215E+03 0.  0.
        -24    2    5    5    0    0 -0.14378264634E+02  0.11036022216E+02  0.27583137233E+02  0.81374499524E+02  0.74380450610E+02 0.  0.
          5    1    3    3  501    0  0.62206452216E+02 -0.36697235699E+02 -0.37541959990E+02  0.81534155819E+02  0.47000000000E+01 0. -1.
        -11    1    4    4    0    0  0.35447577295E+02  0.61513230404E+01 -0.51527880175E+01  0.36344473247E+02  0.00000000000E+00 0.  1.
         12    1    4    4    0    0 -0.12988393543E+02  0.32903923893E+02  0.66308362039E+02  0.75154277661E+02  0.00000000000E+00 0. -1.
         -5    1    5    5    0  502 -0.70287371334E+02 -0.13394033451E+02 -0.10234602583E+03  0.12496605021E+03  0.47000000000E+01 0.  1.
         11    1    6    6    0    0  0.13553158211E+02 -0.25675832253E+02  0.18302337956E+02  0.34320723099E+02  0.00000000000E+00 0. -1.
        -12    1    6    6    0    0 -0.27931422844E+02  0.36711854469E+02  0.92807992766E+01  0.47053776425E+02  0.00000000000E+00 0.  1.
</event>
<event>
12    1  0.8684423E-002  0.2423849E+03  0.7818608E-02  0.1118385E+00
         21   -1    0    0  503  502  0.00000000000E+00  0.00000000000E+00  0.30351922865E+03  0.30351922865E+03  0.00000000000E+00 0. -1.
         21   -1    0    0  501  503 -0.00000000000E+00 -0.00000000000E+00 -0.20034082898E+03  0.20034082898E+03  0.00000000000E+00 0.  1.
          6    2    1    2  501    0 -0.13459861487E+03  0.10565447716E+03  0.26228532727E+01  0.24239912577E+03  0.17167061818E+03 0.  0.
         24    2    3    3    0    0 -0.66787503010E+02  0.88898810790E+02 -0.58506966805E+02  0.14945804685E+03  0.80938702030E+02 0.  0.
         -6    2    1    2    0  502  0.13459861487E+03 -0.10565447716E+03  0.10055554640E+03  0.26146093186E+03  0.17020794725E+03 0.  0.
        -24    2    5    5    0    0  0.93479621382E+02 -0.12504832819E+03  0.11922232096E+03  0.21209058088E+03  0.79955792061E+02 0.  0.
          5    1    3    3  501    0 -0.67811111863E+02  0.16755666375E+02  0.61129820078E+02  0.92941078918E+02  0.47000000000E+01 0. -1.
        -13    1    4    4    0    0 -0.42391736291E+02  0.13050910660E+02 -0.53684253782E+02  0.69637523498E+02  0.00000000000E+00 0.  1.
         14    1    4    4    0    0 -0.24395766719E+02  0.75847900129E+02 -0.48227130237E+01  0.79820523356E+02  0.00000000000E+00 0. -1.
         -5    1    5    5    0  502  0.41118993491E+02  0.19393851027E+02 -0.18666774564E+02  0.49370350981E+02  0.47000000000E+01 0.  1.
         11    1    6    6    0    0 -0.16633837782E+00  0.53099942302E+01  0.25868966267E+02  0.26408845543E+02  0.00000000000E+00 0. -1.
        -12    1    6    6    0    0  0.93645959759E+02 -0.13035832242E+03  0.93353354694E+02  0.18568173533E+03  0.00000000000E+00 0.  1.
</event>
<event>
12    1  0.8684423E-002  0.1779758E+03  0.7818608E-02  0.1170063E+00
         21   -1    0    0  501  502  0.00000000000E+00  0.00000000000E+00  0.43413006107E+03  0.43413006107E+03  0.00000000000E+00 0.  1.
         21   -1    0    0  502  503 -0.00000000000E+00 -0.00000000000E+00 -0.23356553811E+03  0.23356553811E+03  0.00000000000E+00 0.  1.
         -6    2    1    2    0  503 -0.11264552757E+02 -0.40961221552E+02 -0.17686019319E+03  0.25090816978E+03  0.17283133370E+03 0.  0.
        -24    2    3    3    0    0 -0.10152450628E+02 -0.97002621137E+02 -0.12336417348E+03  0.17328221173E+03  0.72769669793E+02 0.  0.
          6    2    1    2  501    0  0.11264552757E+02  0.40961221552E+02  0.37742471615E+03  0.41678742940E+03  0.17163226133E+03 0.  0.
         24    2    5    5    0    0  0.63178988099E+02  0.15445491024E+02  0.14919252321E+03  0.18129181375E+03  0.79863414772E+02 0.  0.
          5    1    5    5  501    0 -0.51914435342E+02  0.25515730528E+02  0.22823219293E+03  0.23549561566E+03  0.47000000000E+01 0. -1.
        -11    1    6    6    0    0 -0.61477517972E+01 -0.12461951491E+02  0.73943541563E+02  0.75237905513E+02  0.00000000000E+00 0.  1.
         12    1    6    6    0    0  0.69326739896E+02  0.27907442516E+02  0.75248981648E+02  0.10605390823E+03  0.00000000000E+00 0. -1.
         -5    1    3    3    0  503 -0.11121021289E+01  0.56041399585E+02 -0.53496019705E+02  0.77625958048E+02  0.47000000000E+01 0.  1.
         11    1    4    4    0    0  0.12580052295E+02 -0.65185901306E+02 -0.31583232201E+02  0.73518433070E+02  0.00000000000E+00 0. -1.
        -12    1    4    4    0    0 -0.22732502923E+02 -0.31816719831E+02 -0.91780941281E+02  0.99763778660E+02  0.00000000000E+00 0.  1.
</event>
<event>
12    1  0.8684423E-002  0.2300471E+03  0.7818608E-02  0.1126654E+00
         21   -1    0    0  503  502  0.00000000000E+00  0.00000000000E+00  0.44217650930E+03  0.44217650930E+03  0.00000000000E+00 0.  1.
         21   -1    0    0  501  503 -0.00000000000E+00 -0.00000000000E+00 -0.15910876435E+03  0.15910876435E+03  0.00000000000E+00 0. -1.
          6    2    1    2  501    0  0.39949293168E+01  0.15307121034E+03  0.29139210338E+03  0.37108764529E+03  0.17131820591E+03 0.  0.
         24    2    3    3    0    0  0.27492882711E+01  0.47599259895E+02  0.23498336007E+03  0.25138000027E+03  0.75508124737E+02 0.  0.
         -6    2    1    2    0  502 -0.39949293168E+01 -0.15307121034E+03 -0.83243584315E+01  0.23019762837E+03  0.17168255085E+03 0.  0.
        -24    2    5    5    0    0 -0.23615798518E+02 -0.17498957878E+03 -0.24437519875E+02  0.19632850740E+03  0.82271695140E+02 0.  0.
          5    1    3    3  501    0  0.12456410456E+01  0.10547195044E+03  0.56408743319E+02  0.11970764501E+03  0.47000000000E+01 0. -1.
        -13    1    4    4    0    0 -0.22081104927E+02 -0.25770791835E+01  0.22441329751E+02  0.31588444294E+02  0.00000000000E+00 0.  1.
         14    1    4    4    0    0  0.24830393198E+02  0.50176339079E+02  0.21254203031E+03  0.21979155598E+03  0.00000000000E+00 0. -1.
         -5    1    5    5    0  502  0.19620869201E+02  0.21918368438E+02  0.16113161443E+02  0.33869120965E+02  0.47000000000E+01 0.  1.
         13    1    6    6    0    0  0.25374430988E+02 -0.81272662095E+02 -0.30413187002E+02  0.90410559647E+02  0.00000000000E+00 0. -1.
        -14    1    6    6    0    0 -0.48990229506E+02 -0.93716916681E+02  0.59756671268E+01  0.10591794776E+03  0.00000000000E+00 0.  1.
</event>
<event>
12    1  0.8684423E-002  0.1755329E+03  0.7818608E-02  0.1172269E+00
         21   -1    0    0  501  502  0.00000000000E+00  0.00000000000E+00  0.45600581067E+02  0.45600581067E+02  0.00000000000E+00 0. -1.
         21   -1    0    0  502  503 -0.00000000000E+00 -0.00000000000E+00 -0.74410836566E+03  0.74410836566E+03  0.00000000000E+00 0. -1.
         -6    2    1    2    0  503 -0.28170730629E+02 -0.27828084690E+02 -0.22882839472E+03  0.28839940898E+03  0.17100816504E+03 0.  0.
        -24    2    3    3    0    0 -0.74215797370E+02 -0.46678897863E+02 -0.19279947559E+03  0.22679036466E+03  0.81088393932E+02 0.  0.
          6    2    1    2  501    0  0.28170730629E+02  0.27828084690E+02 -0.46967938988E+03  0.50130953775E+03  0.17071769388E+03 0.  0.
         24    2    5    5    0    0  0.11793230734E+02 -0.48799143077E+02 -0.21224120578E+03  0.23216930819E+03  0.79597874200E+02 0.  0.
          5    1    5    5  501    0  0.16377499896E+02  0.76627227766E+02 -0.25743818410E+03  0.26914022956E+03  0.47000000000E+01 0. -1.
        -13    1    6    6    0    0  0.36631048246E+02 -0.75712787852E+01 -0.47039780509E+02  0.60099075770E+02  0.00000000000E+00 0.  1.
         14    1    6    6    0    0 -0.24837817512E+02 -0.41227864292E+02 -0.16520142527E+03  0.17207023242E+03  0.00000000000E+00 0. -1.
         -5    1    3    3    0  503  0.46045066741E+02  0.18850813174E+02 -0.36028919135E+02  0.61609044323E+02  0.47000000000E+01 0.  1.
         11    1    4    4    0    0  0.11603475682E+02  0.24664107137E+01 -0.22045567331E+01  0.12065815352E+02  0.00000000000E+00 0. -1.
        -12    1    4    4    0    0 -0.85819273052E+02 -0.49145308577E+02 -0.19059491885E+03  0.21472454931E+03  0.00000000000E+00 0.  1.
</event>
<event>
12    1  0.8684423E-002  0.1905536E+03  0.7818608E-02  0.1158006E+00
         21   -1    0    0  501  502  0.00000000000E+00  0.00000000000E+00  0.80525344463E+02  0.80525344463E+02  0.00000000000E+00 0.  1.
         21   -1    0    0  502  503 -0.00000000000E+00 -0.00000000000E+00 -0.58111626393E+03  0.58111626393E+03  0.00000000000E+00 0. -1.
         -6    2    1    2    0  503  0.12453498690E+02 -0.79251994531E+02 -0.40725223736E+03  0.44962768895E+03  0.17284300843E+03 0.  0.
        -24    2    3    3    0    0  0.66424330880E+02 -0.46458589331E+02 -0.17492710567E+03  0.20882628744E+03  0.80239228389E+02 0.  0.
          6    2    1    2  501    0 -0.12453498690E+02  0.79251994531E+02 -0.93338682103E+02  0.21201391944E+03  0.17263204857E+03 0.  0.
         24    2    5    5    0    0 -0.34619604596E+02  0.45479656855E+02  0.12027247881E+02  0.99071561382E+02  0.80022517913E+02 0.  0.
          5    1    5    5  501    0  0.22166105906E+02  0.33772337676E+02 -0.10536592998E+03  0.11294235806E+03  0.47000000000E+01 0. -1.
        -11    1    6    6    0    0 -0.57284687575E+02  0.15705462804E+02 -0.11216288054E+01  0.59409216824E+02  0.00000000000E+00 0.  1.
         12    1    6    6    0    0  0.22665082978E+02  0.29774194051E+02  0.13148876686E+02  0.39662344559E+02  0.00000000000E+00 0. -1.
         -5    1    3    3    0  503 -0.53970832189E+02 -0.32793405201E+02 -0.23232513169E+03  0.24080140151E+03  0.47000000000E+01 0.  1.
         11    1    4    4    0    0  0.24312708217E+02  0.14069178560E+01 -0.12634837626E+03  0.12867400430E+03  0.00000000000E+00 0. -1.
        -12    1    4    4    0    0  0.42111622663E+02 -0.47865507187E+02 -0.48578729407E+02  0.80152283138E+02  0.00000000000E+00 0.  1.
</event>
<event>
12    1  0.8684423E-002  0.2232548E+03  0.7818608E-02  0.1131575E+00
         21   -1    0    0  501  502  0.00000000000E+00  0.00000000000E+00  0.10303695146E+03  0.10303695146E+03  0.00000000000E+00 0. -1.
         21   -1    0    0  502  503 -0.00000000000E+00 -0.00000000000E+00 -0.85500272473E+03  0.85500272473E+03  0.00000000000E+00 0.  1.
         -6    2    1    2    0  503 -0.13602876787E+03 -0.41765390790E+02 -0.69187041216E+03  0.72683813787E+03  0.17135004488E+03 0.  0.
        -24    2    3    3    0    0 -0.11398676821E+03  0.33707602237E+02 -0.44888113766E+03  0.47140145305E+03  0.81214951963E+02 0.  0.
          6    2    1    2  501    0  0.13602876787E+03  0.41765390790E+02 -0.60095361108E+02  0.23120153832E+03  0.17203059420E+03 0.  0.
         24    2    5    5    0    0  0.89568496657E+02  0.35478606867E+02 -0.10715158171E+03  0.16460980948E+03  0.79584425454E+02 0.  0.
          5    1    5    5  501    0  0.46460271211E+02  0.62867839223E+01  0.47056220601E+02  0.66591728844E+02  0.47000000000E+01 0. -1.
        -13    1    6    6    0    0  0.44426239790E+02  0.59158372157E+02 -0.63080779761E+02  0.97224423647E+02  0.00000000000E+00 0.  1.
         14    1    6    6    0    0  0.45142256867E+02 -0.23679765290E+02 -0.44070801949E+02  0.67385385832E+02  0.00000000000E+00 0. -1.
         -5    1    3    3    0  503 -0.22041999663E+02 -0.75472993027E+02 -0.24298927450E+03  0.25543668481E+03  0.47000000000E+01 0.  1.
         11    1    4    4    0    0  0.30294292177E+01  0.12160778698E+02 -0.82879257117E+01  0.15025035525E+02  0.00000000000E+00 0. -1.
        -12    1    4    4    0    0 -0.11701619742E+03  0.21546823539E+02 -0.44059321195E+03  0.45637641753E+03  0.00000000000E+00 0.  1.
</event>
<event>
12    1  0.8684423E-002  0.1847206E+03  0.7818608E-02  0.1163712E+00
         21   -1    0    0  501  502  0.00000000000E+00  0.00000000000E+00  0.49883613732E+03  0.49883613732E+03  0.00000000000E+00 0. -1.
         21   -1    0    0  502  503 -0.00000000000E+00 -0.00000000000E+00 -0.15240379816E+03  0.15240379816E+03  0.00000000000E+00 0. -1.
         -6    2    1    2    0  503  0.53695583964E+02 -0.37883671506E+02 -0.69788560079E+02  0.19587028113E+03  0.17081081818E+03 0.  0.
        -24    2    3    3    0    0 -0.15713557440E+02  0.19413222967E+02 -0.65065356274E+02  0.10562083968E+03  0.79362913723E+02 0.  0.
          6    2    1    2  501    0 -0.53695583964E+02  0.37883671506E+02  0.41622089923E+03  0.45536965436E+03  0.17263631382E+03 0.  0.
         24    2    5    5    0    0  0.29083053476E+02 -0.11025781897E+01  0.12986824742E+03  0.15471676200E+03  0.78895342562E+02 0.  0.
          5    1    5    5  501    0 -0.82778637441E+02  0.38986249696E+02  0.28635265182E+03  0.30065289236E+03  0.47000000000E+01 0. -1.
        -13    1    6    6    0    0 -0.48900184977E+01 -0.24395948419E+02  0.80943976120E+01  0.26164744464E+02  0.00000000000E+00 0.  1.
         14    1    6    6    0    0  0.33973071974E+02  0.23293370229E+02  0.12177384980E+03  0.12855201753E+03  0.00000000000E+00 0. -1.
         -5    1    3    3    0  503  0.69409141404E+02 -0.57296894473E+02 -0.47232038049E+01  0.90249441444E+02  0.47000000000E+01 0.  1.
         13    1    4    4    0    0 -0.20589309208E+02  0.45617576008E+02 -0.60599751069E+02  0.78595246193E+02  0.00000000000E+00 0. -1.
        -14    1    4    4    0    0  0.48757517682E+01 -0.26204353041E+02 -0.44656052049E+01  0.27025593489E+02  0.00000000000E+00 0.  1.
</event>
<event>
12    1  0.8684423E-002  0.1985438E+03  0.7818608E-02  0.1151171E+00
         21   -1    0    0  503  502  0.00000000000E+00  0.00000000000E+00  0.75221551330E+03  0.75221551330E+03  0.00000000000E+00 0.  1.
         21   -1    0    0  501  503 -0.00000000000E+00 -0.00000000000E+00 -0.49937982780E+03  0.49937982780E+03  0.00000000000E+00 0.  1.
          6    2    1    2  501    0 -0.70807737868E+02  0.66043008043E+02 -0.46576502077E+03  0.50631678837E+03  0.17333268867E+03 0.  0.
         24    2    3    3    0    0 -0.64078522580E+02 -0.41176047562E+01 -0.38847130222E+03  0.40160669882E+03  0.79088407278E+02 0.  0.
         -6    2    1    2    0  502  0.70807737868E+02 -0.66043008043E+02  0.71860070627E+03  0.74527855272E+03  0.17227225963E+03 0.  0.
        -24    2    5    5    0    0  0.11341017323E+03 -0.37233626478E+02  0.47794574433E+03  0.49914475034E+03  0.80406075277E+02 0.  0.
          5    1    3    3  501    0 -0.67292152883E+01  0.70160612799E+02 -0.77293718552E+02  0.10471008955E+03  0.47000000000E+01 0. -1.
        -13    1    4    4    0    0 -0.61819709579E+02  0.22262824917E+02 -0.18303819357E+03  0.19447439464E+03  0.00000000000E+00 0.  1.
         14    1    4    4    0    0 -0.22588130007E+01 -0.26380429673E+02 -0.20543310865E+03  0.20713230418E+03  0.00000000000E+00 0. -1.
         -5    1    5    5    0  502 -0.42602435358E+02 -0.28809381565E+02  0.24065496194E+03  0.24613380238E+03  0.47000000000E+01 0.  1.
         11    1    6    6    0    0  0.68317058507E+02 -0.21914739179E+01  0.13333422316E+03  0.14983336780E+03  0.00000000000E+00 0. -1.
        -12    1    6    6    0    0  0.45093114719E+02 -0.35042152560E+02  0.34461152117E+03  0.34931138254E+03  0.00000000000E+00 0.  1.
</event>
<event>
12    1  0.8684423E-002  0.2423173E+03  0.7818608E-02  0.1118331E+00
         21   -1    0    0  501  502  0.00000000000E+00  0.00000000000E+00  0.16445316376E+03  0.16445316376E+03  0.00000000000E+00 0.  1.
         21   -1    0    0  502  503 -0.00000000000E+00 -0.00000000000E+00 -0.44451814191E+03  0.44451814191E+03  0.00000000000E+00 0. -1.
         -6    2    1    2    0  503 -0.40588222655E+02 -0.16406001172E+03 -0.27549700525E+03  0.36661093589E+03  0.17303724209E+03 0.  0.
        -24    2    3    3    0    0  0.40088144031E+02 -0.11101512145E+03 -0.18991601982E+03  0.23750388112E+03  0.80053622520E+02 0.  0.
          6    2    1    2  501    0  0.40588222655E+02  0.16406001172E+03 -0.45679729036E+01  0.24236036978E+03  0.17365077368E+03 0.  0.
         24    2    5    5    0    0  0.69554953672E+01  0.28001399477E+02  0.41260072709E+02  0.94829335503E+02  0.80360139270E+02 0.  0.
          5    1    5    5  501    0  0.33632727287E+02  0.13605861224E+03 -0.45828045612E+02  0.14753103428E+03  0.47000000000E+01 0. -1.
        -11    1    6    6    0    0 -0.21985113878E+01  0.51492423697E+02  0.46110404442E+02  0.69155423130E+02  0.00000000000E+00 0.  1.
         12    1    6    6    0    0  0.91540067550E+01 -0.23491024220E+02 -0.48503317331E+01  0.25673912372E+02  0.00000000000E+00 0. -1.
         -5    1    3    3    0  503 -0.80676366686E+02 -0.53044890265E+02 -0.85580985430E+02  0.12910705477E+03  0.47000000000E+01 0.  1.
         11    1    4    4    0    0  0.19720807213E+01 -0.52964654567E+02 -0.14603655787E+03  0.15535707248E+03  0.00000000000E+00 0. -1.
        -12    1    4    4    0    0  0.38116063310E+02 -0.58050466887E+02 -0.43879461952E+02  0.82146808637E+02  0.00000000000E+00 0.  1.
</event>
<event>
12    1  0.8684423E-002  0.1813056E+03  0.7818608E-02  0.1166768E+00
         21   -1    0    0  503  502  0.00000000000E+00  0.00000000000E+00  0.20489734250E+03  0.20489734250E+03  0.00000000000E+00 0.  1.
         21   -1    0    0  501  503 -0.00000000000E+00 -0.00000000000E+00 -0.20683380287E+03  0.20683380287E+03  0.00000000000E+00 0.  1.
          6    2    1    2  501    0  0.13777564300E-01 -0.53632992687E+02 -0.99330701712E+02  0.20592213838E+03  0.17222322920E+03 0.  0.
         24    2    3    3    0    0 -0.18235424604E+02 -0.99081784163E+02 -0.59880096063E+02  0.14285815252E+03  0.81689015008E+02 0.  0.
         -6    2    1    2    0  502 -0.13777564300E-01  0.53632992687E+02  0.97394241334E+02  0.20580900699E+03  0.17319125561E+03 0.  0.
        -24    2    5    5    0    0  0.34028299029E+02 -0.28545513758E+02  0.50733779481E+02  0.10525325827E+03  0.80818070419E+02 0.  0.
          5    1    3    3  501    0  0.18249202169E+02  0.45448791476E+02 -0.39450605650E+02  0.63063985860E+02  0.47000000000E+01 0. -1.
        -11    1    4    4    0    0 -0.38153862365E+01 -0.25727942620E+02 -0.62873086738E+02  0.68040497056E+02  0.00000000000E+00 0.  1.
         12    1    4    4    0    0 -0.14420038368E+02 -0.73353841543E+02  0.29929906756E+01  0.74817655462E+02  0.00000000000E+00 0. -1.
         -5    1    5    5    0  502 -0.34042076593E+02  0.82178506445E+02  0.46660461854E+02  0.10055574872E+03  0.47000000000E+01 0.  1.
         11    1    6    6    0    0  0.56262947312E+01  0.12222712163E+02 -0.16728574103E+02  0.21468467029E+02  0.00000000000E+00 0. -1.
        -12    1    6    6    0    0  0.28402004298E+02 -0.40768225921E+02  0.67462353584E+02  0.83784791245E+02  0.00000000000E+00 0.  1.
</event>
<event>
12    1  0.8684423E-002  0.2144553E+03  0.7818608E-02  0.1138201E+00
         21   -1    0    0  501  502  0.00000000000E+00  0.00000000000E+00  0.10164602173E+03  0.10164602173E+03  0.00000000000E+00 0. -1.
         21   -1    0    0  502  503 -0.00000000000E+00 -0.00000000000E+00 -0.11547379289E+04  0.11547379289E+04  0.00000000000E+00 0. -1.
         -6    2    1    2    0  503 -0.50454668099E+02  0.11707764144E+03 -0.10171664749E+04  0.10395281251E+04  0.17244778189E+03 0.  0.
        -24    2    3    3    0    0 -0.65123779491E+02  0.35186706274E+02 -0.33119453111E+03  0.34851372162E+03  0.79327080940E+02 0.  0.
          6    2    1    2  501    0  0.50454668099E+02 -0.11707764144E+03 -0.35925432217E+02  0.21685582552E+03  0.17170604161E+03 0.  0.
         24    2    5    5    0    0 -0.14441829377E+02 -0.51416691770E+00 -0.24789416402E+02  0.82897996990E+02  0.77773594080E+02 0.  0.
          5    1    5    5  501    0  0.64896497476E+02 -0.11656347452E+03 -0.11136015815E+02  0.13395782853E+03  0.47000000000E+01 0. -1.
        -13    1    6    6    0    0 -0.61559676409E+01 -0.17198498064E+02 -0.49032303897E+02  0.52324478962E+02  0.00000000000E+00 0.  1.
         14    1    6    6    0    0 -0.82858617361E+01  0.16684331146E+02  0.24242887495E+02  0.30573518028E+02  0.00000000000E+00 0. -1.
         -5    1    3    3    0  503  0.14669111391E+02  0.81890935162E+02 -0.68597194383E+03  0.69101440348E+03  0.47000000000E+01 0.  1.
         11    1    4    4    0    0 -0.55007672538E+02  0.31562840564E+01 -0.29082001724E+03  0.29599339282E+03  0.00000000000E+00 0. -1.
        -12    1    4    4    0    0 -0.10116106953E+02  0.32030422217E+02 -0.40374513869E+02  0.52520328802E+02  0.00000000000E+00 0.  1.
</event>
<event>
12    1  0.8684423E-002  0.2556479E+03  0.7818608E-02  0.1109841E+00
         21   -1    0    0  503  502  0.00000000000E+00  0.00000000000E+00  0.50464597538E+02  0.50464597538E+02  0.00000000000E+00 0.  1.
         21   -1    0    0  501  503 -0.00000000000E+00 -0.00000000000E+00 -0.19684675925E+04  0.19684675925E+04  0.00000000000E+00 0.  1.
          6    2    1    2  501    0  0.16362814937E+03  0.94197504313E+02 -0.36823653453E+03  0.44827890939E+03  0.17236152169E+03 0.  0.
         24    2    3    3    0    0  0.37470405518E+02  0.91727710730E+02 -0.21149740788E+03  0.24700516536E+03  0.80389016464E+02 0.  0.
         -6    2    1    2    0  502 -0.16362814937E+03 -0.94197504313E+02 -0.15497664604E+04  0.15706532806E+04  0.17183801977E+03 0.  0.
        -24    2    5    5    0    0 -0.14835556226E+03 -0.11126007848E+03 -0.15109005648E+04  0.15252987749E+04  0.96579800458E+02 0.  0.
          5    1    3    3  501    0  0.12615774385E+03  0.24697935829E+01 -0.15673912665E+03  0.20127374403E+03  0.47000000000E+01 0. -1.
        -13    1    4    4    0    0 -0.21798766812E+02  0.34370236768E+02 -0.10275657054E+03  0.11052335589E+03  0.00000000000E+00 0.  1.
         14    1    4    4    0    0  0.59269172330E+02  0.57357473962E+02 -0.10874083735E+03  0.13648180946E+03  0.00000000000E+00 0. -1.
         -5    1    5    5    0  502 -0.15272587109E+02  0.17062574169E+02 -0.38865895585E+02  0.45354505773E+02  0.47000000000E+01 0.  1.
         13    1    6    6    0    0 -0.72824612808E+02 -0.25865924032E+02 -0.33094650994E+03  0.33985005915E+03  0.00000000000E+00 0. -1.
        -14    1    6    6    0    0 -0.75530949453E+02 -0.85394154450E+02 -0.11799540549E+04  0.11854487157E+04  0.00000000000E+00 0.  1.
</event>
<event>
12    1  0.8684423E-002  0.1820309E+03  0.7818608E-02  0.1166352E+00
         21   -1    0    0  501  502  0.00000000000E+00  0.00000000000E+00  0.55088815049E+03  0.55088815049E+03  0.00000000000E+00 0.  1.
         21   -1    0    0  502  503 -0.00000000000E+00 -0.00000000000E+00 -0.98306755062E+02  0.98306755062E+02  0.00000000000E+00 0.  1.
         -6    2    1    2    0  503 -0.38939329018E+02 -0.39136768310E+02  0.21463993314E+02  0.18122324334E+03  0.17126938705E+03 0.  0.
        -24    2    3    3    0    0 -0.43565967262E+02 -0.76128703060E+02 -0.25027049046E+02  0.12144602328E+03  0.80182357500E+02 0.  0.
          6    2    1    2  501    0  0.38939329018E+02  0.39136768310E+02  0.43111740212E+03  0.46797166222E+03  0.17345692333E+03 0.  0.
         24    2    5    5    0    0  0.41784920289E+02 -0.14727606375E+02  0.11090961071E+03  0.14321854379E+03  0.79042568181E+02 0.  0.
          5    1    5    5  501    0 -0.28455912714E+01  0.53864374685E+02  0.32020779140E+03  0.32475311842E+03  0.47000000000E+01 0. -1.
        -13    1    6    6    0    0  0.21723446243E+02  0.10411823941E+02  0.10830343102E+03  0.11095020218E+03  0.00000000000E+00 0.  1.
         14    1    6    6    0    0  0.20061474046E+02 -0.25139430316E+02  0.26061796941E+01  0.32268341608E+02  0.00000000000E+00 0. -1.
         -5    1    3    3    0  503  0.46266382440E+01  0.36991934750E+02  0.46491042360E+02  0.59777220057E+02  0.47000000000E+01 0.  1.
         13    1    4    4    0    0 -0.41510625991E+02 -0.20556591394E+02  0.19447752065E+02  0.50238636330E+02  0.00000000000E+00 0. -1.
        -14    1    4    4    0    0 -0.20553412708E+01 -0.55572111666E+02 -0.44474801111E+02  0.71207386953E+02  0.00000000000E+00 0.  1.
</event>
<event>
12    1  0.8684423E-002  0.1804730E+03  0.7818608E-02  0.1167489E+00
         21   -1    0    0  501  502  0.00000000000E+00  0.00000000000E+00  0.23196051925E+03  0.23196051925E+03  0.00000000000E+00 0.  1.
         21   -1    0    0  502  503 -0.00000000000E+00 -0.00000000000E+00 -0.23404973095E+03  0.23404973095E+03  0.00000000000E+00 0.  1.
         -6    2    1    2    0  503 -0.46501171872E+02 -0.28097827401E+02 -0.14878420117E+03  0.23389578006E+03  0.17210069878E+03 0.  0.
        -24    2    3    3    0    0 -0.89512141753E+02 -0.70474026478E+01 -0.63420966017E+02  0.13590580186E+03  0.79912944149E+02 0.  0.
          6    2    1    2  501    0  0.46501171872E+02  0.28097827401E+02  0.14669498947E+03  0.23211447015E+03  0.17148137050E+03 0.  0.
         24    2    5    5    0    0 -0.21755195456E+02  0.15652069949E+02  0.13714223283E+03  0.16192064051E+03  0.81804804110E+02 0.  0.
          5    1    5    5  501    0  0.68256367328E+02  0.12445757452E+02  0.95527566380E+01  0.70193829634E+02  0.47000000000E+01 0. -1.
        -13    1    6    6    0    0  0.50049731653E+00  0.47347013316E+02  0.76314891132E+02  0.89810649569E+02  0.00000000000E+00 0.  1.
         14    1    6    6    0    0 -0.22255692773E+02 -0.31694943368E+02  0.60827341700E+02  0.72109990946E+02  0.00000000000E+00 0. -1.
         -5    1    3    3    0  503  0.43010969881E+02 -0.21050424753E+02 -0.85363235154E+02  0.97989978203E+02  0.47000000000E+01 0.  1.
         11    1    4    4    0    0 -0.65410433393E+02 -0.31140471473E+02 -0.10846294851E+02  0.73252275543E+02  0.00000000000E+00 0. -1.
        -12    1    4    4    0    0 -0.24101708359E+02  0.24093068826E+02 -0.52574671166E+02  0.62653526313E+02  0.00000000000E+00 0.  1.
</event>
<event>
12    1  0.8684423E-002  0.2114585E+03  0.7818608E-02  0.1141591E+00
         21   -1    0    0  503  502  0.00000000000E+00  0.00000000000E+00  0.61781209009E+03  0.61781209009E+03  0.00000000000E+00 0.  1.
         21   -1    0    0  501  503 -0.00000000000E+00 -0.00000000000E+00 -0.15723673057E+03  0.15723673057E+03  0.00000000000E+00 0.  1.
          6    2    1    2  501    0  0.10206418905E+03  0.68349581478E+02 -0.59193726725E+02  0.21391192467E+03  0.16482005417E+03 0.  0.
         24    2    3    3    0    0 -0.37384088878E+01  0.54603603502E+02 -0.26386754880E+02  0.10219116097E+03  0.82165949945E+02 0.  0.
         -6    2    1    2    0  502 -0.10206418905E+03 -0.68349581478E+02  0.51976908624E+03  0.56113689599E+03  0.17212190175E+03 0.  0.
        -24    2    5    5    0    0 -0.64288390675E+02 -0.54541275953E+02  0.15540015440E+03  0.19452471844E+03  0.81135135036E+02 0.  0.
          5    1    3    3  501    0  0.10580259793E+03  0.13745977976E+02 -0.32806971845E+02  0.11172076370E+03  0.47000000000E+01 0. -1.
        -11    1    4    4    0    0  0.30681493391E+02  0.46816212018E+02 -0.34802789057E+02  0.65911652009E+02  0.00000000000E+00 0.  1.
         12    1    4    4    0    0 -0.34419902279E+02  0.77873914840E+01  0.84160341770E+01  0.36279508958E+02  0.00000000000E+00 0. -1.
         -5    1    5    5    0  502 -0.37775798371E+02 -0.13808305525E+02  0.36436893184E+03  0.36661217756E+03  0.47000000000E+01 0.  1.
         13    1    6    6    0    0 -0.71191366665E+02 -0.15675579688E+02  0.73036859039E+02  0.10319068400E+03  0.00000000000E+00 0. -1.
        -14    1    6    6    0    0  0.69029759900E+01 -0.38865696266E+02  0.82363295360E+02  0.91334034436E+02  0.00000000000E+00 0.  1.
</event>
<event>
12    1  0.8684423E-002  0.2249472E+03  0.7818608E-02  0.1130382E+00
         21   -1    0    0  503  502  0.00000000000E+00  0.00000000000E+00  0.11223053654E+04  0.11223053654E+04  0.00000000000E+00 0. -1.
         21   -1    0    0  501  503 -0.00000000000E+00 -0.00000000000E+00 -0.44943594217E+02  0.44943594217E+02  0.00000000000E+00 0.  1.
          6    2    1    2  501    0  0.12973752024E+02  0.14404358272E+03  0.53344132136E+03  0.57893083186E+03  0.17229159230E+03 0.  0.
         24    2    3    3    0    0  0.60743555029E+02  0.10503010413E+03  0.24813848032E+03  0.28699966412E+03  0.77942283384E+02 0.  0.
         -6    2    1    2    0  502 -0.12973752024E+02 -0.14404358272E+03  0.54392044982E+03  0.58831812776E+03  0.17132393805E+03 0.  0.
        -24    2    5    5    0    0  0.75378465718E+01 -0.33776417686E+02  0.37653913941E+03  0.38677863674E+03  0.81353087314E+02 0.  0.
          5    1    3    3  501    0 -0.47769803005E+02  0.39013478590E+02  0.28530284105E+03  0.29193116774E+03  0.47000000000E+01 0. -1.
        -11    1    4    4    0    0 -0.40565380064E+01  0.63520513621E+02  0.81165446132E+02  0.10314621077E+03  0.00000000000E+00 0.  1.
         12    1    4    4    0    0  0.64800093036E+02  0.41509590506E+02  0.16697303418E+03  0.18385345334E+03  0.00000000000E+00 0. -1.
         -5    1    5    5    0  502 -0.20511598596E+02 -0.11026716503E+03  0.16738131042E+03  0.20153949102E+03  0.47000000000E+01 0.  1.
         13    1    6    6    0    0  0.99666337846E+00 -0.39040548621E+02  0.70258446958E+02  0.80382878422E+02  0.00000000000E+00 0. -1.
        -14    1    6    6    0    0  0.65411831934E+01  0.52641309352E+01  0.30628069245E+03  0.30639575832E+03  0.00000000000E+00 0.  1.
</event>
<event>
12    1  0.8684423E-002  0.2506251E+03  0.7818608E-02  0.1113074E+00
         21   -1    0    0  501  502  0.00000000000E+00  0.00000000000E+00  0.84440373327E+02  0.84440373327E+02  0.00000000000E+00 0.  1.
         21   -1    0    0  502  503 -0.00000000000E+00 -0.00000000000E+00 -0.77369298101E+03  0.77369298101E+03  0.00000000000E+00 0. -1.
         -6    2    1    2    0  503  0.17602156072E+03 -0.46726374671E+02 -0.25545962197E+03  0.35714504674E+03  0.17066347595E+03 0.  0.
        -24    2    3    3    0    0  0.32134929484E+02  0.14982997095E+01 -0.13586731144E+03  0.16387478879E+03  0.85791150413E+02 0.  0.
          6    2    1    2  501    0 -0.17602156072E+03  0.46726374671E+02 -0.43379298570E+03  0.50098830759E+03  0.17218009748E+03 0.  0.
         24    2    5    5    0    0 -0.69884620650E+02  0.22773318936E+02 -0.34773156151E+03  0.36218103955E+03  0.69680573182E+02 0.  0.
          5    1    5    5  501    0 -0.10613694007E+03  0.23953055736E+02 -0.86061424195E+02  0.13880726804E+03  0.47000000000E+01 0. -1.
        -13    1    6    6    0    0  0.97571573619E+01  0.84857894220E+01 -0.15244343748E+02  0.19990016464E+02  0.00000000000E+00 0.  1.
         14    1    6    6    0    0 -0.79641778011E+02  0.14287529514E+02 -0.33248721776E+03  0.34219102308E+03  0.00000000000E+00 0. -1.
         -5    1    3    3    0  503  0.14388663124E+03 -0.48224674381E+02 -0.11959231054E+03  0.19327025795E+03  0.47000000000E+01 0.  1.
         11    1    4    4    0    0  0.54155085163E+02  0.21557889977E+02 -0.66783506563E+02  0.88642837376E+02  0.00000000000E+00 0. -1.
        -12    1    4    4    0    0 -0.22020155679E+02 -0.20059590268E+02 -0.69083804873E+02  0.75231951414E+02  0.00000000000E+00 0.  1.
</event>
<event>
12    1  0.8684423E-002  0.2467033E+03  0.7818608E-02  0.1115447E+00
         21   -1    0    0  503  502  0.00000000000E+00  0.00000000000E+00  0.65296083718E+03  0.65296083718E+03  0.00000000000E+00 0. -1.
         21   -1    0    0  501  503 -0.00000000000E+00 -0.00000000000E+00 -0.10846659277E+03  0.10846659277E+03  0.00000000000E+00 0.  1.
          6    2    1    2  501    0 -0.16444635410E+03  0.63327787113E+02  0.41535508961E+03  0.48296836665E+03  0.17229503975E+03 0.  0.
         24    2    3    3    0    0 -0.34406180337E+02  0.70082904531E+02  0.20755666597E+03  0.23769636811E+03  0.85582679719E+02 0.  0.
         -6    2    1    2    0  502  0.16444635410E+03 -0.63327787113E+02  0.12913915480E+03  0.27845906330E+03  0.17265432702E+03 0.  0.
        -24    2    5    5    0    0  0.15949945285E+03 -0.32818939479E+01  0.12477768089E+03  0.21786951328E+03  0.80292022513E+02 0.  0.
          5    1    3    3  501    0 -0.13004017376E+03 -0.67551174188E+01  0.20779842364E+03  0.24527199854E+03  0.47000000000E+01 0. -1.
        -13    1    4    4    0    0  0.21581954006E+02 -0.34887955772E+01  0.26113996560E+02  0.34057205546E+02  0.00000000000E+00 0.  1.
         14    1    4    4    0    0 -0.55988134344E+02  0.73571700109E+02  0.18144266941E+03  0.20363916256E+03  0.00000000000E+00 0. -1.
         -5    1    5    5    0  502  0.49469012461E+01 -0.60045893165E+02  0.43614739096E+01  0.60589550028E+02  0.47000000000E+01 0.  1.
         11    1    6    6    0    0  0.59379110188E+02 -0.33133442852E+02  0.77772026873E+02  0.10330630148E+03  0.00000000000E+00 0. -1.
        -12    1    6    6    0    0  0.10012034267E+03  0.29851548904E+02  0.47005654015E+02  0.11456321179E+03  0.00000000000E+00 0.  1.
</event>
<event>
12    1  0.8684423E-002  0.2172403E+03  0.7818608E-02  0.1136073E+00
         21   -1    0    0  503  502  0.00000000000E+00  0.00000000000E+00  0.12138939234E+03  0.12138939234E+03  0.00000000000E+00 0.  1.
         21   -1    0    0  501  503 -0.00000000000E+00 -0.00000000000E+00 -0.54622426329E+03  0.54622426329E+03  0.00000000000E+00 0.  1.
          6    2    1    2  501    0 -0.12153534570E+03  0.52302355008E+02 -0.39246359591E+03  0.44857664395E+03  0.17229902723E+03 0.  0.
         24    2    3    3    0    0 -0.14041820221E+03  0.56165587251E+01 -0.28952400035E+03  0.33388237129E+03  0.88907107916E+02 0.  0.
         -6    2    1    2    0  502  0.12153534570E+03 -0.52302355008E+02 -0.32371275036E+02  0.21903701169E+03  0.17153115299E+03 0.  0.
        -24    2    5    5    0    0  0.12940633689E+03 -0.79022599007E+01 -0.62275161595E+02  0.16472630023E+03  0.80300140071E+02 0.  0.
          5    1    3    3  501    0  0.18882856509E+02  0.46685796283E+02 -0.10293959557E+03  0.11469427265E+03  0.47000000000E+01 0. -1.
        -13    1    4    4    0    0 -0.37659762415E+02 -0.64783601040E+01 -0.17675500460E+03  0.18083848735E+03  0.00000000000E+00 0.  1.
         14    1    4    4    0    0 -0.10275843980E+03  0.12094918829E+02 -0.11276899575E+03  0.15304388395E+03  0.00000000000E+00 0. -1.
         -5    1    5    5    0  502 -0.78709911888E+01 -0.44400095108E+02  0.29903886558E+02  0.54310711459E+02  0.47000000000E+01 0.  1.
         11    1    6    6    0    0  0.70314391902E+02  0.14187374166E+02  0.57372403039E+01  0.71960483744E+02  0.00000000000E+00 0. -1.
        -12    1    6    6    0    0  0.59091944991E+02 -0.22089634067E+02 -0.68012401899E+02  0.92765816484E+02  0.00000000000E+00 0.  1.
</event>
<event>
12    1  0.8684423E-002  0.2092097E+03  0.7818608E-02  0.1142476E+00
         21   -1    0    0  503  502  0.00000000000E+00  0.00000000000E+00  0.35227229587E+02  0.35227229587E+02  0.00000000000E+00 0.  1.
         21   -1    0    0  501  503 -0.00000000000E+00 -0.00000000000E+00 -0.18120264591E+04  0.18120264591E+04  0.00000000000E+00 0.  1.
          6    2    1    2  501    0 -0.99991287963E+02 -0.66551088268E+02 -0.14120760006E+04  0.14274898775E+04  0.17129335622E+03 0.  0.
         24    2    3    3    0    0 -0.68025570419E+02 -0.85445956580E+02 -0.62072720311E+03  0.63525643183E+03  0.79498325640E+02 0.  0.
         -6    2    1    2    0  502  0.99991287963E+02  0.66551088268E+02 -0.36472322892E+03  0.41976381119E+03  0.16956213744E+03 0.  0.
        -24    2    5    5    0    0  0.60042642729E+02  0.63706693776E+02 -0.36110211366E+03  0.37927693292E+03  0.76109090015E+02 0.  0.
          5    1    3    3  501    0 -0.31965717544E+02  0.18894868312E+02 -0.79134879753E+03  0.79223344571E+03  0.47000000000E+01 0. -1.
        -13    1    4    4    0    0 -0.82482375458E+02 -0.69408660316E+02 -0.57033471810E+03  0.58043310989E+03  0.00000000000E+00 0.  1.
         14    1    4    4    0    0  0.14456805039E+02 -0.16037296264E+02 -0.50392485011E+02  0.54823321944E+02  0.00000000000E+00 0. -1.
         -5    1    5    5    0  502  0.39948645234E+02  0.28443944919E+01 -0.36211152636E+01  0.40486878267E+02  0.47000000000E+01 0.  1.
         13    1    6    6    0    0  0.64359127637E+02  0.32152840637E+02 -0.15692209975E+03  0.17262806221E+03  0.00000000000E+00 0. -1.
        -14    1    6    6    0    0 -0.43164849078E+01  0.31553853139E+02 -0.20418001390E+03  0.20664887071E+03  0.00000000000E+00 0.  1.
</event>
<event>
12    1  0.8684423E-002  0.1771106E+03  0.7818608E-02  0.1170832E+00
         21   -1    0    0  503  502  0.00000000000E+00  0.00000000000E+00  0.71011803802E+03  0.71011803802E+03  0.00000000000E+00 0. -1.
         21   -1    0    0  501  503 -0.00000000000E+00 -0.00000000000E+00 -0.16758820299E+03  0.16758820299E+03  0.00000000000E+00 0. -1.
          6    2    1    2  501    0  0.19795544926E+02  0.33313428963E+02 -0.10548214890E+03  0.20614228212E+03  0.17281929461E+03 0.  0.
         24    2    3    3    0    0  0.59148917237E+02 -0.28800903312E+02 -0.59749760861E+02  0.11942192982E+03  0.79771404384E+02 0.  0.
         -6    2    1    2    0  502 -0.19795544926E+02 -0.33313428963E+02  0.64801198393E+03  0.67156395889E+03  0.17197956686E+03 0.  0.
        -24    2    5    5    0    0 -0.54671134370E+02 -0.51090417793E+02  0.59730964110E+03  0.60733666221E+03  0.80497516653E+02 0.  0.
          5    1    3    3  501    0 -0.39353372310E+02  0.62114332276E+02 -0.45732388041E+02  0.86720352295E+02  0.47000000000E+01 0. -1.
        -11    1    4    4    0    0  0.25057363483E+02 -0.53749573543E+02 -0.23620743926E+02  0.63834376823E+02  0.00000000000E+00 0.  1.
         12    1    4    4    0    0  0.34091553754E+02  0.24948670231E+02 -0.36129016936E+02  0.55587552999E+02  0.00000000000E+00 0. -1.
         -5    1    5    5    0  502  0.34875589444E+02  0.17776988830E+02  0.50702342826E+02  0.64227296681E+02  0.47000000000E+01 0.  1.
         13    1    6    6    0    0  0.10171413903E+01 -0.49186540471E+02  0.37200573627E+03  0.37524474435E+03  0.00000000000E+00 0. -1.
        -14    1    6    6    0    0 -0.55688275760E+02 -0.19038773219E+01  0.22530390483E+03  0.23209191786E+03  0.00000000000E+00 0.  1.
</event>
<event>
12    1  0.8684423E-002  0.1841885E+03  0.7818608E-02  0.1163894E+00
         21   -1    0    0  501  502  0.00000000000E+00  0.00000000000E+00  0.81313178571E+03  0.81313178571E+03  0.00000000000E+00 0.  1.
         21   -1    0    0  502  503 -0.00000000000E+00 -0.00000000000E+00 -0.49655056202E+02  0.49655056202E+02  0.00000000000E+00 0.  1.
         -6    2    1    2    0  503 -0.42302834619E+02 -0.50113546773E+02  0.20874147557E+03  0.27838536085E+03  0.17211771589E+03 0.  0.
        -24    2    3    3    0    0  0.21000010849E+02  0.16907068947E+02  0.14267322116E+03  0.16486832505E+03  0.78096524446E+02 0.  0.
          6    2    1    2  501    0  0.42302834619E+02  0.50113546773E+02  0.55473525393E+03  0.58440148106E+03  0.17173523729E+03 0.  0.
         24    2    5    5    0    0 -0.16803574338E+02  0.48829800410E+02  0.16580477124E+03  0.19097521611E+03  0.79458174439E+02 0.  0.
          5    1    5    5  501    0  0.59106408957E+02  0.12837463625E+01  0.38893048270E+03  0.39342626495E+03  0.47000000000E+01 0. -1.
        -13    1    6    6    0    0  0.26097272637E+02  0.27967672572E+01  0.82509492160E+02  0.86583519464E+02  0.00000000000E+00 0.  1.
         14    1    6    6    0    0 -0.42900846975E+02  0.46033033153E+02  0.83295279077E+02  0.10439169665E+03  0.00000000000E+00 0. -1.
         -5    1    3    3    0  503 -0.63302845468E+02 -0.67020615720E+02  0.66068254410E+02  0.11351703580E+03  0.47000000000E+01 0.  1.
         11    1    4    4    0    0 -0.27000086697E+02  0.10597037372E+02  0.83613965804E+02  0.88501961335E+02  0.00000000000E+00 0. -1.
        -12    1    4    4    0    0  0.48000097546E+02  0.63100315752E+01  0.59059255359E+02  0.76366363711E+02  0.00000000000E+00 0.  1.
</event>
<event>
12    1  0.8684423E-002  0.2091514E+03  0.7818608E-02  0.1142662E+00
         21   -1    0    0  501  502  0.00000000000E+00  0.00000000000E+00  0.17778324649E+03  0.17778324649E+03  0.00000000000E+00 0.  1.
         21   -1    0    0  502  503 -0.00000000000E+00 -0.00000000000E+00 -0.27236031577E+03  0.27236031577E+03  0.00000000000E+00 0. -1.
         -6    2    1    2    0  503 -0.56405331544E+02 -0.10582313562E+03 -0.12067186898E+03  0.24146638870E+03  0.17135991203E+03 0.  0.
        -24    2    3    3    0    0 -0.35023637373E+01 -0.22742901320E+02 -0.11519642753E+03  0.14270850398E+03  0.81030821798E+02 0.  0.
          6    2    1    2  501    0  0.56405331544E+02  0.10582313562E+03  0.26094799693E+02  0.20867717356E+03  0.16877537360E+03 0.  0.
         24    2    5    5    0    0 -0.17333985857E+02  0.10477367711E+03  0.94483387317E+01  0.13292901876E+03  0.79390568973E+02 0.  0.
          5    1    5    5  501    0  0.73739317400E+02  0.10494585148E+01  0.16646460961E+02  0.75748154805E+02  0.47000000000E+01 0. -1.
        -11    1    6    6    0    0  0.19935864652E+02 -0.14591365975E+01  0.54458597827E+00  0.19996608536E+02  0.00000000000E+00 0.  1.
         12    1    6    6    0    0 -0.37269850509E+02  0.10623281371E+03  0.89037527534E+01  0.11293241022E+03  0.00000000000E+00 0. -1.
         -5    1    3    3    0  503 -0.52902967806E+02 -0.83080234304E+02 -0.54754414476E+01  0.98757884717E+02  0.47000000000E+01 0.  1.
         13    1    4    4    0    0 -0.39427804771E+02 -0.23126558633E+02 -0.81544841738E+02  0.93482355112E+02  0.00000000000E+00 0. -1.
        -14    1    4    4    0    0  0.35925441033E+02  0.38365731377E+00 -0.33651585794E+02  0.49226148872E+02  0.00000000000E+00 0.  1.
</event>
<event>
12    1  0.8684423E-002  0.2266366E+03  0.7818608E-02  0.1131849E+00
         21   -1    0    0  501  502  0.00000000000E+00  0.00000000000E+00  0.28132616231E+03  0.28132616231E+03  0.00000000000E+00 0.  1.
         21   -1    0    0  502  503 -0.00000000000E+00 -0.00000000000E+00 -0.19846683749E+03  0.19846683749E+03  0.00000000000E+00 0. -1.
         -6    2    1    2    0  503 -0.60990553873E+02  0.13100587313E+03 -0.49680553896E+02  0.21724596103E+03  0.15441911699E+03 0.  0.
        -24    2    3    3    0    0 -0.64347460472E+02  0.15553817622E+03 -0.43926443071E+02  0.19139441353E+03  0.79809580873E+02 0.  0.
          6    2    1    2  501    0  0.60990553873E+02 -0.13100587313E+03  0.13253987872E+03  0.26254703876E+03  0.17459021065E+03 0.  0.
         24    2    5    5    0    0  0.88849278814E+02 -0.14227978854E+03  0.13860421317E+03  0.23152969077E+03  0.79102068418E+02 0.  0.
          5    1    5    5  501    0 -0.27858724941E+02  0.11273915405E+02 -0.60643344544E+01  0.31017347989E+02  0.47000000000E+01 0. -1.
        -13    1    6    6    0    0  0.83930846571E+01 -0.10811180950E+02  0.53990539693E+02  0.55698329238E+02  0.00000000000E+00 0.  1.
         14    1    6    6    0    0  0.80456194157E+02 -0.13146860759E+03  0.84613673477E+02  0.17583136153E+03  0.00000000000E+00 0. -1.
         -5    1    3    3    0  503  0.33569065993E+01 -0.24532303089E+02 -0.57541108254E+01  0.25851547500E+02  0.47000000000E+01 0.  1.
         13    1    4    4    0    0 -0.19642126876E+02  0.24307187448E+01 -0.23290805943E+02  0.30564410403E+02  0.00000000000E+00 0. -1.
        -14    1    4    4    0    0 -0.44705333597E+02  0.15310745748E+03 -0.20635637128E+02  0.16083000313E+03  0.00000000000E+00 0.  1.
</event>
<event>
12    1  0.8684423E-002  0.1760059E+03  0.7818608E-02  0.1172293E+00
         21   -1    0    0  503  502  0.00000000000E+00  0.00000000000E+00  0.14743481965E+04  0.14743481965E+04  0.00000000000E+00 0. -1.
         21   -1    0    0  501  503 -0.00000000000E+00 -0.00000000000E+00 -0.45322611124E+02  0.45322611124E+02  0.00000000000E+00 0. -1.
          6    2    1    2  501    0  0.22910007797E+02 -0.17859895694E+02  0.15705951639E+03  0.23589353800E+03  0.17359212324E+03 0.  0.
         24    2    3    3    0    0 -0.14213458218E+02 -0.18360964415E+01  0.17118104690E+03  0.19280732796E+03  0.87557531107E+02 0.  0.
         -6    2    1    2    0  502 -0.22910007797E+02  0.17859895694E+02  0.12719660690E+04  0.12837772696E+04  0.17129668129E+03 0.  0.
        -24    2    5    5    0    0  0.13714668433E+02  0.71126845416E+02  0.88282601943E+03  0.88927656872E+03  0.78637871481E+02 0.  0.
          5    1    3    3  501    0  0.37123466015E+02 -0.16023799253E+02 -0.14121530510E+02  0.43086210038E+02  0.47000000000E+01 0. -1.
        -13    1    4    4    0    0 -0.16382589835E+01 -0.43192200769E+02  0.63903286951E+02  0.77148429556E+02  0.00000000000E+00 0.  1.
         14    1    4    4    0    0 -0.12575199234E+02  0.41356104328E+02  0.10727775995E+03  0.11565889841E+03  0.00000000000E+00 0. -1.
         -5    1    5    5    0  502 -0.36624676230E+02 -0.53266949721E+02  0.38914004953E+03  0.39450070088E+03  0.47000000000E+01 0.  1.
         13    1    6    6    0    0 -0.13945717638E+02  0.77180904734E+02  0.62584062796E+03  0.63073597226E+03  0.00000000000E+00 0. -1.
        -14    1    6    6    0    0  0.27660386071E+02 -0.60540593189E+01  0.25698539146E+03  0.25854059646E+03  0.00000000000E+00 0.  1.
</event>
<event>
12    1  0.8684423E-002  0.1971431E+03  0.7818608E-02  0.1153019E+00
         21   -1    0    0  501  502  0.00000000000E+00  0.00000000000E+00  0.17224352792E+04  0.17224352792E+04  0.00000000000E+00 0.  1.
         21   -1    0    0  502  503 -0.00000000000E+00 -0.00000000000E+00 -0.24292571585E+02  0.24292571585E+02  0.00000000000E+00 0.  1.
         -6    2    1    2    0  503  0.75622216653E+02 -0.54575088163E+02  0.58019376167E+03  0.61152951349E+03  0.16925242949E+03 0.  0.
        -24    2    3    3    0    0  0.65328472826E+02  0.27062901493E+02  0.26548734248E+03  0.28620975879E+03  0.80201539959E+02 0.  0.
          6    2    1    2  501    0 -0.75622216653E+02  0.54575088163E+02  0.11179489459E+04  0.11351983373E+04  0.17369012453E+03 0.  0.
         24    2    5    5    0    0 -0.23950083160E+02  0.95624293701E+02  0.84297557352E+03  0.85237773656E+03  0.78882039840E+02 0.  0.
          5    1    5    5  501    0 -0.51672133493E+02 -0.41049205539E+02  0.27497337241E+03  0.28282060071E+03  0.47000000000E+01 0. -1.
        -11    1    6    6    0    0 -0.48941267088E+02  0.86906682218E+02  0.65665370651E+03  0.66418529742E+03  0.00000000000E+00 0.  1.
         12    1    6    6    0    0  0.24991183928E+02  0.87176114832E+01  0.18632186701E+03  0.18819243915E+03  0.00000000000E+00 0. -1.
         -5    1    3    3    0  503  0.10293743827E+02 -0.81637989656E+02  0.31470641919E+03  0.32531975470E+03  0.47000000000E+01 0.  1.
         11    1    4    4    0    0  0.33663464172E+02  0.38990498192E+01  0.23248499154E+03  0.23494191346E+03  0.00000000000E+00 0. -1.
        -12    1    4    4    0    0  0.31665008654E+02  0.23163851674E+02  0.33002350944E+02  0.51267845335E+02  0.00000000000E+00 0.  1.
</event>
<event>
12    1  0.8684423E-002  0.2821740E+03  0.7818608E-02  0.1094612E+00
         21   -1    0    0  503  502  0.00000000000E+00  0.00000000000E+00  0.14281310579E+04  0.14281310579E+04  0.00000000000E+00 0. -1.
         21   -1    0    0  501  503 -0.00000000000E+00 -0.00000000000E+00 -0.50742780525E+03  0.50742780525E+03  0.00000000000E+00 0. -1.
          6    2    1    2  501    0 -0.10207973217E+03 -0.19866204315E+03 -0.45279988968E+03  0.53352591585E+03  0.17243921735E+03 0.  0.
         24    2    3    3    0    0 -0.13364369302E+03 -0.16853736574E+03 -0.31294920778E+03  0.38695141929E+03  0.74355321966E+02 0.  0.
         -6    2    1    2    0  502  0.10207973217E+03  0.19866204315E+03  0.13735031423E+04  0.14020329473E+04  0.17116840898E+03 0.  0.
        -24    2    5    5    0    0  0.36238920998E+02  0.17495336745E+03  0.11817716307E+04  0.11978757131E+04  0.80000604810E+02 0.  0.
          5    1    3    3  501    0  0.31563960853E+02 -0.30124677405E+02 -0.13985068190E+03  0.14657449655E+03  0.47000000000E+01 0. -1.
        -11    1    4    4    0    0 -0.96825276416E+02 -0.15331902639E+03 -0.28673096907E+03  0.33925876058E+03  0.00000000000E+00 0.  1.
         12    1    4    4    0    0 -0.36818416603E+02 -0.15218339349E+02 -0.26218238715E+02  0.47692658712E+02  0.00000000000E+00 0. -1.
         -5    1    5    5    0  502  0.65840811168E+02  0.23708675701E+02  0.19173151157E+03  0.20415723413E+03  0.47000000000E+01 0.  1.
         13    1    6    6    0    0  0.53751729820E+02  0.88987067012E+02  0.51782282977E+03  0.52815568688E+03  0.00000000000E+00 0. -1.
        -14    1    6    6    0    0 -0.17512808822E+02  0.85966300434E+02  0.66394880096E+03  0.66972002627E+03  0.00000000000E+00 0.  1.
</event>
<event>
12    1  0.8684423E-002  0.2259231E+03  0.7818608E-02  0.1129572E+00
         21   -1    0    0  501  502  0.00000000000E+00  0.00000000000E+00  0.16953585051E+03  0.16953585051E+03  0.00000000000E+00 0.  1.
         21   -1    0    0  502  503 -0.00000000000E+00 -0.00000000000E+00 -0.52532052710E+03  0.52532052710E+03  0.00000000000E+00 0.  1.
         -6    2    1    2    0  503  0.14042675294E+03  0.42937461414E+02 -0.40503673986E+03  0.46378442679E+03  0.17169139571E+03 0.  0.
        -24    2    3    3    0    0  0.85461786618E+02 -0.49412807097E+01 -0.11643647996E+03  0.16608370210E+03  0.81842586767E+02 0.  0.
          6    2    1    2  501    0 -0.14042675294E+03 -0.42937461414E+02  0.49252063269E+02  0.23107195082E+03  0.17147939289E+03 0.  0.
         24    2    5    5    0    0 -0.89032275100E+02 -0.93311491288E+02  0.15606962691E+02  0.15149168925E+03  0.77925440080E+02 0.  0.
          5    1    5    5  501    0 -0.51394477838E+02  0.50374029874E+02  0.33645100578E+02  0.79580261566E+02  0.47000000000E+01 0. -1.
        -11    1    6    6    0    0 -0.68301577152E+02 -0.18582484507E+02  0.20770639474E+02  0.73768784971E+02  0.00000000000E+00 0.  1.
         12    1    6    6    0    0 -0.20730697948E+02 -0.74729006781E+02 -0.51636767821E+01  0.77722904280E+02  0.00000000000E+00 0. -1.
         -5    1    3    3    0  503  0.54964966320E+02  0.47878742123E+02 -0.28860025990E+03  0.29770072469E+03  0.47000000000E+01 0.  1.
         11    1    4    4    0    0  0.35414665130E+02 -0.42648495716E+02 -0.48444098031E+02  0.73620128546E+02  0.00000000000E+00 0. -1.
        -12    1    4    4    0    0  0.50047121488E+02  0.37707215006E+02 -0.67992381933E+02  0.92463573551E+02  0.00000000000E+00 0.  1.
</event>
<event>
12    1  0.8684423E-002  0.1894015E+03  0.7818608E-02  0.1159069E+00
         21   -1    0    0  501  502  0.00000000000E+00  0.00000000000E+00  0.16032224896E+04  0.16032224896E+04  0.00000000000E+00 0.  1.
         21   -1    0    0  502  503 -0.00000000000E+00 -0.00000000000E+00 -0.35267600183E+02  0.35267600183E+02  0.00000000000E+00 0.  1.
         -6    2    1    2    0  503 -0.60731018960E+02 -0.49467169092E+02  0.12803599526E+04  0.12942930591E+04  0.17244609913E+03 0.  0.
        -24    2    3    3    0    0  0.12367327162E+02  0.26190661139E+02  0.53773038393E+03  0.54423423357E+03  0.78727591568E+02 0.  0.
          6    2    1    2  501    0  0.60731018960E+02  0.49467169092E+02  0.28759493681E+03  0.34419703068E+03  0.17212057045E+03 0.  0.
         24    2    5    5    0    0  0.23952888098E+02  0.45430229739E+02  0.56691546644E+02  0.11030091405E+03  0.79465171969E+02 0.  0.
          5    1    5    5  501    0  0.36778130862E+02  0.40369393533E+01  0.23090339017E+03  0.23389611664E+03  0.47000000000E+01 0. -1.
        -11    1    6    6    0    0  0.41297755834E+02 -0.32696860706E+01  0.35020170097E+02  0.54245809032E+02  0.00000000000E+00 0.  1.
         12    1    6    6    0    0 -0.17344867736E+02  0.48699915809E+02  0.21671376547E+02  0.56055105013E+02  0.00000000000E+00 0. -1.
         -5    1    3    3    0  503 -0.73098346122E+02 -0.75657830231E+02  0.74262956871E+03  0.75005882556E+03  0.47000000000E+01 0.  1.
         13    1    4    4    0    0  0.12229375229E+01 -0.11200423148E+02  0.10003539257E+02  0.15067045249E+02  0.00000000000E+00 0. -1.
        -14    1    4    4    0    0  0.11144389639E+02  0.37391084287E+02  0.52772684467E+03  0.52916718832E+03  0.00000000000E+00 0.  1.
</event>
<event>
12    1  0.8684423E-002  0.2140218E+03  0.7818608E-02  0.1138427E+00
         21   -1    0    0  503  502  0.00000000000E+00  0.00000000000E+00  0.21549029455E+04  0.21549029455E+04  0.00000000000E+00 0. -1.
         21   -1    0    0  501  503 -0.00000000000E+00 -0.00000000000E+00 -0.65918740627E+02  0.65918740627E+02  0.00000000000E+00 0.  1.
          6    2    1    2  501    0 -0.11870775995E+03  0.46535860984E+02  0.13042343726E+03  0.25060199940E+03  0.17185450382E+03 0.  0.
         24    2    3    3    0    0 -0.12688624182E+03  0.84509487826E+02  0.11526645104E+03  0.20864120660E+03  0.83682892278E+02 0.  0.
         -6    2    1    2    0  502  0.11870775995E+03 -0.46535860984E+02  0.19585607676E+04  0.19702196867E+04  0.17189594212E+03 0.  0.
        -24    2    5    5    0    0  0.36796532149E+02 -0.57735324215E+02  0.15284173024E+04  0.15321781729E+04  0.82602364628E+02 0.  0.
          5    1    3    3  501    0  0.81784818631E+01 -0.37973626841E+02  0.15156986217E+02  0.41960792798E+02  0.47000000000E+01 0. -1.
        -11    1    4    4    0    0 -0.49609453728E+02  0.81603770236E+02  0.75155033044E+02  0.12152593224E+03  0.00000000000E+00 0.  1.
         12    1    4    4    0    0 -0.77276788089E+02  0.29057175895E+01  0.40111417998E+02  0.87115274354E+02  0.00000000000E+00 0. -1.
         -5    1    5    5    0  502  0.81911227804E+02  0.11199463231E+02  0.43014346521E+03  0.43804151387E+03  0.47000000000E+01 0.  1.
         13    1    6    6    0    0 -0.22075442275E+02  0.26327760711E+00  0.48064220752E+03  0.48114896458E+03  0.00000000000E+00 0. -1.
        -14    1    6    6    0    0  0.58871974425E+02 -0.57998601822E+02  0.10477750949E+04  0.10510292083E+04  0.00000000000E+00 0.  1.
</event>
<event>
12    1  0.8684423E-002  0.3172383E+03  0.7818608E-02  0.1078108E+00
         21   -1    0    0  503  502  0.00000000000E+00  0.00000000000E+00  0.43787908952E+03  0.43787908952E+03  0.00000000000E+00 0.  1.
         21   -1    0    0  501  503 -0.00000000000E+00 -0.00000000000E+00 -0.23600673727E+03  0.23600673727E+03  0.00000000000E+00 0. -1.
          6    2    1    2  501    0  0.14198918891E+03  0.21014614170E+03  0.22356519911E+02  0.31802511830E+03  0.19057237798E+03 0.  0.
         24    2    3    3    0    0  0.15336413849E+03  0.22596393113E+03 -0.47976611794E+01  0.28427557770E+03  0.78799298086E+02 0.  0.
         -6    2    1    2    0  502 -0.14198918891E+03 -0.21014614170E+03  0.17951583234E+03  0.35586070848E+03  0.17346059824E+03 0.  0.
        -24    2    5    5    0    0 -0.87426771287E+02 -0.39707231260E+02  0.51330948923E+02  0.13567911537E+03  0.80955861293E+02 0.  0.
          5    1    3    3  501    0 -0.11374949582E+02 -0.15817789424E+02  0.27154181091E+02  0.33749540604E+02  0.47000000000E+01 0. -1.
        -11    1    4    4    0    0  0.14609901278E+03  0.22188985753E+03  0.11558805171E+02  0.26592035722E+03  0.00000000000E+00 0.  1.
         12    1    4    4    0    0  0.72651257089E+01  0.40740736003E+01 -0.16356466351E+02  0.18355220477E+02  0.00000000000E+00 0. -1.
         -5    1    5    5    0  502 -0.54562417618E+02 -0.17043891044E+03  0.12818488342E+03  0.22018159312E+03  0.47000000000E+01 0.  1.
         11    1    6    6    0    0  0.11866518561E+02 -0.15039153035E+02  0.22154897798E+02  0.29288733042E+02  0.00000000000E+00 0. -1.
        -12    1    6    6    0    0 -0.99293289849E+02 -0.24668078225E+02  0.29176051125E+02  0.10639038233E+03  0.00000000000E+00 0.  1.
</event>
<event>
12    1  0.8684423E-002  0.2071735E+03  0.7818608E-02  0.1143906E+00
         21   -1    0    0  503  502  0.00000000000E+00  0.00000000000E+00  0.19577783655E+03  0.19577783655E+03  0.00000000000E+00 0. -1.
         21   -1    0    0  501  503 -0.00000000000E+00 -0.00000000000E+00 -0.46738825544E+03  0.46738825544E+03  0.00000000000E+00 0. -1.
          6    2    1    2  501    0  0.92737903725E+02 -0.67575507982E+02 -0.37756287213E+03  0.43047147367E+03  0.17200348591E+03 0.  0.
         24    2    3    3    0    0  0.76212364730E+02  0.32253747951E+00 -0.11599238533E+03  0.15968660042E+03  0.78975618586E+02 0.  0.
         -6    2    1    2    0  502 -0.92737903725E+02  0.67575507982E+02  0.10595245324E+03  0.23269461832E+03  0.17249375345E+03 0.  0.
        -24    2    5    5    0    0 -0.97512387699E+02  0.10467399305E+03  0.70592515645E+02  0.18100798099E+03  0.85529382897E+02 0.  0.
          5    1    3    3  501    0  0.16525538995E+02 -0.67898045462E+02 -0.26157048679E+03  0.27078487325E+03  0.47000000000E+01 0. -1.
        -13    1    4    4    0    0  0.40842676779E+02  0.35939877983E+02 -0.84274753461E+02  0.10030968621E+03  0.00000000000E+00 0.  1.
         14    1    4    4    0    0  0.35369687951E+02 -0.35617340503E+02 -0.31717631873E+02  0.59376914217E+02  0.00000000000E+00 0. -1.
         -5    1    5    5    0  502  0.47744839743E+01 -0.37098485072E+02  0.35359937598E+02  0.51686637333E+02  0.47000000000E+01 0.  1.
         11    1    6    6    0    0 -0.54422238565E+02  0.97572861112E+01  0.50433749470E+02  0.74836807577E+02  0.00000000000E+00 0. -1.
        -12    1    6    6    0    0 -0.43090149134E+02  0.94916706943E+02  0.20158766175E+02  0.10617117341E+03  0.00000000000E+00 0.  1.
</event>
<event>
12    1  0.8684423E-002  0.2213608E+03  0.7818608E-02  0.1133011E+00
         21   -1    0    0  501  502  0.00000000000E+00  0.00000000000E+00  0.77348465661E+03  0.77348465661E+03  0.00000000000E+00 0.  1.
         21   -1    0    0  502  503 -0.00000000000E+00 -0.00000000000E+00 -0.78372555023E+02  0.78372555023E+02  0.00000000000E+00 0.  1.
         -6    2    1    2    0  503  0.81714144455E+02 -0.11035831054E+03  0.16023395939E+03  0.27326821710E+03  0.17362153849E+03 0.  0.
        -24    2    3    3    0    0  0.12168193326E+03 -0.10283176893E+03  0.14237420234E+03  0.22860129542E+03  0.81285135133E+02 0.  0.
          6    2    1    2  501    0 -0.81714144455E+02  0.11035831054E+03  0.53487814220E+03  0.57858899453E+03  0.17266858278E+03 0.  0.
         24    2    5    5    0    0 -0.89784456642E+02  0.13861227973E+03  0.38957992637E+03  0.43027487438E+03  0.78034195994E+02 0.  0.
          5    1    5    5  501    0  0.80703121879E+01 -0.28253969185E+02  0.14529821583E+03  0.14831412015E+03  0.47000000000E+01 0. -1.
        -13    1    6    6    0    0  0.29769099311E+01  0.38786618358E+02  0.14678421064E+03  0.15185146772E+03  0.00000000000E+00 0.  1.
         14    1    6    6    0    0 -0.92761366574E+02  0.99825661372E+02  0.24279571573E+03  0.27842340666E+03  0.00000000000E+00 0. -1.
         -5    1    3    3    0  503 -0.39967788804E+02 -0.75265416169E+01  0.17859757048E+02  0.44666921681E+02  0.47000000000E+01 0.  1.
         13    1    4    4    0    0 -0.49994401964E+01  0.81026702134E+01  0.29032774832E+01  0.99537272923E+01  0.00000000000E+00 0. -1.
        -14    1    4    4    0    0  0.12668137346E+03 -0.11093443914E+03  0.13947092485E+03  0.21864756813E+03  0.00000000000E+00 0.  1.
</event>
<event>
12    1  0.8684423E-002  0.2868826E+03  0.7818608E-02  0.1092078E+00
         21   -1    0    0  503  502  0.00000000000E+00  0.00000000000E+00  0.18751291161E+03  0.18751291161E+03  0.00000000000E+00 0. -1.
         21   -1    0    0  501  503 -0.00000000000E+00 -0.00000000000E+00 -0.49349163473E+03  0.49349163473E+03  0.00000000000E+00 0.  1.
          6    2    1    2  501    0  0.19852942190E+03 -0.11381189681E+03 -0.26714046075E+03  0.39150492009E+03  0.17188658316E+03 0.  0.
         24    2    3    3    0    0  0.12233659284E+03 -0.11828067299E+03 -0.11268247200E+03  0.21915447057E+03  0.79842237717E+02 0.  0.
         -6    2    1    2    0  502 -0.19852942190E+03  0.11381189681E+03 -0.38838262377E+02  0.28949962625E+03  0.17301602168E+03 0.  0.
        -24    2    5    5    0    0 -0.13099936497E+03  0.13674666325E+02 -0.63333164844E+02  0.16617134983E+03  0.79082220589E+02 0.  0.
          5    1    3    3  501    0  0.76192829061E+02  0.44687761814E+01 -0.15445798875E+03  0.17235044952E+03  0.47000000000E+01 0. -1.
        -13    1    4    4    0    0  0.10253130891E+02 -0.57468907872E+02 -0.50933620896E+02  0.77472806859E+02  0.00000000000E+00 0.  1.
         14    1    4    4    0    0  0.11208346194E+03 -0.60811765119E+02 -0.61748851101E+02  0.14168166371E+03  0.00000000000E+00 0. -1.
         -5    1    5    5    0  502 -0.67530056926E+02  0.10013723048E+03  0.24494902467E+02  0.12332827642E+03  0.47000000000E+01 0.  1.
         11    1    6    6    0    0  0.67278058958E+01  0.52502970732E+01  0.72355546209E+01  0.11188487038E+02  0.00000000000E+00 0. -1.
        -12    1    6    6    0    0 -0.13772717087E+03  0.84243692522E+01 -0.70568719465E+02  0.15498286279E+03  0.00000000000E+00 0.  1.
</event>
<event>
12    1  0.8684423E-002  0.1791187E+03  0.7818608E-02  0.1169218E+00
         21   -1    0    0  503  502  0.00000000000E+00  0.00000000000E+00  0.24219181925E+02  0.24219181925E+02  0.00000000000E+00 0.  1.
         21   -1    0    0  501  503 -0.00000000000E+00 -0.00000000000E+00 -0.18907468490E+04  0.18907468490E+04  0.00000000000E+00 0.  1.
          6    2    1    2  501    0 -0.48492937697E+02  0.13740857124E+02 -0.14607279105E+04  0.14713930951E+04  0.16950290761E+03 0.  0.
         24    2    3    3    0    0 -0.89641195929E+02 -0.18286430530E+02 -0.88529883481E+03  0.89358721296E+03  0.79838228294E+02 0.  0.
         -6    2    1    2    0  502  0.48492937697E+02 -0.13740857124E+02 -0.40579975652E+03  0.44357293575E+03  0.17188115306E+03 0.  0.
        -24    2    5    5    0    0 -0.38961160851E+02  0.13849109629E+02 -0.13689897193E+03  0.15942658689E+03  0.70467994150E+02 0.  0.
          5    1    3    3  501    0  0.41148258232E+02  0.32027287654E+02 -0.57542907571E+03  0.57780588218E+03  0.47000000000E+01 0. -1.
        -13    1    4    4    0    0 -0.32162946957E+02  0.23186964948E+02 -0.51778973998E+03  0.51930559917E+03  0.00000000000E+00 0.  1.
         14    1    4    4    0    0 -0.57478248972E+02 -0.41473395478E+02 -0.36750909484E+03  0.37428161380E+03  0.00000000000E+00 0. -1.
         -5    1    5    5    0  502  0.87454098548E+02 -0.27589966753E+02 -0.26890078459E+03  0.28414634886E+03  0.47000000000E+01 0.  1.
         13    1    6    6    0    0 -0.25907899783E+02 -0.19802184821E+02 -0.10909719206E+03  0.11386633879E+03  0.00000000000E+00 0. -1.
        -14    1    6    6    0    0 -0.13053261068E+02  0.33651294449E+02 -0.27801779867E+02  0.45560248094E+02  0.00000000000E+00 0.  1.
</event>
<event>
12    1  0.8684423E-002  0.2076755E+03  0.7818608E-02  0.1144315E+00
         21   -1    0    0  501  502  0.00000000000E+00  0.00000000000E+00  0.85691366956E+03  0.85691366956E+03  0.00000000000E+00 0. -1.
         21   -1    0    0  502  503 -0.00000000000E+00 -0.00000000000E+00 -0.54467992315E+02  0.54467992315E+02  0.00000000000E+00 0.  1.
         -6    2    1    2    0  503  0.10875240980E+03 -0.59452925076E+01  0.26433178384E+03  0.33615533711E+03  0.17682388294E+03 0.  0.
        -24    2    3    3    0    0  0.36787195902E+02 -0.57842288941E+02  0.74046342125E+02  0.12614836204E+03  0.75706804783E+02 0.  0.
          6    2    1    2  501    0 -0.10875240980E+03  0.59452925076E+01  0.53811389340E+03  0.57522632476E+03  0.17162846292E+03 0.  0.
         24    2    5    5    0    0  0.40333697770E+01 -0.26498610443E+02  0.21353211749E+03  0.23004715655E+03  0.81285205347E+02 0.  0.
          5    1    5    5  501    0 -0.11278577958E+03  0.32443902951E+02  0.32458177591E+03  0.34517916822E+03  0.47000000000E+01 0. -1.
        -13    1    6    6    0    0  0.13325840979E+02  0.27200906769E+02  0.61773749048E+02  0.68800170336E+02  0.00000000000E+00 0.  1.
         14    1    6    6    0    0 -0.92924712016E+01 -0.53699517212E+02  0.15175836844E+03  0.16124698621E+03  0.00000000000E+00 0. -1.
         -5    1    3    3    0  503  0.71965213901E+02  0.51896996434E+02  0.19028544171E+03  0.21000697507E+03  0.47000000000E+01 0.  1.
         13    1    4    4    0    0 -0.15478852860E+02 -0.98944441877E+01  0.46608842480E+02  0.50098693685E+02  0.00000000000E+00 0. -1.
        -14    1    4    4    0    0  0.52266048763E+02 -0.47947844754E+02  0.27437499645E+02  0.76049668353E+02  0.00000000000E+00 0.  1.
</event>
<event>
12    1  0.8684423E-002  0.1777388E+03  0.7818608E-02  0.1170037E+00
         21   -1    0    0  503  502  0.00000000000E+00  0.00000000000E+00  0.73713548804E+03  0.73713548804E+03  0.00000000000E+00 0. -1.
         21   -1    0    0  501  503 -0.00000000000E+00 -0.00000000000E+00 -0.61047750312E+02  0.61047750312E+02  0.00000000000E+00 0. -1.
          6    2    1    2  501    0  0.38796116411E+02 -0.24334815319E+02  0.12010232417E+03  0.21451257178E+03  0.17173745455E+03 0.  0.
         24    2    3    3    0    0  0.43373577567E+02  0.19901416006E+02  0.13922104309E+03  0.16587706289E+03  0.76520373525E+02 0.  0.
         -6    2    1    2    0  502 -0.38796116411E+02  0.24334815319E+02  0.55598541356E+03  0.58367066657E+03  0.17162268218E+03 0.  0.
        -24    2    5    5    0    0 -0.33461696765E+02 -0.37252500643E+02  0.45962213976E+03  0.46908696765E+03  0.79263092981E+02 0.  0.
          5    1    3    3  501    0 -0.45774611562E+01 -0.44236231324E+02 -0.19118718916E+02  0.48635508894E+02  0.47000000000E+01 0. -1.
        -13    1    4    4    0    0  0.83663385821E+01  0.33515631065E+02  0.17964368258E+02  0.38935994579E+02  0.00000000000E+00 0.  1.
         14    1    4    4    0    0  0.35007238985E+02 -0.13614215059E+02  0.12125667483E+03  0.12694106831E+03  0.00000000000E+00 0. -1.
         -5    1    5    5    0  502 -0.53344196459E+01  0.61587315962E+02  0.96363273794E+02  0.11458369891E+03  0.47000000000E+01 0.  1.
         13    1    6    6    0    0  0.22037268799E+02 -0.23258303941E+02  0.23999376469E+03  0.24212310301E+03  0.00000000000E+00 0. -1.
        -14    1    6    6    0    0 -0.55498965564E+02 -0.13994196703E+02  0.21962837507E+03  0.22696386465E+03  0.00000000000E+00 0.  1.
</event>
<event>
12    1  0.8684423E-002  0.1766751E+03  0.7818608E-02  0.1173705E+00
         21   -1    0    0  501  502  0.00000000000E+00  0.00000000000E+00  0.66951348029E+03  0.66951348029E+03  0.00000000000E+00 0.  1.
         21   -1    0    0  502  503 -0.00000000000E+00 -0.00000000000E+00 -0.24561334139E+03  0.24561334139E+03  0.00000000000E+00 0.  1.
         -6    2    1    2    0  503 -0.45597776306E+02  0.13925741284E+02 -0.20149773842E+03  0.26798397824E+03  0.17012051767E+03 0.  0.
        -24    2    3    3    0    0 -0.15242335040E+01 -0.48805904370E+02 -0.72380259201E+02  0.11774699883E+03  0.79000722927E+02 0.  0.
          6    2    1    2  501    0  0.45597776306E+02 -0.13925741284E+02  0.62539787732E+03  0.64714284344E+03  0.15936835128E+03 0.  0.
         24    2    5    5    0    0  0.76871385220E+02  0.20556433091E+02  0.52074723549E+03  0.53250905349E+03  0.77823081215E+02 0.  0.
          5    1    5    5  501    0 -0.31273608914E+02 -0.34482174375E+02  0.10465064183E+03  0.11463378995E+03  0.47000000000E+01 0. -1.
        -13    1    6    6    0    0  0.64363289380E+02  0.17037750144E+02  0.51316258119E+03  0.51746376944E+03  0.00000000000E+00 0.  1.
         14    1    6    6    0    0  0.12508095840E+02  0.35186829466E+01  0.75846542991E+01  0.15045284047E+02  0.00000000000E+00 0. -1.
         -5    1    3    3    0  503 -0.44073542802E+02  0.62731645654E+02 -0.12911747922E+03  0.15023697941E+03  0.47000000000E+01 0.  1.
         11    1    4    4    0    0  0.19977751353E+02  0.14064843922E+02 -0.93454967912E+01  0.26158530041E+02  0.00000000000E+00 0. -1.
        -12    1    4    4    0    0 -0.21501984857E+02 -0.62870748291E+02 -0.63034762410E+02  0.91588468791E+02  0.00000000000E+00 0.  1.
</event>
<event>
12    1  0.8684423E-002  0.2031870E+03  0.7818608E-02  0.1147106E+00
         21   -1    0    0  501  502  0.00000000000E+00  0.00000000000E+00  0.48402041146E+03  0.48402041146E+03  0.00000000000E+00 0.  1.
         21   -1    0    0  502  503 -0.00000000000E+00 -0.00000000000E+00 -0.24549052877E+03  0.24549052877E+03  0.00000000000E+00 0.  1.
         -6    2    1    2    0  503 -0.10527395644E+03  0.23147621731E+02 -0.17545341389E+03  0.26835248831E+03  0.17207771280E+03 0.  0.
        -24    2    3    3    0    0 -0.32044040057E+02 -0.47569069659E+01 -0.10759807302E+02  0.85904256134E+02  0.78830952688E+02 0.  0.
          6    2    1    2  501    0  0.10527395644E+03 -0.23147621731E+02  0.41398329657E+03  0.46115845192E+03  0.17223974466E+03 0.  0.
         24    2    5    5    0    0  0.12097616374E+03 -0.45342399294E+02  0.40440147278E+03  0.43195111017E+03  0.79687169724E+02 0.  0.
          5    1    5    5  501    0 -0.15702207300E+02  0.22194777563E+02  0.95818237911E+01  0.29207341754E+02  0.47000000000E+01 0. -1.
        -11    1    6    6    0    0  0.27635867912E+02 -0.45682221292E+02  0.20411530819E+03  0.21098261913E+03  0.00000000000E+00 0.  1.
         12    1    6    6    0    0  0.93340295824E+02  0.33982199771E+00  0.20028616460E+03  0.22096849104E+03  0.00000000000E+00 0. -1.
         -5    1    3    3    0  503 -0.73229916379E+02  0.27904528697E+02 -0.16469360659E+03  0.18244823218E+03  0.47000000000E+01 0.  1.
         11    1    4    4    0    0  0.80117345845E+01 -0.28769291778E+02 -0.22919687055E+02  0.37645346262E+02  0.00000000000E+00 0. -1.
        -12    1    4    4    0    0 -0.40055774641E+02  0.24012384813E+02  0.12159879752E+02  0.48258909873E+02  0.00000000000E+00 0.  1.
</event>
<event>
12    1  0.8684423E-002  0.1852244E+03  0.7818608E-02  0.1162881E+00
         21   -1    0    0  503  502  0.00000000000E+00  0.00000000000E+00  0.83275118031E+02  0.83275118031E+02  0.00000000000E+00 0.  1.
         21   -1    0    0  501  503 -0.00000000000E+00 -0.00000000000E+00 -0.41688756683E+03  0.41688756683E+03  0.00000000000E+00 0.  1.
          6    2    1    2  501    0  0.63698208355E+02 -0.28386069317E+02 -0.13855610629E+03  0.23117375672E+03  0.17140676919E+03 0.  0.
         24    2    3    3    0    0  0.12786479403E+02 -0.67922156837E+02 -0.13005626524E+03  0.16598599975E+03  0.76549373215E+02 0.  0.
         -6    2    1    2    0  502 -0.63698208355E+02  0.28386069317E+02 -0.19505634250E+03  0.26898892814E+03  0.17159497671E+03 0.  0.
        -24    2    5    5    0    0  0.31575659150E+02  0.21543903743E+02 -0.91220271407E+02  0.12782255566E+03  0.80971018148E+02 0.  0.
          5    1    3    3  501    0  0.50911728952E+02  0.39536087520E+02 -0.84998410577E+01  0.65187756974E+02  0.47000000000E+01 0. -1.
        -11    1    4    4    0    0  0.34647646225E+02 -0.66456628754E+01 -0.65136073790E+02  0.74076530243E+02  0.00000000000E+00 0.  1.
         12    1    4    4    0    0 -0.21861166822E+02 -0.61276493961E+02 -0.64920191445E+02  0.91909469503E+02  0.00000000000E+00 0. -1.
         -5    1    5    5    0  502 -0.95273867504E+02  0.68421655741E+01 -0.10383607110E+03  0.14116637248E+03  0.47000000000E+01 0.  1.
         11    1    6    6    0    0 -0.19646611154E+02 -0.62965466839E+01 -0.13192213664E+01  0.20673078508E+02  0.00000000000E+00 0. -1.
        -12    1    6    6    0    0  0.51222270303E+02  0.27840450426E+02 -0.89901050041E+02  0.10714947715E+03  0.00000000000E+00 0.  1.
</event>
<event>
12    1  0.8684423E-002  0.1968275E+03  0.7818608E-02  0.1152455E+00
         21   -1    0    0  501  502  0.00000000000E+00  0.00000000000E+00  0.74974535836E+02  0.74974535836E+02  0.00000000000E+00 0. -1.
         21   -1    0    0  502  503 -0.00000000000E+00 -0.00000000000E+00 -0.65865566252E+03  0.65865566252E+03  0.00000000000E+00 0.  1.
         -6    2    1    2    0  503  0.52775888354E+02  0.78642022568E+02 -0.46217090950E+03  0.50231703398E+03  0.17248359614E+03 0.  0.
        -24    2    3    3    0    0 -0.61749793092E+01 -0.98077340759E+01 -0.28303684737E+03  0.29396716846E+03  0.78565368621E+02 0.  0.
          6    2    1    2  501    0 -0.52775888354E+02 -0.78642022568E+02 -0.12151021719E+03  0.23131316437E+03  0.17254328450E+03 0.  0.
         24    2    5    5    0    0 -0.78100560587E+02 -0.24527433986E+02 -0.12810546996E+03  0.17101959025E+03  0.78328770157E+02 0.  0.
          5    1    5    5  501    0  0.25324672233E+02 -0.54114588583E+02  0.65952527734E+01  0.60293574121E+02  0.47000000000E+01 0. -1.
        -11    1    6    6    0    0 -0.22033430627E+02 -0.21223642528E+02 -0.10655977080E+03  0.11086433070E+03  0.00000000000E+00 0.  1.
         12    1    6    6    0    0 -0.56067129960E+02 -0.33037914579E+01 -0.21545699158E+02  0.60155259556E+02  0.00000000000E+00 0. -1.
         -5    1    3    3    0  503  0.58950867663E+02  0.88449756644E+02 -0.17913406213E+03  0.20834986552E+03  0.47000000000E+01 0.  1.
         11    1    4    4    0    0 -0.45899861098E+01 -0.65979166111E+01 -0.28785361482E+03  0.28796580359E+03  0.00000000000E+00 0. -1.
        -12    1    4    4    0    0 -0.15849931994E+01 -0.32098174648E+01  0.48167674485E+01  0.60013648658E+01  0.00000000000E+00 0.  1.
</event>
<event>
12    1  0.8684423E-002  0.1940223E+03  0.7818608E-02  0.1155616E+00
         21   -1    0    0  501  502  0.00000000000E+00  0.00000000000E+00  0.67595520889E+02  0.67595520889E+02  0.00000000000E+00 0. -1.
         21   -1    0    0  502  503 -0.00000000000E+00 -0.00000000000E+00 -0.12657407669E+04  0.12657407669E+04  0.00000000000E+00 0. -1.
         -6    2    1    2    0  503  0.62744540220E+02 -0.67514781141E+02 -0.10990476934E+04  0.11154716629E+04  0.16696129873E+03 0.  0.
        -24    2    3    3    0    0  0.43900529369E+02 -0.62101660096E+02 -0.10855434075E+04  0.10912053413E+04  0.80874808874E+02 0.  0.
          6    2    1    2  501    0 -0.62744540220E+02  0.67514781141E+02 -0.99097552563E+02  0.21786462488E+03  0.17073238372E+03 0.  0.
         24    2    5    5    0    0 -0.60415395032E+02 -0.23677066638E+02 -0.62322166144E+02  0.11939687856E+03  0.78491647815E+02 0.  0.
          5    1    5    5  501    0 -0.23291451885E+01  0.91191847779E+02 -0.36775386419E+02  0.98467746318E+02  0.47000000000E+01 0. -1.
        -11    1    6    6    0    0 -0.24212512955E+02  0.22046598948E+02 -0.50031685426E+02  0.59795215990E+02  0.00000000000E+00 0.  1.
         12    1    6    6    0    0 -0.36202882077E+02 -0.45723665587E+02 -0.12290480718E+02  0.59601662574E+02  0.00000000000E+00 0. -1.
         -5    1    3    3    0  503  0.18844010851E+02 -0.54131210452E+01 -0.13504285969E+02  0.24266321599E+02  0.47000000000E+01 0.  1.
         11    1    4    4    0    0  0.67711243481E+02 -0.40849877032E+02 -0.76355479654E+03  0.76763888142E+03  0.00000000000E+00 0. -1.
        -12    1    4    4    0    0 -0.23810714113E+02 -0.21251783063E+02 -0.32198861092E+03  0.32356645987E+03  0.00000000000E+00 0.  1.
</event>
<event>
12    1  0.8684423E-002  0.1773349E+03  0.7818608E-02  0.1170792E+00
         21   -1    0    0  503  502  0.00000000000E+00  0.00000000000E+00  0.20801058485E+03  0.20801058485E+03  0.00000000000E+00 0.  1.
         21   -1    0    0  501  503 -0.00000000000E+00 -0.00000000000E+00 -0.37615654625E+03  0.37615654625E+03  0.00000000000E+00 0.  1.
          6    2    1    2  501    0 -0.43530702286E+02 -0.30138676002E+00 -0.31076640603E+03  0.35780359618E+03  0.17190881725E+03 0.  0.
         24    2    3    3    0    0 -0.72724715782E+02  0.37666270521E+02 -0.27492030934E+03  0.29779637935E+03  0.79961708630E+02 0.  0.
         -6    2    1    2    0  502  0.43530702286E+02  0.30138676002E+00  0.14262044462E+03  0.22636353492E+03  0.17030809095E+03 0.  0.
        -24    2    5    5    0    0  0.57870530583E+02 -0.35651170576E+02  0.35815263167E+02  0.11266369394E+03  0.82403704907E+02 0.  0.
          5    1    3    3  501    0  0.29194013496E+02 -0.37967657281E+02 -0.35846096684E+02  0.60007216824E+02  0.47000000000E+01 0. -1.
        -11    1    4    4    0    0 -0.70216517417E+02  0.10716593631E+02 -0.25354826052E+03  0.26330956138E+03  0.00000000000E+00 0.  1.
         12    1    4    4    0    0 -0.25081983653E+01  0.26949676890E+02 -0.21372048816E+02  0.34486817976E+02  0.00000000000E+00 0. -1.
         -5    1    5    5    0  502 -0.14339828297E+02  0.35952557336E+02  0.10680518145E+03  0.11369984098E+03  0.47000000000E+01 0.  1.
         13    1    6    6    0    0 -0.17606999730E+02 -0.68930043666E+01 -0.82785914708E+01  0.20641100393E+02  0.00000000000E+00 0. -1.
        -14    1    6    6    0    0  0.75477530313E+02 -0.28758166209E+02  0.44093854638E+02  0.92022593544E+02  0.00000000000E+00 0.  1.
</event>
<event>
12    1  0.8684423E-002  0.2288356E+03  0.7818608E-02  0.1127537E+00
         21   -1    0    0  503  502  0.00000000000E+00  0.00000000000E+00  0.48321306336E+02  0.48321306336E+02  0.00000000000E+00 0.  1.
         21   -1    0    0  501  503 -0.00000000000E+00 -0.00000000000E+00 -0.11332770638E+04  0.11332770638E+04  0.00000000000E+00 0.  1.
          6    2    1    2  501    0 -0.28531165783E+02 -0.14767168473E+03 -0.41597044695E+03  0.47455729534E+03  0.17190770760E+03 0.  0.
         24    2    3    3    0    0  0.38998886204E+02 -0.90459308619E+02 -0.16230000403E+03  0.20584862872E+03  0.79552290977E+02 0.  0.
         -6    2    1    2    0  502  0.28531165783E+02  0.14767168473E+03 -0.66898531051E+03  0.70704107479E+03  0.17246675585E+03 0.  0.
        -24    2    5    5    0    0  0.16469135594E+02  0.15174253388E+02 -0.21587511810E+03  0.23477843775E+03  0.89539699699E+02 0.  0.
          5    1    3    3  501    0 -0.67530051987E+02 -0.57212376111E+02 -0.25367044292E+03  0.26870866661E+03  0.47000000000E+01 0. -1.
        -13    1    4    4    0    0  0.25952450995E+02 -0.73343935872E+02 -0.16662880941E+03  0.18389677204E+03  0.00000000000E+00 0.  1.
         14    1    4    4    0    0  0.13046435208E+02 -0.17115372748E+02  0.43288053805E+01  0.21951856686E+02  0.00000000000E+00 0. -1.
         -5    1    5    5    0  502  0.12062030189E+02  0.13249743134E+03 -0.45311019240E+03  0.47226263704E+03  0.47000000000E+01 0.  1.
         11    1    6    6    0    0 -0.13556176444E+02 -0.20831158337E+02 -0.15964581993E+03  0.16156885498E+03  0.00000000000E+00 0. -1.
        -12    1    6    6    0    0  0.30025312038E+02  0.36005411725E+02 -0.56229298173E+02  0.73209582771E+02  0.00000000000E+00 0.  1.
</event>
<event>
12    1  0.8684423E-002  0.1754898E+03  0.7818608E-02  0.1173637E+00
         21   -1    0    0  503  502  0.00000000000E+00  0.00000000000E+00  0.14689299162E+03  0.14689299162E+03  0.00000000000E+00 0. -1.
         21   -1    0    0  501  503 -0.00000000000E+00 -0.00000000000E+00 -0.28067409841E+03  0.28067409841E+03  0.00000000000E+00 0. -1.
          6    2    1    2  501    0 -0.19652636699E+02  0.19632396355E+02 -0.18000534652E+03  0.25139331897E+03  0.17327728913E+03 0.  0.
         24    2    3    3    0    0  0.35978123544E+02  0.21481982417E+02 -0.17469607416E+03  0.19528199367E+03  0.76553496214E+02 0.  0.
         -6    2    1    2    0  502  0.19652636699E+02 -0.19632396355E+02  0.46224239728E+02  0.17617377106E+03  0.16771660668E+03 0.  0.
        -24    2    5    5    0    0  0.61126063846E+02  0.20477705300E+02  0.26428428994E+01  0.10371486158E+03  0.81203791767E+02 0.  0.
          5    1    3    3  501    0 -0.55630760243E+02 -0.18495860615E+01 -0.53092723646E+01  0.56111325300E+02  0.47000000000E+01 0. -1.
        -13    1    4    4    0    0  0.16244920089E+02 -0.18518226348E+02 -0.13627760788E+02  0.28152051433E+02  0.00000000000E+00 0.  1.
         14    1    4    4    0    0  0.19733203455E+02  0.40000208765E+02 -0.16106831337E+03  0.16712994224E+03  0.00000000000E+00 0. -1.
         -5    1    5    5    0  502 -0.41473427146E+02 -0.40110101655E+02  0.43581396828E+02  0.72458909483E+02  0.47000000000E+01 0.  1.
         11    1    6    6    0    0  0.28181111555E+02 -0.18868423025E+02  0.30247929645E+02  0.45443697954E+02  0.00000000000E+00 0. -1.
        -12    1    6    6    0    0  0.32944952290E+02  0.39346128324E+02 -0.27605086746E+02  0.58271163621E+02  0.00000000000E+00 0.  1.
</event>
<event>
12    1  0.8684423E-002  0.2240345E+03  0.7818608E-02  0.1131427E+00
         21   -1    0    0  501  502  0.00000000000E+00  0.00000000000E+00  0.10817360811E+03  0.10817360811E+03  0.00000000000E+00 0.  1.
         21   -1    0    0  502  503 -0.00000000000E+00 -0.00000000000E+00 -0.84991010215E+03  0.84991010215E+03  0.00000000000E+00 0.  1.
         -6    2    1    2    0  503 -0.11093185963E+03 -0.90392006589E+02 -0.46910342057E+02  0.22889305766E+03  0.17237998525E+03 0.  0.
        -24    2    3    3    0    0  0.12566701420E+01 -0.47889359390E+02 -0.56257256250E+02  0.10846799367E+03  0.79406906545E+02 0.  0.
          6    2    1    2  501    0  0.11093185963E+03  0.90392006589E+02 -0.69482615198E+03  0.72919065260E+03  0.16869805579E+03 0.  0.
         24    2    5    5    0    0  0.42553354031E+02  0.63705492317E+02 -0.19605158820E+03  0.22502208402E+03  0.79558377118E+02 0.  0.
          5    1    5    5  501    0  0.68378505600E+02  0.26686514272E+02 -0.49877456377E+03  0.50416856858E+03  0.47000000000E+01 0. -1.
        -13    1    6    6    0    0  0.47355165419E+01  0.20271100796E+02 -0.14957497047E+03  0.15101660317E+03  0.00000000000E+00 0.  1.
         14    1    6    6    0    0  0.37817837489E+02  0.43434391521E+02 -0.46476617739E+02  0.74005480849E+02  0.00000000000E+00 0. -1.
         -5    1    3    3    0  503 -0.11218852977E+03 -0.42502647199E+02  0.93469141927E+01  0.12042506399E+03  0.47000000000E+01 0.  1.
         13    1    4    4    0    0  0.12097291107E+02 -0.13670639673E+02 -0.68229434253E+02  0.70629218739E+02  0.00000000000E+00 0. -1.
        -14    1    4    4    0    0 -0.10840620965E+02 -0.34218719718E+02  0.11972178003E+02  0.37838774929E+02  0.00000000000E+00 0.  1.
</event>
<event>
12    1  0.8684423E-002  0.1729710E+03  0.7818608E-02  0.1174907E+00
         21   -1    0    0  503  502  0.00000000000E+00  0.00000000000E+00  0.21864166223E+02  0.21864166223E+02  0.00000000000E+00 0.  1.
         21   -1    0    0  501  503 -0.00000000000E+00 -0.00000000000E+00 -0.14280997185E+04  0.14280997185E+04  0.00000000000E+00 0.  1.
          6    2    1    2  501    0 -0.21885973303E+02  0.69616033858E+01 -0.85503532989E+03  0.87226098086E+03  0.17095713971E+03 0.  0.
         24    2    3    3    0    0 -0.66591220773E+02  0.25513938802E+02 -0.73413084248E+03  0.74194316406E+03  0.80288312028E+02 0.  0.
         -6    2    1    2    0  502  0.21885973303E+02 -0.69616033858E+01 -0.55120022238E+03  0.57770290386E+03  0.17143949436E+03 0.  0.
        -24    2    5    5    0    0  0.28393690865E+02  0.90830185172E+01 -0.55322645388E+03  0.55964810134E+03  0.79106163811E+02 0.  0.
          5    1    3    3  501    0  0.44705247470E+02 -0.18552335417E+02 -0.12090448741E+03  0.13031781680E+03  0.47000000000E+01 0. -1.
        -11    1    4    4    0    0 -0.22046691745E+02  0.50076140469E+02 -0.31234368670E+03  0.31709975573E+03  0.00000000000E+00 0.  1.
         12    1    4    4    0    0 -0.44544529028E+02 -0.24562201667E+02 -0.42178715578E+03  0.42484340833E+03  0.00000000000E+00 0. -1.
         -5    1    5    5    0  502 -0.65077175619E+01 -0.16044621903E+02  0.20262315019E+01  0.18054802518E+02  0.47000000000E+01 0.  1.
         13    1    6    6    0    0  0.33258782076E+02  0.40468264412E+02 -0.31756162581E+03  0.32185278187E+03  0.00000000000E+00 0. -1.
        -14    1    6    6    0    0 -0.48650912111E+01 -0.31385245895E+02 -0.23566482807E+03  0.23779531947E+03  0.00000000000E+00 0.  1.
</event>
<event>
12    1  0.8684423E-002  0.2324229E+03  0.7818608E-02  0.1125031E+00
         21   -1    0    0  503  502  0.00000000000E+00  0.00000000000E+00  0.40273026692E+02  0.40273026692E+02  0.00000000000E+00 0. -1.
         21   -1    0    0  501  503 -0.00000000000E+00 -0.00000000000E+00 -0.13395646953E+04  0.13395646953E+04  0.00000000000E+00 0. -1.
          6    2    1    2  501    0  0.12834536642E+03  0.88692235021E+02 -0.66813139025E+03  0.70724295372E+03  0.17162224595E+03 0.  0.
         24    2    3    3    0    0  0.90942374983E+02  0.31944914655E+02 -0.59156496563E+03  0.60475515192E+03  0.80552418187E+02 0.  0.
         -6    2    1    2    0  502 -0.12834536642E+03 -0.88692235021E+02 -0.63116027838E+03  0.67259476830E+03  0.17228342841E+03 0.  0.
        -24    2    5    5    0    0 -0.58647563037E+02 -0.48173402304E+02 -0.14781875321E+03  0.18255326030E+03  0.75598252022E+02 0.  0.
          5    1    3    3  501    0  0.37402991435E+02  0.56747320367E+02 -0.76566424626E+02  0.10248780180E+03  0.47000000000E+01 0. -1.
        -13    1    4    4    0    0  0.22332420014E+02 -0.27047958237E+02 -0.15723945686E+03  0.16110423900E+03  0.00000000000E+00 0.  1.
         14    1    4    4    0    0  0.68609954969E+02  0.58992872892E+02 -0.43432550876E+03  0.44365091292E+03  0.00000000000E+00 0. -1.
         -5    1    5    5    0  502 -0.69697803381E+02 -0.40518832717E+02 -0.48334152517E+03  0.49004150800E+03  0.47000000000E+01 0.  1.
         13    1    6    6    0    0 -0.72875458499E+02 -0.49801701219E+02 -0.14178118003E+03  0.16701181068E+03  0.00000000000E+00 0. -1.
        -14    1    6    6    0    0  0.14227895462E+02  0.16282989150E+01 -0.60375731788E+01  0.15541449628E+02  0.00000000000E+00 0.  1.
</event>
<event>
12    1  0.8684423E-002  0.3176559E+03  0.7818608E-02  0.1076787E+00
         21   -1    0    0  503  502  0.00000000000E+00  0.00000000000E+00  0.78362665115E+03  0.78362665115E+03  0.00000000000E+00 0. -1.
         21   -1    0    0  501  503 -0.00000000000E+00 -0.00000000000E+00 -0.18310949610E+03  0.18310949610E+03  0.00000000000E+00 0.  1.
          6    2    1    2  501    0 -0.25723513176E+03 -0.70820890172E+02  0.36324898484E+02  0.31926555331E+03  0.17153857813E+03 0.  0.
         24    2    3    3    0    0 -0.13842074754E+03 -0.40525603570E+02 -0.45563201597E+02  0.17174466251E+03  0.81348607040E+02 0.  0.
         -6    2    1    2    0  502  0.25723513176E+03  0.70820890172E+02  0.56419225656E+03  0.64747059393E+03  0.17239418826E+03 0.  0.
        -24    2    5    5    0    0  0.24517841264E+03  0.12902955311E+02  0.46258800507E+03  0.52980426241E+03  0.80162046792E+02 0.  0.
          5    1    3    3  501    0 -0.11881438422E+03 -0.30295286602E+02  0.81888100081E+02  0.14752089080E+03  0.47000000000E+01 0. -1.
        -13    1    4    4    0    0 -0.12770501838E+03 -0.24661890186E+02 -0.88808275958E+01  0.13036736419E+03  0.00000000000E+00 0.  1.
         14    1    4    4    0    0 -0.10715729153E+02 -0.15863713384E+02 -0.36682374001E+02  0.41377298316E+02  0.00000000000E+00 0. -1.
         -5    1    5    5    0  502  0.12056719123E+02  0.57917934861E+02  0.10160425149E+03  0.11766633153E+03  0.47000000000E+01 0.  1.
         13    1    6    6    0    0  0.21387212942E+03 -0.12074312599E+01  0.43844070722E+03  0.48782476298E+03  0.00000000000E+00 0. -1.
        -14    1    6    6    0    0  0.31306283218E+02  0.14110386571E+02  0.24147297856E+02  0.41979499424E+02  0.00000000000E+00 0.  1.
</event>
<event>
12    1  0.8684423E-002  0.2684515E+03  0.7818608E-02  0.1102327E+00
         21   -1    0    0  501  502  0.00000000000E+00  0.00000000000E+00  0.88766205565E+02  0.88766205565E+02  0.00000000000E+00 0. -1.
         21   -1    0    0  502  503 -0.00000000000E+00 -0.00000000000E+00 -0.13165190729E+04  0.13165190729E+04  0.00000000000E+00 0.  1.
         -6    2    1    2    0  503  0.12010583947E+03  0.16671555498E+03 -0.10495551620E+04  0.10830732214E+04  0.17106161461E+03 0.  0.
        -24    2    3    3    0    0  0.61662145412E+02  0.93909433821E+02 -0.84059509848E+03  0.85415665411E+03  0.10179522701E+03 0.  0.
          6    2    1    2  501    0 -0.12010583947E+03 -0.16671555498E+03 -0.17819770536E+03  0.32221205704E+03  0.17276197081E+03 0.  0.
         24    2    5    5    0    0 -0.26913394961E+02 -0.41178243728E+02 -0.12634766096E+03  0.15742441996E+03  0.79992112019E+02 0.  0.
          5    1    5    5  501    0 -0.93192444512E+02 -0.12553731125E+03 -0.51850044400E+02  0.16478763708E+03  0.47000000000E+01 0. -1.
        -13    1    6    6    0    0 -0.23348222304E+02 -0.60444932103E+02 -0.60238173891E+02  0.88472407537E+02  0.00000000000E+00 0.  1.
         14    1    6    6    0    0 -0.35651726567E+01  0.19266688374E+02 -0.66109487065E+02  0.68952012421E+02  0.00000000000E+00 0. -1.
         -5    1    3    3    0  503  0.58443694061E+02  0.72806121154E+02 -0.20896006348E+03  0.22891656730E+03  0.47000000000E+01 0.  1.
         11    1    4    4    0    0  0.23451418038E+02  0.65318503420E+02 -0.19834967452E+03  0.21014059408E+03  0.00000000000E+00 0. -1.
        -12    1    4    4    0    0  0.38210727374E+02  0.28590930401E+02 -0.64224542396E+03  0.64401606004E+03  0.00000000000E+00 0.  1.
</event>
<event>
12    1  0.8684423E-002  0.2740583E+03  0.7818608E-02  0.1099007E+00
         21   -1    0    0  503  502  0.00000000000E+00  0.00000000000E+00  0.66226068209E+02  0.66226068209E+02  0.00000000000E+00 0.  1.
         21   -1    0    0  501  503 -0.00000000000E+00 -0.00000000000E+00 -0.11726447811E+04  0.11726447811E+04  0.00000000000E+00 0.  1.
          6    2    1    2  501    0 -0.85477732924E+02  0.19542594431E+03 -0.66649040267E+03  0.72056120379E+03  0.17175927633E+03 0.  0.
         24    2    3    3    0    0 -0.65979267354E+02  0.28474051728E+02 -0.31986302664E+03  0.33530057458E+03  0.70356834508E+02 0.  0.
         -6    2    1    2    0  502  0.85477732924E+02 -0.19542594431E+03 -0.43992831026E+03  0.51830964557E+03  0.17207622725E+03 0.  0.
        -24    2    5    5    0    0  0.12156477578E+03 -0.13685425465E+03 -0.30035413596E+03  0.36263062443E+03  0.88211569848E+02 0.  0.
          5    1    3    3  501    0 -0.19498465570E+02  0.16695189258E+03 -0.34662737604E+03  0.38526062920E+03  0.47000000000E+01 0. -1.
        -11    1    4    4    0    0 -0.27617596576E+02  0.46691676845E+02 -0.13230123329E+03  0.14299112090E+03  0.00000000000E+00 0.  1.
         12    1    4    4    0    0 -0.38361670778E+02 -0.18217625116E+02 -0.18756179335E+03  0.19230945368E+03  0.00000000000E+00 0. -1.
         -5    1    5    5    0  502 -0.36087042861E+02 -0.58571689658E+02 -0.13957417430E+03  0.15567902114E+03  0.47000000000E+01 0.  1.
         11    1    6    6    0    0  0.40594085214E+02 -0.14674198250E+02 -0.22957898051E+02  0.48890458492E+02  0.00000000000E+00 0. -1.
        -12    1    6    6    0    0  0.80970690571E+02 -0.12218005640E+03 -0.27739623791E+03  0.31374016594E+03  0.00000000000E+00 0.  1.
</event>
<event>
12    1  0.8684423E-002  0.1957945E+03  0.7818608E-02  0.1155514E+00
         21   -1    0    0  503  502  0.00000000000E+00  0.00000000000E+00  0.36531285777E+02  0.36531285777E+02  0.00000000000E+00 0.  1.
         21   -1    0    0  501  503 -0.00000000000E+00 -0.00000000000E+00 -0.18015197670E+04  0.18015197670E+04  0.00000000000E+00 0.  1.
          6    2    1    2  501    0 -0.44491842275E+02 -0.57973895630E+02 -0.15087844781E+04  0.15214355407E+04  0.18164527686E+03 0.  0.
         24    2    3    3    0    0  0.47796287063E+02 -0.36129767026E+02 -0.84681594435E+03  0.85269142340E+03  0.79972337816E+02 0.  0.
         -6    2    1    2    0  502  0.44491842275E+02  0.57973895630E+02 -0.25620400315E+03  0.31661551208E+03  0.17106839176E+03 0.  0.
        -24    2    5    5    0    0  0.28786548526E+02  0.84628994435E+02 -0.25859762905E+03  0.28523128055E+03  0.80581744696E+02 0.  0.
          5    1    3    3  501    0 -0.92288129338E+02 -0.21844128604E+02 -0.66196853374E+03  0.66874411731E+03  0.47000000000E+01 0. -1.
        -13    1    4    4    0    0  0.23487753466E+02 -0.32385713079E+02 -0.78700171944E+03  0.78801790295E+03  0.00000000000E+00 0.  1.
         14    1    4    4    0    0  0.24308533597E+02 -0.37440539467E+01 -0.59814224916E+02  0.64673520454E+02  0.00000000000E+00 0. -1.
         -5    1    5    5    0  502  0.15705293749E+02 -0.26655098805E+02  0.23936259012E+01  0.31384231534E+02  0.47000000000E+01 0.  1.
         11    1    6    6    0    0  0.13032496187E+02 -0.13769896669E+02 -0.61779551861E+02  0.64623285581E+02  0.00000000000E+00 0. -1.
        -12    1    6    6    0    0  0.15754052339E+02  0.98398891103E+02 -0.19681807719E+03  0.22060799497E+03  0.00000000000E+00 0.  1.
</event>
<event>
12    1  0.8684423E-002  0.2373463E+03  0.7818608E-02  0.1121819E+00
         21   -1    0    0  501  502  0.00000000000E+00  0.00000000000E+00  0.21440727984E+04  0.21440727984E+04  0.00000000000E+00 0.  1.
         21   -1    0    0  502  503 -0.00000000000E+00 -0.00000000000E+00 -0.29172399278E+02  0.29172399278E+02  0.00000000000E+00 0.  1.
         -6    2    1    2    0  503  0.85686336786E+02  0.13810156553E+03  0.70270217025E+03  0.74124061920E+03  0.17097697144E+03 0.  0.
        -24    2    3    3    0    0 -0.47639120396E+00  0.20128321758E+02  0.34185841931E+03  0.35191812494E+03  0.81079044924E+02 0.  0.
          6    2    1    2  501    0 -0.85686336786E+02 -0.13810156553E+03  0.14121982289E+04  0.14320045785E+04  0.17297133994E+03 0.  0.
         24    2    5    5    0    0 -0.12353290138E+03 -0.78935653099E+02  0.10595508476E+04  0.10724003055E+04  0.76832294514E+02 0.  0.
          5    1    5    5  501    0  0.37846564589E+02 -0.59165912427E+02  0.35264738125E+03  0.35960427298E+03  0.47000000000E+01 0. -1.
        -11    1    6    6    0    0 -0.48230606727E+02 -0.63953646917E+02  0.71073219297E+03  0.71523178796E+03  0.00000000000E+00 0.  1.
         12    1    6    6    0    0 -0.75302294648E+02 -0.14982006183E+02  0.34881865464E+03  0.35716851752E+03  0.00000000000E+00 0. -1.
         -5    1    3    3    0  503  0.86162727990E+02  0.11797324377E+03  0.36084375094E+03  0.38932249426E+03  0.47000000000E+01 0.  1.
         11    1    4    4    0    0 -0.34016750583E+02  0.15841732166E+02  0.26889304462E+03  0.27149874631E+03  0.00000000000E+00 0. -1.
        -12    1    4    4    0    0  0.33540359379E+02  0.42865895913E+01  0.72965374686E+02  0.80419378638E+02  0.00000000000E+00 0.  1.
</event>
<event>
12    1  0.8684423E-002  0.2627021E+03  0.7818608E-02  0.1105686E+00
         21   -1    0    0  501  502  0.00000000000E+00  0.00000000000E+00  0.20330527962E+03  0.20330527962E+03  0.00000000000E+00 0. -1.
         21   -1    0    0  502  503 -0.00000000000E+00 -0.00000000000E+00 -0.33938650153E+03  0.33938650153E+03  0.00000000000E+00 0. -1.
         -6    2    1    2    0  503 -0.19734695598E+03 -0.20281315426E+02 -0.51221700942E+02  0.26662381770E+03  0.17060904058E+03 0.  0.
        -24    2    3    3    0    0 -0.10228777640E+03 -0.38541795287E+02 -0.85505922120E+02  0.16382697646E+03  0.87061795951E+02 0.  0.
          6    2    1    2  501    0  0.19734695598E+03  0.20281315426E+02 -0.84859520976E+02  0.27606796345E+03  0.17220693758E+03 0.  0.
         24    2    5    5    0    0  0.24360062256E+02 -0.13408914376E+02 -0.42879950437E+02  0.94839181719E+02  0.79890979603E+02 0.  0.
          5    1    5    5  501    0  0.17298689372E+03  0.33690229802E+02 -0.41979570539E+02  0.18122878173E+03  0.47000000000E+01 0. -1.
        -13    1    6    6    0    0  0.31466867576E+02 -0.31270294494E+02  0.36327601367E+01  0.44510583224E+02  0.00000000000E+00 0.  1.
         14    1    6    6    0    0 -0.71068053199E+01  0.17861380118E+02 -0.46512710574E+02  0.50328598495E+02  0.00000000000E+00 0. -1.
         -5    1    3    3    0  503 -0.95059179582E+02  0.18260479861E+02  0.34284221178E+02  0.10279684124E+03  0.47000000000E+01 0.  1.
         11    1    4    4    0    0 -0.11680561334E+03 -0.25011471312E+02 -0.68554695482E+02  0.13772752549E+03  0.00000000000E+00 0. -1.
        -12    1    4    4    0    0  0.14517836944E+02 -0.13530323975E+02 -0.16951226638E+02  0.26099450970E+02  0.00000000000E+00 0.  1.
</event>
<event>
12    1  0.8684423E-002  0.2080143E+03  0.7818608E-02  0.1143220E+00
         21   -1    0    0  503  502  0.00000000000E+00  0.00000000000E+00  0.57664188378E+03  0.57664188378E+03  0.00000000000E+00 0. -1.
         21   -1    0    0  501  503 -0.00000000000E+00 -0.00000000000E+00 -0.11117456962E+03  0.11117456962E+03  0.00000000000E+00 0. -1.
          6    2    1    2  501    0  0.39543163238E+02 -0.10983873932E+03  0.36175416705E+02  0.21078239950E+03  0.17173336528E+03 0.  0.
         24    2    3    3    0    0 -0.17469350012E+02 -0.85003592424E+02 -0.28178953898E+02  0.12116774554E+03  0.79729418673E+02 0.  0.
         -6    2    1    2    0  502 -0.39543163238E+02  0.10983873932E+03  0.42929189745E+03  0.47703405390E+03  0.17216778138E+03 0.  0.
        -24    2    5    5    0    0 -0.44334635265E+02  0.13426273847E+02  0.30991403995E+03  0.32343885682E+03  0.80125883649E+02 0.  0.
          5    1    3    3  501    0  0.57012513250E+02 -0.24835146896E+02  0.64354370604E+02  0.89614653959E+02  0.47000000000E+01 0. -1.
        -11    1    4    4    0    0 -0.75891889668E+01  0.15312856932E+01  0.20131943094E+02  0.21569324463E+02  0.00000000000E+00 0.  1.
         12    1    4    4    0    0 -0.98801610453E+01 -0.86534878117E+02 -0.48310896992E+02  0.99598421078E+02  0.00000000000E+00 0. -1.
         -5    1    5    5    0  502  0.47914720271E+01  0.96412465473E+02  0.11937785751E+03  0.15359519708E+03  0.47000000000E+01 0.  1.
         11    1    6    6    0    0 -0.17524014688E+02  0.32223695647E+02  0.53049878004E+02  0.64496102271E+02  0.00000000000E+00 0. -1.
        -12    1    6    6    0    0 -0.26810620577E+02 -0.18797421800E+02  0.25686416194E+03  0.25894275455E+03  0.00000000000E+00 0.  1.
</event>
<event>
12    1  0.8684423E-002  0.1845436E+03  0.7818608E-02  0.1165126E+00
         21   -1    0    0  503  502  0.00000000000E+00  0.00000000000E+00  0.36919715680E+04  0.36919715680E+04  0.00000000000E+00 0. -1.
         21   -1    0    0  501  503 -0.00000000000E+00 -0.00000000000E+00 -0.89586169681E+01  0.89586169681E+01  0.00000000000E+00 0.  1.
          6    2    1    2  501    0 -0.45354570774E+02  0.36018140047E+02  0.16365627248E+04  0.16461759695E+04  0.16793875895E+03 0.  0.
         24    2    3    3    0    0 -0.70584360369E+02 -0.30591274848E+02  0.10596155926E+04  0.10648297389E+04  0.71827506969E+02 0.  0.
         -6    2    1    2    0  502  0.45354570774E+02 -0.36018140047E+02  0.20464502262E+04  0.20547542155E+04  0.17521990229E+03 0.  0.
        -24    2    5    5    0    0  0.41615419346E+02 -0.65962467402E+02  0.19598002909E+04  0.19628795983E+04  0.77435437154E+02 0.  0.
          5    1    3    3  501    0  0.25229789595E+02  0.66609414895E+02  0.57694713229E+03  0.58134623065E+03  0.47000000000E+01 0. -1.
        -11    1    4    4    0    0 -0.35609537622E+02 -0.32111760305E+01  0.15281460327E+03  0.15694156172E+03  0.00000000000E+00 0.  1.
         12    1    4    4    0    0 -0.34974822747E+02 -0.27380098817E+02  0.90680098928E+03  0.90788817715E+03  0.00000000000E+00 0. -1.
         -5    1    5    5    0  502  0.37391514280E+01  0.29944327355E+02  0.86649935298E+02  0.91874617176E+02  0.47000000000E+01 0.  1.
         13    1    6    6    0    0  0.54424131298E+01 -0.53019309267E+02  0.55481613277E+03  0.55737026131E+03  0.00000000000E+00 0. -1.
        -14    1    6    6    0    0  0.36173006216E+02 -0.12943158135E+02  0.14049841582E+04  0.14055093370E+04  0.00000000000E+00 0.  1.
</event>
<event>
12    1  0.8684423E-002  0.2855353E+03  0.7818608E-02  0.1092852E+00
         21   -1    0    0  503  502  0.00000000000E+00  0.00000000000E+00  0.79345763222E+02  0.79345763222E+02  0.00000000000E+00 0. -1.
         21   -1    0    0  501  503 -0.00000000000E+00 -0.00000000000E+00 -0.16177571918E+04  0.16177571918E+04  0.00000000000E+00 0.  1.
          6    2    1    2  501    0 -0.59719041315E+02  0.21940038508E+03 -0.12825311227E+04  0.13136904382E+04  0.17086132918E+03 0.  0.
         24    2    3    3    0    0 -0.63868975549E+02  0.23625418362E+03 -0.10789903516E+04  0.11093568678E+04  0.80976515108E+02 0.  0.
         -6    2    1    2    0  502  0.59719041315E+02 -0.21940038508E+03 -0.25588030589E+03  0.38341251686E+03  0.17270649747E+03 0.  0.
        -24    2    5    5    0    0  0.55459400836E+02 -0.23846805436E+03 -0.20621801144E+03  0.32983869826E+03  0.79529494745E+02 0.  0.
          5    1    3    3  501    0  0.41499342348E+01 -0.16853798546E+02 -0.20354077115E+03  0.20433357042E+03  0.47000000000E+01 0. -1.
        -11    1    4    4    0    0 -0.41334125479E+02  0.34785955951E+02 -0.18897303216E+03  0.19654358180E+03  0.00000000000E+00 0.  1.
         12    1    4    4    0    0 -0.22534850071E+02  0.20146822767E+03 -0.89001731941E+03  0.91281328599E+03  0.00000000000E+00 0. -1.
         -5    1    5    5    0  502  0.42596404786E+01  0.19067669283E+02 -0.49662294453E+02  0.53573818599E+02  0.47000000000E+01 0.  1.
         13    1    6    6    0    0  0.45426491026E+02 -0.75747426659E+02 -0.39819563784E+02  0.96885687242E+02  0.00000000000E+00 0. -1.
        -14    1    6    6    0    0  0.10032909810E+02 -0.16272062770E+03 -0.16639844766E+03  0.23295301102E+03  0.00000000000E+00 0.  1.
</event>
<event>
12    1  0.8684423E-002  0.1868205E+03  0.7818608E-02  0.1161447E+00
         21   -1    0    0  503  502  0.00000000000E+00  0.00000000000E+00  0.33766059465E+03  0.33766059465E+03  0.00000000000E+00 0.  1.
         21   -1    0    0  501  503 -0.00000000000E+00 -0.00000000000E+00 -0.11156696357E+03  0.11156696357E+03  0.00000000000E+00 0.  1.
          6    2    1    2  501    0  0.71761098645E+02  0.16709228227E+02  0.51273430935E+02  0.19336820713E+03  0.17127009436E+03 0.  0.
         24    2    3    3    0    0  0.28384086324E+02  0.43812222395E+02 -0.27255856058E+02  0.99532838495E+02  0.80241741393E+02 0.  0.
         -6    2    1    2    0  502 -0.71761098645E+02 -0.16709228227E+02  0.17482020015E+03  0.25585935109E+03  0.17167717255E+03 0.  0.
        -24    2    5    5    0    0 -0.66861032370E+02 -0.72949498342E+02  0.98823912958E+02  0.16107272599E+03  0.79913893201E+02 0.  0.
          5    1    3    3  501    0  0.43377012320E+02 -0.27102994168E+02  0.78529286993E+02  0.93835368632E+02  0.47000000000E+01 0. -1.
        -13    1    4    4    0    0 -0.47779270341E+01 -0.67449014533E+01  0.20746197929E+02  0.22332196731E+02  0.00000000000E+00 0.  1.
         14    1    4    4    0    0  0.33162013358E+02  0.50557123848E+02 -0.48002053987E+02  0.77200641764E+02  0.00000000000E+00 0. -1.
         -5    1    5    5    0  502 -0.49000662750E+01  0.56240270115E+02  0.75996287189E+02  0.94786625104E+02  0.47000000000E+01 0.  1.
         11    1    6    6    0    0 -0.52415069229E+02 -0.80701028391E+02  0.10601091312E+03  0.14317230586E+03  0.00000000000E+00 0. -1.
        -12    1    6    6    0    0 -0.14445963140E+02  0.77515300495E+01 -0.71870001644E+01  0.17900420121E+02  0.00000000000E+00 0.  1.
</event>
<event>
12    1  0.8684423E-002  0.1960977E+03  0.7818608E-02  0.1153391E+00
         21   -1    0    0  501  502  0.00000000000E+00  0.00000000000E+00  0.46599471826E+03  0.46599471826E+03  0.00000000000E+00 0.  1.
         21   -1    0    0  502  503 -0.00000000000E+00 -0.00000000000E+00 -0.85348775724E+02  0.85348775724E+02  0.00000000000E+00 0.  1.
         -6    2    1    2    0  503  0.81388924486E+02  0.44998097019E+02  0.13565021620E+03  0.23844347663E+03  0.17264218670E+03 0.  0.
        -24    2    3    3    0    0 -0.18044203377E+02 -0.70667967395E+01  0.36468034688E+02  0.88587228153E+02  0.78372485901E+02 0.  0.
          6    2    1    2  501    0 -0.81388924486E+02 -0.44998097019E+02  0.24499572633E+03  0.31290001735E+03  0.17098107840E+03 0.  0.
         24    2    5    5    0    0 -0.61351098829E+02 -0.87417539448E+02  0.22710155361E+03  0.26246971921E+03  0.76872975221E+02 0.  0.
          5    1    5    5  501    0 -0.20037825656E+02  0.42419442428E+02  0.17894172722E+02  0.50430298139E+02  0.47000000000E+01 0. -1.
        -11    1    6    6    0    0  0.50353744819E+00 -0.12217067527E+02  0.10773178108E+03  0.10842346122E+03  0.00000000000E+00 0.  1.
         12    1    6    6    0    0 -0.61854636277E+02 -0.75200471920E+02  0.11936977253E+03  0.15404625799E+03  0.00000000000E+00 0. -1.
         -5    1    3    3    0  503  0.99433127862E+02  0.52064893759E+02  0.99182181513E+02  0.14985624848E+03  0.47000000000E+01 0.  1.
         11    1    4    4    0    0 -0.35725291941E+02 -0.28017775070E+02  0.40545975705E+02  0.60870915469E+02  0.00000000000E+00 0. -1.
        -12    1    4    4    0    0  0.17681088564E+02  0.20950978331E+02 -0.40779410176E+01  0.27716312684E+02  0.00000000000E+00 0.  1.
</event>
<event>
12    1  0.8684423E-002  0.1850619E+03  0.7818608E-02  0.1163278E+00
         21   -1    0    0  501  502  0.00000000000E+00  0.00000000000E+00  0.42887480967E+03  0.42887480967E+03  0.00000000000E+00 0. -1.
         21   -1    0    0  502  503 -0.00000000000E+00 -0.00000000000E+00 -0.12779224960E+03  0.12779224960E+03  0.00000000000E+00 0. -1.
         -6    2    1    2    0  503 -0.62917252319E+02  0.37517836032E+02 -0.20551198686E+02  0.18619951951E+03  0.16994628751E+03 0.  0.
        -24    2    3    3    0    0 -0.26975327085E+02  0.17502969031E+02 -0.75400445508E+02  0.11747582078E+03  0.84150573910E+02 0.  0.
          6    2    1    2  501    0  0.62917252319E+02 -0.37517836032E+02  0.32163375875E+03  0.37046753976E+03  0.16861718355E+03 0.  0.
         24    2    5    5    0    0  0.45073803623E+02  0.40731353638E+02  0.14586535473E+03  0.17718550180E+03  0.80170502029E+02 0.  0.
          5    1    5    5  501    0  0.17843448695E+02 -0.78249189670E+02  0.17576840401E+03  0.19328203795E+03  0.47000000000E+01 0. -1.
        -11    1    6    6    0    0 -0.15802200465E+02  0.33784072254E+02  0.38742602260E+02  0.53777897946E+02  0.00000000000E+00 0.  1.
         12    1    6    6    0    0  0.60876004088E+02  0.69472813837E+01  0.10712275248E+03  0.12340760386E+03  0.00000000000E+00 0. -1.
         -5    1    3    3    0  503 -0.35941925234E+02  0.20014867001E+02  0.54849246822E+02  0.68723698733E+02  0.47000000000E+01 0.  1.
         13    1    4    4    0    0 -0.46319572538E+02 -0.13832574918E+02 -0.23269590018E+02  0.53649946399E+02  0.00000000000E+00 0. -1.
        -14    1    4    4    0    0  0.19344245453E+02  0.31335543949E+02 -0.52130855489E+02  0.63825874383E+02  0.00000000000E+00 0.  1.
</event>
<event>
12    1  0.8684423E-002  0.2472183E+03  0.7818608E-02  0.1115326E+00
         21   -1    0    0  501  502  0.00000000000E+00  0.00000000000E+00  0.11492069673E+03  0.11492069673E+03  0.00000000000E+00 0.  1.
         21   -1    0    0  502  503 -0.00000000000E+00 -0.00000000000E+00 -0.54158231446E+03  0.54158231446E+03  0.00000000000E+00 0.  1.
         -6    2    1    2    0  503 -0.15153131355E+03 -0.88946737917E+02 -0.26506860933E+03  0.36246140826E+03  0.17390699714E+03 0.  0.
        -24    2    3    3    0    0 -0.35596774440E+02  0.17243347549E+02 -0.10751085587E+03  0.13983237313E+03  0.80187561744E+02 0.  0.
          6    2    1    2  501    0  0.15153131355E+03  0.88946737917E+02 -0.16159300840E+03  0.29404160293E+03  0.17168256381E+03 0.  0.
         24    2    5    5    0    0  0.14985012423E+03  0.11304884965E+03 -0.99052754654E+02  0.22683214283E+03  0.80039182152E+02 0.  0.
          5    1    5    5  501    0  0.16811893199E+01 -0.24102111733E+02 -0.62540253750E+02  0.67209460097E+02  0.47000000000E+01 0. -1.
        -13    1    6    6    0    0  0.13786979422E+02  0.43404117775E+02 -0.46786992965E+02  0.65291813821E+02  0.00000000000E+00 0.  1.
         14    1    6    6    0    0  0.13606314481E+03  0.69644731875E+02 -0.52265761690E+02  0.16154032901E+03  0.00000000000E+00 0. -1.
         -5    1    3    3    0  503 -0.11593453911E+03 -0.10619008547E+03 -0.15755775346E+03  0.22262903513E+03  0.47000000000E+01 0.  1.
         13    1    4    4    0    0  0.57806683077E+01 -0.21305621805E+02 -0.48145587135E+01  0.22594814056E+02  0.00000000000E+00 0. -1.
        -14    1    4    4    0    0 -0.41377442748E+02  0.38548969355E+02 -0.10269629716E+03  0.11723755907E+03  0.00000000000E+00 0.  1.
</event>
<event>
12    1  0.8684423E-002  0.2928732E+03  0.7818608E-02  0.1088978E+00
         21   -1    0    0  501  502  0.00000000000E+00  0.00000000000E+00  0.10109955457E+03  0.10109955457E+03  0.00000000000E+00 0. -1.
         21   -1    0    0  502  503 -0.00000000000E+00 -0.00000000000E+00 -0.10880912882E+04  0.10880912882E+04  0.00000000000E+00 0.  1.
         -6    2    1    2    0  503  0.20487375484E+03 -0.11726613206E+03 -0.77472689428E+03  0.82823695488E+03  0.17334962231E+03 0.  0.
        -24    2    3    3    0    0  0.20459209656E+03 -0.72988759195E+02 -0.72733163799E+03  0.76320645897E+03  0.79293773103E+02 0.  0.
          6    2    1    2  501    0 -0.20487375484E+03  0.11726613206E+03 -0.21226483936E+03  0.36095388790E+03  0.17177527764E+03 0.  0.
         24    2    5    5    0    0 -0.19452333318E+03  0.95682636791E+02 -0.23359747511E+03  0.32854787234E+03  0.79883852604E+02 0.  0.
          5    1    5    5  501    0 -0.10350421665E+02  0.21583495267E+02  0.21332635748E+02  0.32406015561E+02  0.47000000000E+01 0. -1.
        -11    1    6    6    0    0 -0.57745651086E+02  0.26838908528E-01 -0.29348898518E+02  0.64775912065E+02  0.00000000000E+00 0.  1.
         12    1    6    6    0    0 -0.13677768209E+03  0.95655797883E+02 -0.20424857659E+03  0.26377196027E+03  0.00000000000E+00 0. -1.
         -5    1    3    3    0  503  0.28165828054E+00 -0.44277372864E+02 -0.47395256296E+02  0.65030495911E+02  0.47000000000E+01 0.  1.
         13    1    4    4    0    0  0.60594794497E+02 -0.48095536551E+02 -0.16562277610E+03  0.18279992811E+03  0.00000000000E+00 0. -1.
        -14    1    4    4    0    0  0.14399730207E+03 -0.24893222644E+02 -0.56170886189E+03  0.58040653086E+03  0.00000000000E+00 0.  1.
</event>
<event>
12    1  0.8684423E-002  0.2046395E+03  0.7818608E-02  0.1146194E+00
         21   -1    0    0  501  502  0.00000000000E+00  0.00000000000E+00  0.79460768250E+03  0.79460768250E+03  0.00000000000E+00 0. -1.
         21   -1    0    0  502  503 -0.00000000000E+00 -0.00000000000E+00 -0.68128359266E+02  0.68128359266E+02  0.00000000000E+00 0. -1.
         -6    2    1    2    0  503 -0.20921307573E+02 -0.10823112837E+03  0.15643573429E+03  0.25758391477E+03  0.17241129872E+03 0.  0.
        -24    2    3    3    0    0  0.12178783108E+02 -0.73132814326E+02  0.17452377732E+03  0.20584635634E+03  0.80108940090E+02 0.  0.
          6    2    1    2  501    0  0.20921307573E+02  0.10823112837E+03  0.57004358895E+03  0.60515212700E+03  0.17060986272E+03 0.  0.
         24    2    5    5    0    0  0.63830213735E+02  0.11652756601E+03  0.49520098689E+03  0.51835633109E+03  0.76264662452E+02 0.  0.
          5    1    5    5  501    0 -0.42908906162E+02 -0.82964376413E+01  0.74842602057E+02  0.86795795914E+02  0.47000000000E+01 0. -1.
        -13    1    6    6    0    0  0.29278277861E+02  0.18268973176E+01  0.15318010787E+03  0.15596377962E+03  0.00000000000E+00 0.  1.
         14    1    6    6    0    0  0.34551935874E+02  0.11470066869E+03  0.34202087902E+03  0.36239255147E+03  0.00000000000E+00 0. -1.
         -5    1    3    3    0  503 -0.33100090681E+02 -0.35098314040E+02 -0.18088043022E+02  0.51737558426E+02  0.47000000000E+01 0.  1.
         13    1    4    4    0    0 -0.27821495002E+02 -0.45440560873E+02  0.53940292830E+02  0.75818436723E+02  0.00000000000E+00 0. -1.
        -14    1    4    4    0    0  0.40000278110E+02 -0.27692253454E+02  0.12058348449E+03  0.13002791962E+03  0.00000000000E+00 0.  1.
</event>
<event>
12    1  0.8684423E-002  0.2533178E+03  0.7818608E-02  0.1111390E+00
         21   -1    0    0  501  502  0.00000000000E+00  0.00000000000E+00  0.28191738959E+03  0.28191738959E+03  0.00000000000E+00 0.  1.
         21   -1    0    0  502  503 -0.00000000000E+00 -0.00000000000E+00 -0.24105930695E+03  0.24105930695E+03  0.00000000000E+00 0.  1.
         -6    2    1    2    0  503  0.18382915874E+03 -0.18104027865E+02  0.84265381814E+02  0.26596678558E+03  0.17180442669E+03 0.  0.
        -24    2    3    3    0    0  0.10714317771E+03  0.56170034108E+02  0.64689987031E+02  0.15732672828E+03  0.77020593011E+02 0.  0.
          6    2    1    2  501    0 -0.18382915874E+03  0.18104027865E+02 -0.43407299175E+02  0.25700991097E+03  0.17334643142E+03 0.  0.
         24    2    5    5    0    0 -0.19829568801E+03 -0.11256855466E+02 -0.54698113605E+02  0.22206832500E+03  0.82912970391E+02 0.  0.
          5    1    5    5  501    0  0.14466529274E+02  0.29360883331E+02  0.11290814430E+02  0.34941585964E+02  0.47000000000E+01 0. -1.
        -11    1    6    6    0    0 -0.13028716503E+03 -0.95519678946E+01 -0.75555835227E+02  0.15091278839E+03  0.00000000000E+00 0.  1.
         12    1    6    6    0    0 -0.68008522983E+02 -0.17048875717E+01  0.20857721622E+02  0.71155536617E+02  0.00000000000E+00 0. -1.
         -5    1    3    3    0  503  0.76685981029E+02 -0.74274061973E+02  0.19575394783E+02  0.10864005730E+03  0.47000000000E+01 0.  1.
         11    1    4    4    0    0  0.10187522569E+03  0.40641023804E+02  0.22369569262E+02  0.11194039510E+03  0.00000000000E+00 0. -1.
        -12    1    4    4    0    0  0.52679520158E+01  0.15529010304E+02  0.42320417769E+02  0.45386333180E+02  0.00000000000E+00 0.  1.
</event>
<event>
12    1  0.8684423E-002  0.2911344E+03  0.7818608E-02  0.1089806E+00
         21   -1    0    0  501  502  0.00000000000E+00  0.00000000000E+00  0.45127894069E+03  0.45127894069E+03  0.00000000000E+00 0.  1.
         21   -1    0    0  502  503 -0.00000000000E+00 -0.00000000000E+00 -0.19172313746E+03  0.19172313746E+03  0.00000000000E+00 0.  1.
         -6    2    1    2    0  503  0.16317896354E+03 -0.16843306246E+03  0.82620493899E+02  0.30263075509E+03  0.17251712159E+03 0.  0.
        -24    2    3    3    0    0  0.12193379951E+03 -0.38744142720E+02  0.17175178021E+02  0.15154945635E+03  0.79393267475E+02 0.  0.
          6    2    1    2  501    0 -0.16317896354E+03  0.16843306246E+03  0.17693530933E+03  0.34037132306E+03  0.17189957301E+03 0.  0.
         24    2    5    5    0    0 -0.12745285083E+03  0.14219057396E+03  0.61059320315E+02  0.21621674939E+03  0.80987984373E+02 0.  0.
          5    1    5    5  501    0 -0.35726112701E+02  0.26242488507E+02  0.11587598901E+03  0.12415457366E+03  0.47000000000E+01 0. -1.
        -11    1    6    6    0    0 -0.69013632747E+02  0.19969770557E+02  0.18008604081E+02  0.74067422406E+02  0.00000000000E+00 0.  1.
         12    1    6    6    0    0 -0.58439218088E+02  0.12222080340E+03  0.43050716234E+02  0.14214932699E+03  0.00000000000E+00 0. -1.
         -5    1    3    3    0  503  0.41245164025E+02 -0.12968891974E+03  0.65445315878E+02  0.15108129874E+03  0.47000000000E+01 0.  1.
         11    1    4    4    0    0  0.23460709582E+02 -0.90320260597E+01  0.39001248869E+02  0.46401290954E+02  0.00000000000E+00 0. -1.
        -12    1    4    4    0    0  0.98473089929E+02 -0.29712116660E+02 -0.21826070848E+02  0.10514816539E+03  0.00000000000E+00 0.  1.
</event>
<event>
12    1  0.8684423E-002  0.2025539E+03  0.7818608E-02  0.1147636E+00
         21   -1    0    0  503  502  0.00000000000E+00  0.00000000000E+00  0.79643068449E+02  0.79643068449E+02  0.00000000000E+00 0. -1.
         21   -1    0    0  501  503 -0.00000000000E+00 -0.00000000000E+00 -0.88428521147E+03  0.88428521147E+03  0.00000000000E+00 0. -1.
          6    2    1    2  501    0  0.86081157350E+02  0.63474614010E+02 -0.71379586129E+03  0.74193478128E+03  0.17182460769E+03 0.  0.
         24    2    3    3    0    0  0.11461105854E+03  0.12468286013E+02 -0.44625476470E+03  0.46804442161E+03  0.81431644262E+02 0.  0.
         -6    2    1    2    0  502 -0.86081157350E+02 -0.63474614010E+02 -0.90846281735E+02  0.22199349864E+03  0.17201475012E+03 0.  0.
        -24    2    5    5    0    0 -0.94670517205E+02  0.13116016310E+02 -0.58216188050E+02  0.13816799674E+03  0.81035387697E+02 0.  0.
          5    1    3    3  501    0 -0.28529901187E+02  0.51006327996E+02 -0.26754109659E+03  0.27389035968E+03  0.47000000000E+01 0. -1.
        -13    1    4    4    0    0  0.91056662766E+01  0.18280627638E+02 -0.18920644435E+02  0.27840353644E+02  0.00000000000E+00 0.  1.
         14    1    4    4    0    0  0.10550539226E+03 -0.58123416246E+01 -0.42733412026E+03  0.44020406796E+03  0.00000000000E+00 0. -1.
         -5    1    5    5    0  502  0.85893598547E+01 -0.76590630320E+02 -0.32630093685E+02  0.83825501903E+02  0.47000000000E+01 0.  1.
         11    1    6    6    0    0 -0.26143983469E+02 -0.31431669611E+02 -0.63681326816E+01  0.41376452724E+02  0.00000000000E+00 0. -1.
        -12    1    6    6    0    0 -0.68526533735E+02  0.44547685921E+02 -0.51848055368E+02  0.96791544012E+02  0.00000000000E+00 0.  1.
</event>
<event>
12    1  0.8684423E-002  0.1896175E+03  0.7818608E-02  0.1161010E+00
         21   -1    0    0  501  502  0.00000000000E+00  0.00000000000E+00  0.81759013982E+02  0.81759013982E+02  0.00000000000E+00 0.  1.
         21   -1    0    0  502  503 -0.00000000000E+00 -0.00000000000E+00 -0.12873239009E+04  0.12873239009E+04  0.00000000000E+00 0. -1.
         -6    2    1    2    0  503 -0.55022124550E+02  0.29028485796E+01 -0.11602177656E+04  0.11741184493E+04  0.17150221149E+03 0.  0.
        -24    2    3    3    0    0  0.13499829291E+02 -0.37024011733E+02 -0.81239069545E+03  0.81733395820E+03  0.80642013410E+02 0.  0.
          6    2    1    2  501    0  0.55022124550E+02 -0.29028485796E+01 -0.45347121338E+02  0.19496446565E+03  0.18143572066E+03 0.  0.
         24    2    5    5    0    0  0.13316002274E+02 -0.19285449209E+02  0.44090564501E+02  0.94819671039E+02  0.80607367345E+02 0.  0.
          5    1    5    5  501    0  0.41706122276E+02  0.16382600629E+02 -0.89437685839E+02  0.10014479461E+03  0.47000000000E+01 0. -1.
        -13    1    6    6    0    0  0.40326719205E+02 -0.38746084775E+01  0.48737434410E+02  0.63376607558E+02  0.00000000000E+00 0.  1.
         14    1    6    6    0    0 -0.27010716931E+02 -0.15410840731E+02 -0.46468699081E+01  0.31443063482E+02  0.00000000000E+00 0. -1.
         -5    1    3    3    0  503 -0.68521953841E+02  0.39926860312E+02 -0.34782707015E+03  0.35678449106E+03  0.47000000000E+01 0.  1.
         13    1    4    4    0    0 -0.21129158069E+02  0.15726810783E+02 -0.27161164484E+03  0.27288579939E+03  0.00000000000E+00 0. -1.
        -14    1    4    4    0    0  0.34628987360E+02 -0.52750822516E+02 -0.54077905062E+03  0.54444815881E+03  0.00000000000E+00 0.  1.
</event>
<event>
12    1  0.8684423E-002  0.1862329E+03  0.7818608E-02  0.1162804E+00
         21   -1    0    0  503  502  0.00000000000E+00  0.00000000000E+00  0.87989901267E+03  0.87989901267E+03  0.00000000000E+00 0.  1.
         21   -1    0    0  501  503 -0.00000000000E+00 -0.00000000000E+00 -0.12851818415E+03  0.12851818415E+03  0.00000000000E+00 0.  1.
          6    2    1    2  501    0 -0.16412371239E+02 -0.69057707958E+02 -0.47211965415E+02  0.18839699394E+03  0.16800632336E+03 0.  0.
         24    2    3    3    0    0  0.43396694983E+02 -0.57948999401E+02 -0.63331114928E+02  0.12529037947E+03  0.80283805360E+02 0.  0.
         -6    2    1    2    0  502  0.16412371239E+02  0.69057707958E+02  0.79859279394E+03  0.82002020289E+03  0.17217534570E+03 0.  0.
        -24    2    5    5    0    0  0.77388215579E+02  0.46522219342E+02  0.46494083013E+03  0.48006193370E+03  0.78334104089E+02 0.  0.
          5    1    3    3  501    0 -0.59809066222E+02 -0.11108708557E+02  0.16119149512E+02  0.63106614464E+02  0.47000000000E+01 0. -1.
        -13    1    4    4    0    0  0.52668860178E+01 -0.60884922936E+02 -0.61953801338E+02  0.87022913244E+02  0.00000000000E+00 0.  1.
         14    1    4    4    0    0  0.38129808965E+02  0.29359235350E+01 -0.13773135896E+01  0.38267466227E+02  0.00000000000E+00 0. -1.
         -5    1    5    5    0  502 -0.60975844340E+02  0.22535488616E+02  0.33365196381E+03  0.33995826919E+03  0.47000000000E+01 0.  1.
         11    1    6    6    0    0  0.78508000980E+02  0.43341053235E+02  0.46737638817E+03  0.47590192407E+03  0.00000000000E+00 0. -1.
        -12    1    6    6    0    0 -0.11197854013E+01  0.31811661073E+01 -0.24355580419E+01  0.41600096301E+01  0.00000000000E+00 0.  1.
</event>
<event>
12    1  0.8684423E-002  0.2485343E+03  0.7818608E-02  0.1114978E+00
         21   -1    0    0  503  502  0.00000000000E+00  0.00000000000E+00  0.61095932249E+03  0.61095932249E+03  0.00000000000E+00 0.  1.
         21   -1    0    0  501  503 -0.00000000000E+00 -0.00000000000E+00 -0.16100567365E+03  0.16100567365E+03  0.00000000000E+00 0. -1.
          6    2    1    2  501    0  0.20567565922E+02  0.17983837416E+03 -0.15407378788E+02  0.24439492328E+03  0.16348279913E+03 0.  0.
         24    2    3    3    0    0 -0.49830038765E+01  0.17025147879E+03 -0.55027023692E+02  0.19605708672E+03  0.80000072256E+02 0.  0.
         -6    2    1    2    0  502 -0.20567565922E+02 -0.17983837416E+03  0.46536102762E+03  0.52757007287E+03  0.17030687057E+03 0.  0.
        -24    2    5    5    0    0 -0.67325035085E+02 -0.10412028638E+03  0.20386028728E+03  0.25130169440E+03  0.78865901973E+02 0.  0.
          5    1    3    3  501    0  0.25550569799E+02  0.95868953740E+01  0.39619644905E+02  0.48337836550E+02  0.47000000000E+01 0. -1.
        -13    1    4    4    0    0 -0.21240927020E+02  0.25673623128E+02 -0.36452293439E+02  0.49387059055E+02  0.00000000000E+00 0.  1.
         14    1    4    4    0    0  0.16257923143E+02  0.14457785566E+03 -0.18574730254E+02  0.14667002767E+03  0.00000000000E+00 0. -1.
         -5    1    5    5    0  502  0.46757469163E+02 -0.75718087786E+02  0.26150074034E+03  0.27626837847E+03  0.47000000000E+01 0.  1.
         11    1    6    6    0    0 -0.48404483281E+02 -0.11509173680E+03  0.17815706925E+03  0.21755239186E+03  0.00000000000E+00 0. -1.
        -12    1    6    6    0    0 -0.18920551804E+02  0.10971450418E+02  0.25703218033E+02  0.33749302542E+02  0.00000000000E+00 0.  1.
</event>
<event>
12    1  0.8684423E-002  0.1898057E+03  0.7818608E-02  0.1158650E+00
         21   -1    0    0  501  502  0.00000000000E+00  0.00000000000E+00  0.46186470667E+03  0.46186470667E+03  0.00000000000E+00 0. -1.
         21   -1    0    0  502  503 -0.00000000000E+00 -0.00000000000E+00 -0.77979292087E+02  0.77979292087E+02  0.00000000000E+00 0. -1.
         -6    2    1    2    0  503 -0.52811893585E+02 -0.60638646307E+02  0.19078143469E+03  0.26911663110E+03  0.17193040389E+03 0.  0.
        -24    2    3    3    0    0  0.33455898923E+02 -0.55719092572E+02  0.10642754880E+03  0.14826961170E+03  0.80206858562E+02 0.  0.
          6    2    1    2  501    0  0.52811893585E+02  0.60638646307E+02  0.19310397990E+03  0.27072736766E+03  0.17186628238E+03 0.  0.
         24    2    5    5    0    0 -0.16655419935E+01  0.12134691804E+02  0.21328474670E+02  0.84047591610E+02  0.80368333617E+02 0.  0.
          5    1    5    5  501    0  0.54477435579E+02  0.48503954503E+02  0.17177550523E+03  0.18667977605E+03  0.47000000000E+01 0. -1.
        -13    1    6    6    0    0 -0.29677856758E+02  0.13238091612E+01 -0.17872063049E+02  0.34668981671E+02  0.00000000000E+00 0.  1.
         14    1    6    6    0    0  0.28012314765E+02  0.10810882643E+02  0.39200537720E+02  0.49378609939E+02  0.00000000000E+00 0. -1.
         -5    1    3    3    0  503 -0.86267792509E+02 -0.49195537343E+01  0.84353885890E+02  0.12084701940E+03  0.47000000000E+01 0.  1.
         11    1    4    4    0    0  0.44980659767E+01 -0.26050579854E+01 -0.13216066878E+02  0.14201526268E+02  0.00000000000E+00 0. -1.
        -12    1    4    4    0    0  0.28957832947E+02 -0.53114034587E+02  0.11964361567E+03  0.13406808543E+03  0.00000000000E+00 0.  1.
</event>
<event>
12    1  0.8684423E-002  0.1758647E+03  0.7818608E-02  0.1173385E+00
         21   -1    0    0  501  502  0.00000000000E+00  0.00000000000E+00  0.15638350467E+03  0.15638350467E+03  0.00000000000E+00 0.  1.
         21   -1    0    0  502  503 -0.00000000000E+00 -0.00000000000E+00 -0.19388594670E+03  0.19388594670E+03  0.00000000000E+00 0.  1.
         -6    2    1    2    0  503 -0.23890860900E+02 -0.25678338129E+02 -0.39396649160E+02  0.17439456543E+03  0.16622640646E+03 0.  0.
        -24    2    3    3    0    0  0.10406082399E+02  0.48861268676E+02 -0.17979927450E+01  0.84016568850E+02  0.67526594286E+02 0.  0.
          6    2    1    2  501    0  0.23890860900E+02  0.25678338129E+02  0.18942071285E+01  0.17587488594E+03  0.17233176492E+03 0.  0.
         24    2    5    5    0    0  0.47997670240E+02  0.77043970311E+02  0.80324451629E+00  0.11892888849E+03  0.76836746451E+02 0.  0.
          5    1    5    5  501    0 -0.24106809340E+02 -0.51365632182E+02  0.10909626122E+01  0.56945997449E+02  0.47000000000E+01 0. -1.
        -11    1    6    6    0    0  0.64033619580E+02  0.65560263074E+02 -0.15986162545E+02  0.93026931175E+02  0.00000000000E+00 0.  1.
         12    1    6    6    0    0 -0.16035949340E+02  0.11483707238E+02  0.16789407061E+02  0.25901957313E+02  0.00000000000E+00 0. -1.
         -5    1    3    3    0  503 -0.34296943299E+02 -0.74539606805E+02 -0.37598656415E+02  0.90377996584E+02  0.47000000000E+01 0.  1.
         13    1    4    4    0    0  0.35423720000E+02  0.28599289016E+02 -0.16761930044E+02  0.48515168450E+02  0.00000000000E+00 0. -1.
        -14    1    4    4    0    0 -0.25017637602E+02  0.20261979660E+02  0.14963937299E+02  0.35501400400E+02  0.00000000000E+00 0.  1.
</event>
<event>
12    1  0.8684423E-002  0.1756390E+03  0.7818608E-02  0.1172521E+00
         21   -1    0    0  503  502  0.00000000000E+00  0.00000000000E+00  0.15648148998E+03  0.15648148998E+03  0.00000000000E+00 0.  1.
         21   -1    0    0  501  503 -0.00000000000E+00 -0.00000000000E+00 -0.21657692232E+03  0.21657692232E+03  0.00000000000E+00 0.  1.
          6    2    1    2  501    0  0.28792276805E+02 -0.77250328716E+00 -0.88476626176E+02  0.19514112538E+03  0.17152945365E+03 0.  0.
         24    2    3    3    0    0  0.51173701049E+02 -0.22646722321E+02  0.50914041860E+01  0.96366250457E+02  0.78287356065E+02 0.  0.
         -6    2    1    2    0  502 -0.28792276805E+02  0.77250328716E+00  0.28381193844E+02  0.17791728692E+03  0.17326129648E+03 0.  0.
        -24    2    5    5    0    0  0.41960330643E+02 -0.23443838005E+01 -0.19782606569E+02  0.92141485463E+02  0.79577235046E+02 0.  0.
          5    1    3    3  501    0 -0.22381424244E+02  0.21874219034E+02 -0.93568030362E+02  0.98774874920E+02  0.47000000000E+01 0. -1.
        -13    1    4    4    0    0  0.21709887364E+02 -0.28870176088E+02 -0.32230118821E+02  0.48410606647E+02  0.00000000000E+00 0.  1.
         14    1    4    4    0    0  0.29463813685E+02  0.62234537670E+01  0.37321523007E+02  0.47955643810E+02  0.00000000000E+00 0. -1.
         -5    1    5    5    0  502 -0.70752607448E+02  0.31168870877E+01  0.48163800413E+02  0.85775801460E+02  0.47000000000E+01 0.  1.
         11    1    6    6    0    0  0.18695242468E+02  0.35293554756E+02 -0.25709041941E+02  0.47498441404E+02  0.00000000000E+00 0. -1.
        -12    1    6    6    0    0  0.23265088175E+02 -0.37637938557E+02  0.59264353724E+01  0.44643044059E+02  0.00000000000E+00 0.  1.
</event>
<event>
12    1  0.8684423E-002  0.2156776E+03  0.7818608E-02  0.1137275E+00
         21   -1    0    0  501  502  0.00000000000E+00  0.00000000000E+00  0.31206584032E+03  0.31206584032E+03  0.00000000000E+00 0.  1.
         21   -1    0    0  502  503 -0.00000000000E+00 -0.00000000000E+00 -0.15864699758E+03  0.15864699758E+03  0.00000000000E+00 0. -1.
         -6    2    1    2    0  503 -0.12747223633E+03  0.23216153772E+02  0.17588922767E+02  0.21639359154E+03  0.17241999716E+03 0.  0.
        -24    2    3    3    0    0 -0.99123017033E+02  0.39791130403E+02  0.72981211556E+02  0.15182731750E+03  0.79476855346E+02 0.  0.
          6    2    1    2  501    0  0.12747223633E+03 -0.23216153772E+02  0.13582991998E+03  0.25431924636E+03  0.17158190778E+03 0.  0.
         24    2    5    5    0    0  0.15261693050E+03 -0.35370574004E+02  0.82796421286E+02  0.19419747361E+03  0.79463239285E+02 0.  0.
          5    1    5    5  501    0 -0.25144694164E+02  0.12154420231E+02  0.53033498695E+02  0.60121772758E+02  0.47000000000E+01 0. -1.
        -11    1    6    6    0    0  0.62865676340E+02  0.20334694810E+02  0.52251859227E+02  0.84236867626E+02  0.00000000000E+00 0.  1.
         12    1    6    6    0    0  0.89751254157E+02 -0.55705268814E+02  0.30544562059E+02  0.10996060598E+03  0.00000000000E+00 0. -1.
         -5    1    3    3    0  503 -0.28349219300E+02 -0.16574976631E+02 -0.55392288788E+02  0.64566274033E+02  0.47000000000E+01 0.  1.
         11    1    4    4    0    0 -0.57427220069E+02 -0.21571163046E+01 -0.53792735847E+00  0.57470236831E+02  0.00000000000E+00 0. -1.
        -12    1    4    4    0    0 -0.41695796964E+02  0.41948246708E+02  0.73519138914E+02  0.94357080672E+02  0.00000000000E+00 0.  1.
</event>
<event>
12    1  0.8684423E-002  0.2818404E+03  0.7818608E-02  0.1094982E+00
         21   -1    0    0  503  502  0.00000000000E+00  0.00000000000E+00  0.11474865362E+03  0.11474865362E+03  0.00000000000E+00 0. -1.
         21   -1    0    0  501  503 -0.00000000000E+00 -0.00000000000E+00 -0.69240649329E+03  0.69240649329E+03  0.00000000000E+00 0. -1.
          6    2    1    2  501    0  0.18107194041E+03 -0.12793113277E+03 -0.25184495155E+03  0.37635585357E+03  0.17048292160E+03 0.  0.
         24    2    3    3    0    0  0.19130812599E+03 -0.84992631392E+02 -0.24337284943E+03  0.33116336625E+03  0.81340548587E+02 0.  0.
         -6    2    1    2    0  502 -0.18107194041E+03  0.12793113277E+03 -0.32581288813E+03  0.43079929334E+03  0.17401313382E+03 0.  0.
        -24    2    5    5    0    0 -0.19911400049E+03  0.13992801064E+03 -0.31556704229E+03  0.40637577256E+03  0.79576862163E+02 0.  0.
          5    1    3    3  501    0 -0.10236185576E+02 -0.42938501377E+02 -0.84721021165E+01  0.45192487317E+02  0.47000000000E+01 0. -1.
        -11    1    4    4    0    0  0.33804212086E+02  0.10119663847E+02 -0.16205030796E+02  0.38829568298E+02  0.00000000000E+00 0.  1.
         12    1    4    4    0    0  0.15750391390E+03 -0.95112295239E+02 -0.22716781864E+03  0.29233379795E+03  0.00000000000E+00 0. -1.
         -5    1    5    5    0  502  0.18042060078E+02 -0.11996877871E+02 -0.10245845831E+02  0.24423520781E+02  0.47000000000E+01 0.  1.
         11    1    6    6    0    0 -0.12358645450E+03  0.11280631144E+03 -0.16094154603E+03  0.23216601146E+03  0.00000000000E+00 0. -1.
        -12    1    6    6    0    0 -0.75527545990E+02  0.27121699200E+02 -0.15462549626E+03  0.17420976111E+03  0.00000000000E+00 0.  1.
</event>
<event>
12    1  0.8684423E-002  0.1783228E+03  0.7818608E-02  0.1169476E+00
         21   -1    0    0  503  502  0.00000000000E+00  0.00000000000E+00  0.56484806121E+02  0.56484806121E+02  0.00000000000E+00 0. -1.
         21   -1    0    0  501  503 -0.00000000000E+00 -0.00000000000E+00 -0.58965228674E+03  0.58965228674E+03  0.00000000000E+00 0.  1.
          6    2    1    2  501    0  0.58879791854E+01 -0.47600213182E+02 -0.33608691550E+03  0.38046478440E+03  0.17175153219E+03 0.  0.
         24    2    3    3    0    0 -0.43875801033E+01 -0.97234915034E+02 -0.25647892574E+03  0.28597291819E+03  0.80778654547E+02 0.  0.
         -6    2    1    2    0  502 -0.58879791854E+01  0.47600213182E+02 -0.19708056512E+03  0.26567230845E+03  0.17158256828E+03 0.  0.
        -24    2    5    5    0    0  0.59098499284E+02  0.11572762203E+02 -0.14232683317E+03  0.17325325863E+03  0.78314767083E+02 0.  0.
          5    1    3    3  501    0  0.10275559289E+02  0.49634701852E+02 -0.79607989764E+02  0.94491866215E+02  0.47000000000E+01 0. -1.
        -11    1    4    4    0    0  0.25822085200E+02 -0.50894370932E+02 -0.64220200823E+02  0.85914208780E+02  0.00000000000E+00 0.  1.
         12    1    4    4    0    0 -0.30209665303E+02 -0.46340544102E+02 -0.19225872491E+03  0.20005870941E+03  0.00000000000E+00 0. -1.
         -5    1    5    5    0  502 -0.64986478470E+02  0.36027450979E+02 -0.54753731945E+02  0.92419049821E+02  0.47000000000E+01 0.  1.
         11    1    6    6    0    0  0.45898703379E+00  0.25911082972E+02 -0.99463331621E+01  0.27758321874E+02  0.00000000000E+00 0. -1.
        -12    1    6    6    0    0  0.58639512251E+02 -0.14338320769E+02 -0.13238050001E+03  0.14549493676E+03  0.00000000000E+00 0.  1.
</event>
<event>
12    1  0.8684423E-002  0.2131087E+03  0.7818608E-02  0.1139822E+00
         21   -1    0    0  503  502  0.00000000000E+00  0.00000000000E+00  0.10047375055E+03  0.10047375055E+03  0.00000000000E+00 0.  1.
         21   -1    0    0  501  503 -0.00000000000E+00 -0.00000000000E+00 -0.53594928936E+03  0.53594928936E+03  0.00000000000E+00 0. -1.
          6    2    1    2  501    0  0.88209282143E+02 -0.89027323700E+02 -0.34764579656E+03  0.40592490796E+03  0.16796037989E+03 0.  0.
         24    2    3    3    0    0  0.67580360326E+02 -0.10246563189E+03 -0.35135450524E+03  0.38058748381E+03  0.79564650793E+02 0.  0.
         -6    2    1    2    0  502 -0.88209282143E+02  0.89027323700E+02 -0.87829742247E+02  0.23049813195E+03  0.17236178053E+03 0.  0.
        -24    2    5    5    0    0 -0.45134926166E+02  0.86712427948E+02 -0.12185022059E+03  0.17535974394E+03  0.79670300708E+02 0.  0.
          5    1    3    3  501    0  0.20628921817E+02  0.13438308191E+02  0.37087086855E+01  0.25337424149E+02  0.47000000000E+01 0. -1.
        -11    1    4    4    0    0  0.21418148039E+02 -0.11003830739E+02 -0.13638884579E+02  0.27673823894E+02  0.00000000000E+00 0.  1.
         12    1    4    4    0    0  0.46162212287E+02 -0.91461801152E+02 -0.33771562067E+03  0.35291365991E+03  0.00000000000E+00 0. -1.
         -5    1    5    5    0  502 -0.43074355977E+02  0.23148957517E+01  0.34020478346E+02  0.55138388008E+02  0.47000000000E+01 0.  1.
         11    1    6    6    0    0 -0.56068491732E+02  0.77325625527E+02 -0.62171481161E+02  0.11396587734E+03  0.00000000000E+00 0. -1.
        -12    1    6    6    0    0  0.10933565566E+02  0.93868024212E+01 -0.59678739432E+02  0.61393866598E+02  0.00000000000E+00 0.  1.
</event>
<event>
12    1  0.8684423E-002  0.2686681E+03  0.7818608E-02  0.1102182E+00
         21   -1    0    0  501  502  0.00000000000E+00  0.00000000000E+00  0.44555965411E+03  0.44555965411E+03  0.00000000000E+00 0. -1.
         21   -1    0    0  502  503 -0.00000000000E+00 -0.00000000000E+00 -0.17946828882E+03  0.17946828882E+03  0.00000000000E+00 0.  1.
         -6    2    1    2    0  503  0.94235395132E+02  0.18393914923E+03  0.23191043034E+03  0.35419427545E+03  0.17016820132E+03 0.  0.
        -24    2    3    3    0    0  0.54574551143E+02  0.83936834076E+02  0.42522331354E+02  0.13633333902E+03  0.82187936566E+02 0.  0.
          6    2    1    2  501    0 -0.94235395132E+02 -0.18393914923E+03  0.34180934940E+02  0.27083366749E+03  0.17166426191E+03 0.  0.
         24    2    5    5    0    0 -0.13412808551E+01 -0.12518021555E+03  0.56183718370E+02  0.15863678147E+03  0.79606110477E+02 0.  0.
          5    1    5    5  501    0 -0.92894114277E+02 -0.58758933680E+02 -0.22002783429E+02  0.11219688602E+03  0.47000000000E+01 0. -1.
        -11    1    6    6    0    0 -0.31212560541E+02 -0.71287310613E+02  0.40550083761E+01  0.77926553131E+02  0.00000000000E+00 0.  1.
         12    1    6    6    0    0  0.29871279685E+02 -0.53892904934E+02  0.52128709993E+02  0.80710228335E+02  0.00000000000E+00 0. -1.
         -5    1    3    3    0  503  0.39660843989E+02  0.10000231515E+03  0.18938809899E+03  0.21786093643E+03  0.47000000000E+01 0.  1.
         13    1    4    4    0    0  0.31371269114E+02  0.19584237443E+02  0.55512093151E+02  0.66703008688E+02  0.00000000000E+00 0. -1.
        -14    1    4    4    0    0  0.23203282029E+02  0.64352596633E+02 -0.12989761797E+02  0.69630330331E+02  0.00000000000E+00 0.  1.
</event>
<event>
12    1  0.8684423E-002  0.2142077E+03  0.7818608E-02  0.1138366E+00
         21   -1    0    0  501  502  0.00000000000E+00  0.00000000000E+00  0.85385361656E+02  0.85385361656E+02  0.00000000000E+00 0. -1.
         21   -1    0    0  502  503 -0.00000000000E+00 -0.00000000000E+00 -0.61810886476E+03  0.61810886476E+03  0.00000000000E+00 0.  1.
         -6    2    1    2    0  503 -0.65326034008E+02  0.10828017777E+03 -0.13858810820E+03  0.25513053802E+03  0.17289545998E+03 0.  0.
        -24    2    3    3    0    0 -0.92659905415E+02  0.41970902905E+02 -0.44107224199E+02  0.13641748945E+03  0.79478735774E+02 0.  0.
          6    2    1    2  501    0  0.65326034008E+02 -0.10828017777E+03 -0.39413539490E+03  0.44836368839E+03  0.17232295244E+03 0.  0.
         24    2    5    5    0    0  0.47253416385E+02 -0.66162700096E+01 -0.27731281422E+03  0.29237723063E+03  0.79406471216E+02 0.  0.
          5    1    5    5  501    0  0.18072617623E+02 -0.10166390776E+03 -0.11682258069E+03  0.15598645777E+03  0.47000000000E+01 0. -1.
        -11    1    6    6    0    0 -0.79706293636E+01 -0.30851881434E+02 -0.82355136604E+02  0.88304801939E+02  0.00000000000E+00 0.  1.
         12    1    6    6    0    0  0.55224045749E+02  0.24235611425E+02 -0.19495767761E+03  0.20407242869E+03  0.00000000000E+00 0. -1.
         -5    1    3    3    0  503  0.27333871407E+02  0.66309274862E+02 -0.94480884003E+02  0.11871304857E+03  0.47000000000E+01 0.  1.
         11    1    4    4    0    0 -0.15969744005E+02  0.44045244433E+02  0.20295626038E+01  0.46894940080E+02  0.00000000000E+00 0. -1.
        -12    1    4    4    0    0 -0.76690161411E+02 -0.20743415284E+01 -0.46136786802E+02  0.89522549374E+02  0.00000000000E+00 0.  1.
</event>
<event>
12    1  0.8684423E-002  0.1990114E+03  0.7818608E-02  0.1150653E+00
         21   -1    0    0  503  502  0.00000000000E+00  0.00000000000E+00  0.13172108314E+03  0.13172108314E+03  0.00000000000E+00 0. -1.
         21   -1    0    0  501  503 -0.00000000000E+00 -0.00000000000E+00 -0.35122027727E+03  0.35122027727E+03  0.00000000000E+00 0. -1.
          6    2    1    2  501    0 -0.53208740324E+02 -0.85381156961E+02 -0.20176405312E+03  0.28314129840E+03  0.17128674705E+03 0.  0.
         24    2    3    3    0    0 -0.50505396819E+02 -0.93328965611E+02 -0.72835981993E+02  0.15385474360E+03  0.84291820031E+02 0.  0.
         -6    2    1    2    0  502  0.53208740324E+02  0.85381156961E+02 -0.17735141013E+02  0.19980006202E+03  0.17171027210E+03 0.  0.
        -24    2    5    5    0    0  0.22074544018E+01  0.46471236087E+01  0.38631751909E+02  0.88811630526E+02  0.79803664379E+02 0.  0.
          5    1    3    3  501    0 -0.27033435056E+01  0.79478086501E+01 -0.12892807113E+03  0.12928655480E+03  0.47000000000E+01 0. -1.
        -13    1    4    4    0    0  0.21673685517E+02 -0.13909127991E+02 -0.32663627792E+01  0.25959229788E+02  0.00000000000E+00 0.  1.
         14    1    4    4    0    0 -0.72179082336E+02 -0.79419837620E+02 -0.69569619214E+02  0.12789551381E+03  0.00000000000E+00 0. -1.
         -5    1    5    5    0  502  0.51001285923E+02  0.80734033352E+02 -0.56366892922E+02  0.11098843149E+03  0.47000000000E+01 0.  1.
         13    1    6    6    0    0  0.29893975267E+02  0.69503006597E+01  0.50101700581E+02  0.58754887776E+02  0.00000000000E+00 0. -1.
        -14    1    6    6    0    0 -0.27686520866E+02 -0.23031770510E+01 -0.11469948671E+02  0.30056742749E+02  0.00000000000E+00 0.  1.
</event>
<event>
12    1  0.8684423E-002  0.2146533E+03  0.7818608E-02  0.1138088E+00
         21   -1    0    0  501  502  0.00000000000E+00  0.00000000000E+00  0.68730547410E+02  0.68730547410E+02  0.00000000000E+00 0. -1.
         21   -1    0    0  502  503 -0.00000000000E+00 -0.00000000000E+00 -0.68326708713E+03  0.68326708713E+03  0.00000000000E+00 0.  1.
         -6    2    1    2    0  503  0.12382317733E+03 -0.10612135581E+02 -0.36423809291E+03  0.42278295358E+03  0.17501783009E+03 0.  0.
        -24    2    3    3    0    0  0.15880506995E+03 -0.21520724168E+01 -0.31167041709E+03  0.35890215818E+03  0.80303353613E+02 0.  0.
          6    2    1    2  501    0 -0.12382317733E+03  0.10612135581E+02 -0.25029844681E+03  0.32921468095E+03  0.17403504536E+03 0.  0.
         24    2    5    5    0    0 -0.30613163038E+02 -0.37907483344E+02 -0.17527375674E+03  0.20001307761E+03  0.83127602946E+02 0.  0.
          5    1    5    5  501    0 -0.93210014293E+02  0.48519618925E+02 -0.75024690075E+02  0.12920160334E+03  0.47000000000E+01 0. -1.
        -11    1    6    6    0    0  0.28575899150E+02 -0.11360190269E+02 -0.68365434677E+02  0.74963114888E+02  0.00000000000E+00 0.  1.
         12    1    6    6    0    0 -0.59189062188E+02 -0.26547293075E+02 -0.10690832206E+03  0.12504996272E+03  0.00000000000E+00 0. -1.
         -5    1    3    3    0  503 -0.34981892622E+02 -0.84600631642E+01 -0.52567675820E+02  0.63880795403E+02  0.47000000000E+01 0.  1.
         11    1    4    4    0    0  0.58300589025E+02 -0.28962059388E+01 -0.44343075122E+02  0.73305218100E+02  0.00000000000E+00 0. -1.
        -12    1    4    4    0    0  0.10050448093E+03  0.74413352195E+00 -0.26732734197E+03  0.28559694008E+03  0.00000000000E+00 0.  1.
</event>
<event>
12    1  0.8684423E-002  0.2294553E+03  0.7818608E-02  0.1127134E+00
         21   -1    0    0  501  502  0.00000000000E+00  0.00000000000E+00  0.23932078022E+03  0.23932078022E+03  0.00000000000E+00 0.  1.
         21   -1    0    0  502  503 -0.00000000000E+00 -0.00000000000E+00 -0.22618205491E+03  0.22618205491E+03  0.00000000000E+00 0.  1.
         -6    2    1    2    0  503 -0.48899061731E+02  0.14300289579E+03 -0.33739321362E+02  0.23130782646E+03  0.17182555786E+03 0.  0.
        -24    2    3    3    0    0 -0.39387853382E+02  0.90280129596E+02 -0.88358015618E+02  0.15465637558E+03  0.80059670192E+02 0.  0.
          6    2    1    2  501    0  0.48899061731E+02 -0.14300289579E+03  0.46878046676E+02  0.23419500867E+03  0.17265226435E+03 0.  0.
         24    2    5    5    0    0  0.67265063209E+02 -0.13332157705E+03 -0.15296555093E+02  0.16847736228E+03  0.76494479317E+02 0.  0.
          5    1    5    5  501    0 -0.18366001478E+02 -0.96813187335E+01  0.62174601769E+02  0.65717646396E+02  0.47000000000E+01 0. -1.
        -11    1    6    6    0    0  0.28254881105E+02 -0.82216673252E+02  0.27571875106E+02  0.91203771653E+02  0.00000000000E+00 0.  1.
         12    1    6    6    0    0  0.39010182104E+02 -0.51104903803E+02 -0.42868430199E+02  0.77273590626E+02  0.00000000000E+00 0. -1.
         -5    1    3    3    0  503 -0.95112083489E+01  0.52722766192E+02  0.54618694256E+02  0.76651450876E+02  0.47000000000E+01 0.  1.
         11    1    4    4    0    0  0.33526266821E+01 -0.12970702522E+02 -0.22566287597E+01  0.13585713192E+02  0.00000000000E+00 0. -1.
        -12    1    4    4    0    0 -0.42740480064E+02  0.10325083212E+03 -0.86101386858E+02  0.14107066239E+03  0.00000000000E+00 0.  1.
</event>
<event>
12    1  0.8684423E-002  0.2578007E+03  0.7818608E-02  0.1108684E+00
         21   -1    0    0  501  502  0.00000000000E+00  0.00000000000E+00  0.43145444351E+03  0.43145444351E+03  0.00000000000E+00 0.  1.
         21   -1    0    0  502  503 -0.00000000000E+00 -0.00000000000E+00 -0.21723878785E+03  0.21723878785E+03  0.00000000000E+00 0. -1.
         -6    2    1    2    0  503  0.16504088461E+03  0.98281074658E+02 -0.69186931538E+02  0.26557677975E+03  0.16984266606E+03 0.  0.
        -24    2    3    3    0    0  0.70162260244E+02  0.11705521133E+03 -0.58278498739E+02  0.16813189545E+03  0.79039772206E+02 0.  0.
          6    2    1    2  501    0 -0.16504088461E+03 -0.98281074658E+02  0.28340258720E+03  0.38311645162E+03  0.17194047179E+03 0.  0.
         24    2    5    5    0    0 -0.93654101679E+02 -0.12076694692E+03  0.23410274684E+03  0.29337096990E+03  0.88919534837E+02 0.  0.
          5    1    5    5  501    0 -0.71386782935E+02  0.22485872259E+02  0.49299840361E+02  0.89745481717E+02  0.47000000000E+01 0. -1.
        -13    1    6    6    0    0 -0.56655440651E+02 -0.25140410372E+02  0.14438215745E+03  0.15712443024E+03  0.00000000000E+00 0.  1.
         14    1    6    6    0    0 -0.36998661028E+02 -0.95626536544E+02  0.89720589389E+02  0.13624653966E+03  0.00000000000E+00 0. -1.
         -5    1    3    3    0  503  0.94878624370E+02 -0.18774136669E+02 -0.10908432799E+02  0.97444884300E+02  0.47000000000E+01 0.  1.
         11    1    4    4    0    0  0.44590380603E+02  0.83388545640E+02 -0.76950167627E+02  0.12191505192E+03  0.00000000000E+00 0. -1.
        -12    1    4    4    0    0  0.25571879640E+02  0.33666665686E+02  0.18671668888E+02  0.46216843530E+02  0.00000000000E+00 0.  1.
</event>
<event>
12    1  0.8684423E-002  0.1894804E+03  0.7818608E-02  0.1159113E+00
         21   -1    0    0  501  502  0.00000000000E+00  0.00000000000E+00  0.62989634461E+02  0.62989634461E+02  0.00000000000E+00 0. -1.
         21   -1    0    0  502  503 -0.00000000000E+00 -0.00000000000E+00 -0.62535896322E+03  0.62535896322E+03  0.00000000000E+00 0. -1.
         -6    2    1    2    0  503 -0.40838508795E+02  0.66752161872E+02 -0.17601315567E+03  0.25803022381E+03  0.17168380971E+03 0.  0.
        -24    2    3    3    0    0 -0.63978487165E+02  0.74766871421E+02 -0.62794006204E+02  0.14209765732E+03  0.81026693860E+02 0.  0.
          6    2    1    2  501    0  0.40838508795E+02 -0.66752161872E+02 -0.38635617309E+03  0.43031837387E+03  0.17256643790E+03 0.  0.
         24    2    5    5    0    0 -0.28611424705E+02  0.10971947339E+01 -0.23851826123E+03  0.25338627774E+03  0.80584287246E+02 0.  0.
          5    1    5    5  501    0  0.69449933500E+02 -0.67849356606E+02 -0.14783791186E+03  0.17693209612E+03  0.47000000000E+01 0. -1.
        -13    1    6    6    0    0  0.94837920488E+01  0.26970940994E+02 -0.37470691977E+02  0.47132013823E+02  0.00000000000E+00 0.  1.
         14    1    6    6    0    0 -0.38095216754E+02 -0.25873746260E+02 -0.20104756925E+03  0.20625426392E+03  0.00000000000E+00 0. -1.
         -5    1    3    3    0  503  0.23139978370E+02 -0.80147095491E+01 -0.11321914947E+03  0.11593256650E+03  0.47000000000E+01 0.  1.
         11    1    4    4    0    0 -0.47936178484E+01  0.64174911700E+02 -0.47707269686E+02  0.80108561619E+02  0.00000000000E+00 0. -1.
        -12    1    4    4    0    0 -0.59184869317E+02  0.10591959722E+02 -0.15086736518E+02  0.61989095699E+02  0.00000000000E+00 0.  1.
</event>
<event>
12    1  0.8684423E-002  0.2317791E+03  0.7818608E-02  0.1125466E+00
         21   -1    0    0  501  502  0.00000000000E+00  0.00000000000E+00  0.72942218800E+02  0.72942218800E+02  0.00000000000E+00 0. -1.
         21   -1    0    0  502  503 -0.00000000000E+00 -0.00000000000E+00 -0.98367912572E+03  0.98367912572E+03  0.00000000000E+00 0. -1.
         -6    2    1    2    0  503  0.38968028040E+02 -0.14977668451E+03 -0.72120977589E+03  0.75753882859E+03  0.17253977384E+03 0.  0.
        -24    2    3    3    0    0  0.62553780378E+02 -0.25855055339E+02 -0.31980588376E+03  0.33675380925E+03  0.80906522778E+02 0.  0.
          6    2    1    2  501    0 -0.38968028040E+02  0.14977668451E+03 -0.18952713103E+03  0.29908251593E+03  0.17198330007E+03 0.  0.
         24    2    5    5    0    0  0.51804036423E+01  0.17409123229E+02 -0.11523375205E+03  0.14093115975E+03  0.79075027807E+02 0.  0.
          5    1    5    5  501    0 -0.44148431683E+02  0.13236756129E+03 -0.74293378979E+02  0.15815135618E+03  0.47000000000E+01 0. -1.
        -11    1    6    6    0    0 -0.22954441076E+02  0.96878431854E+01 -0.10804900666E+03  0.11088439255E+03  0.00000000000E+00 0.  1.
         12    1    6    6    0    0  0.28134844718E+02  0.77212800438E+01 -0.71847453930E+01  0.30046767201E+02  0.00000000000E+00 0. -1.
         -5    1    3    3    0  503 -0.23585752338E+02 -0.12392162918E+03 -0.40140389213E+03  0.42078501934E+03  0.47000000000E+01 0.  1.
         11    1    4    4    0    0  0.52423895398E+02 -0.42780979549E+02 -0.30410631073E+03  0.31154313545E+03  0.00000000000E+00 0. -1.
        -12    1    4    4    0    0  0.10129884980E+02  0.16925924210E+02 -0.15699573037E+02  0.25210673803E+02  0.00000000000E+00 0.  1.
</event>
<event>
12    1  0.8684423E-002  0.2044203E+03  0.7818608E-02  0.1146143E+00
         21   -1    0    0  501  502  0.00000000000E+00  0.00000000000E+00  0.14192063333E+04  0.14192063333E+04  0.00000000000E+00 0.  1.
         21   -1    0    0  502  503 -0.00000000000E+00 -0.00000000000E+00 -0.29390784884E+02  0.29390784884E+02  0.00000000000E+00 0.  1.
         -6    2    1    2    0  503 -0.10442161432E+03 -0.35322174907E+02  0.70118862151E+03  0.73026940586E+03  0.17168690291E+03 0.  0.
        -24    2    3    3    0    0 -0.11111292725E+03 -0.61208342647E+02  0.38232652310E+03  0.41025378882E+03  0.77730670695E+02 0.  0.
          6    2    1    2  501    0  0.10442161432E+03  0.35322174907E+02  0.68862692686E+03  0.71832771227E+03  0.17215146890E+03 0.  0.
         24    2    5    5    0    0  0.13797531907E+03  0.43257090946E+02  0.52511517182E+03  0.55115415565E+03  0.84359913672E+02 0.  0.
          5    1    5    5  501    0 -0.33553704745E+02 -0.79349160382E+01  0.16351175505E+03  0.16717355662E+03  0.47000000000E+01 0. -1.
        -13    1    6    6    0    0  0.10726674548E+02 -0.12181011408E+02  0.15535843037E+03  0.15620397073E+03  0.00000000000E+00 0.  1.
         14    1    6    6    0    0  0.12724864452E+03  0.55438102354E+02  0.36975674145E+03  0.39495018492E+03  0.00000000000E+00 0. -1.
         -5    1    3    3    0  503  0.66913129241E+01  0.25886167739E+02  0.31886209841E+03  0.32001561704E+03  0.47000000000E+01 0.  1.
         11    1    4    4    0    0  0.18381325985E+01 -0.13078369805E+02  0.11877211817E+03  0.11950413609E+03  0.00000000000E+00 0. -1.
        -12    1    4    4    0    0 -0.11295105984E+03 -0.48129972842E+02  0.26355440493E+03  0.29074965273E+03  0.00000000000E+00 0.  1.
</event>
<event>
12    1  0.8684423E-002  0.2386184E+03  0.7818608E-02  0.1121359E+00
         21   -1    0    0  503  502  0.00000000000E+00  0.00000000000E+00  0.13577002315E+03  0.13577002315E+03  0.00000000000E+00 0. -1.
         21   -1    0    0  501  503 -0.00000000000E+00 -0.00000000000E+00 -0.41284296753E+03  0.41284296753E+03  0.00000000000E+00 0.  1.
          6    2    1    2  501    0  0.16629466475E+03 -0.23706355149E+02 -0.13291702700E+03  0.26983048897E+03  0.16409037118E+03 0.  0.
         24    2    3    3    0    0  0.10960798513E+03 -0.33157272646E+02 -0.18177069274E+02  0.14141690952E+03  0.80963086142E+02 0.  0.
         -6    2    1    2    0  502 -0.16629466475E+03  0.23706355149E+02 -0.14415591737E+03  0.27878250170E+03  0.16947816362E+03 0.  0.
        -24    2    5    5    0    0 -0.18897003767E+03  0.37773082042E+02 -0.14041187084E+03  0.25143011191E+03  0.79781745017E+02 0.  0.
          5    1    3    3  501    0  0.56686679620E+02  0.94509174973E+01 -0.11473995773E+03  0.12841357945E+03  0.47000000000E+01 0. -1.
        -13    1    4    4    0    0 -0.18287763136E+00 -0.11647893367E+02 -0.26784633801E+02  0.29208277456E+02  0.00000000000E+00 0.  1.
         14    1    4    4    0    0  0.10979086276E+03 -0.21509379279E+02  0.86075645269E+01  0.11220863207E+03  0.00000000000E+00 0. -1.
         -5    1    5    5    0  502  0.22675372925E+02 -0.14066726893E+02 -0.37440465362E+01  0.27352389790E+02  0.47000000000E+01 0.  1.
         13    1    6    6    0    0 -0.11274162832E+03  0.57307274129E+02 -0.63993494711E+02  0.14173907644E+03  0.00000000000E+00 0. -1.
        -14    1    6    6    0    0 -0.76228409354E+02 -0.19534192088E+02 -0.76418376125E+02  0.10969103547E+03  0.00000000000E+00 0.  1.
</event>
<event>
12    1  0.8684423E-002  0.1935745E+03  0.7818608E-02  0.1156574E+00
         21   -1    0    0  503  502  0.00000000000E+00  0.00000000000E+00  0.19904140975E+04  0.19904140975E+04  0.00000000000E+00 0. -1.
         21   -1    0    0  501  503 -0.00000000000E+00 -0.00000000000E+00 -0.19250890014E+02  0.19250890014E+02  0.00000000000E+00 0. -1.
          6    2    1    2  501    0 -0.21397963925E+02  0.76166240523E+02  0.74408312464E+03  0.76741034248E+03  0.17029318342E+03 0.  0.
         24    2    3    3    0    0  0.13854786032E+02 -0.10677605278E+02  0.19659953780E+03  0.21194209155E+03  0.77214671903E+02 0.  0.
         -6    2    1    2    0  502  0.21397963925E+02 -0.76166240523E+02  0.12270800828E+04  0.12422546450E+04  0.17666891162E+03 0.  0.
        -24    2    5    5    0    0 -0.51925066527E+02 -0.59645817254E+02  0.59316048491E+03  0.60387753249E+03  0.81085617280E+02 0.  0.
          5    1    3    3  501    0 -0.35252749957E+02  0.86843845801E+02  0.54748358684E+03  0.55546825093E+03  0.47000000000E+01 0. -1.
        -11    1    4    4    0    0  0.23432104498E+02 -0.16150916956E+02  0.19868745156E+03  0.20071526859E+03  0.00000000000E+00 0.  1.
         12    1    4    4    0    0 -0.95773184661E+01  0.54733116771E+01 -0.20879137635E+01  0.11226822952E+02  0.00000000000E+00 0. -1.
         -5    1    5    5    0  502  0.73323030452E+02 -0.16520423269E+02  0.63391959793E+03  0.63837711254E+03  0.47000000000E+01 0.  1.
         13    1    6    6    0    0 -0.31597418293E+02 -0.31672116223E+01  0.40792534660E+03  0.40915952448E+03  0.00000000000E+00 0. -1.
        -14    1    6    6    0    0 -0.20327648234E+02 -0.56478605632E+02  0.18523513831E+03  0.19471800800E+03  0.00000000000E+00 0.  1.
</event>
<event>
12    1  0.8684423E-002  0.2438520E+03  0.7818608E-02  0.1117301E+00
         21   -1    0    0  501  502  0.00000000000E+00  0.00000000000E+00  0.25514261416E+03  0.25514261416E+03  0.00000000000E+00 0.  1.
         21   -1    0    0  502  503 -0.00000000000E+00 -0.00000000000E+00 -0.28395020897E+03  0.28395020897E+03  0.00000000000E+00 0.  1.
         -6    2    1    2    0  503  0.16009078893E+03 -0.64959553134E+02 -0.12883730576E+03  0.27579498316E+03  0.17209014248E+03 0.  0.
        -24    2    3    3    0    0  0.74546365898E+02  0.14004785143E+02 -0.11529385088E+03  0.15849736937E+03  0.77945169004E+02 0.  0.
          6    2    1    2  501    0 -0.16009078893E+03  0.64959553134E+02  0.10002971095E+03  0.26329783997E+03  0.17167121255E+03 0.  0.
         24    2    5    5    0    0 -0.10381957427E+03  0.75693899144E+02  0.55888267418E+01  0.15274085741E+03  0.82404272761E+02 0.  0.
          5    1    5    5  501    0 -0.56271214660E+02 -0.10734346010E+02  0.94440884206E+02  0.11055698256E+03  0.47000000000E+01 0. -1.
        -13    1    6    6    0    0 -0.91385809714E+02  0.88558053121E+02  0.21184745137E+02  0.12900654408E+03  0.00000000000E+00 0.  1.
         14    1    6    6    0    0 -0.12433764555E+02 -0.12864153977E+02 -0.15595918396E+02  0.23734313328E+02  0.00000000000E+00 0. -1.
         -5    1    3    3    0  503  0.85544423030E+02 -0.78964338277E+02 -0.13543454875E+02  0.11729761379E+03  0.47000000000E+01 0.  1.
         13    1    4    4    0    0  0.29336666440E+02  0.21435758862E+02 -0.21132562525E+01  0.36395021744E+02  0.00000000000E+00 0. -1.
        -14    1    4    4    0    0  0.45209699459E+02 -0.74309737190E+01 -0.11318059463E+03  0.12210234763E+03  0.00000000000E+00 0.  1.
</event>
<event>
12    1  0.8684423E-002  0.2496540E+03  0.7818608E-02  0.1113561E+00
         21   -1    0    0  501  502  0.00000000000E+00  0.00000000000E+00  0.49440070336E+03  0.49440070336E+03  0.00000000000E+00 0. -1.
         21   -1    0    0  502  503 -0.00000000000E+00 -0.00000000000E+00 -0.13297954449E+03  0.13297954449E+03  0.00000000000E+00 0. -1.
         -6    2    1    2    0  503 -0.16923335521E+03  0.63595846421E+02  0.10849896794E+03  0.27199768900E+03  0.17183235020E+03 0.  0.
        -24    2    3    3    0    0 -0.83403826647E+02  0.85291479504E+02  0.16756146133E+02  0.14441930594E+03  0.79657596756E+02 0.  0.
          6    2    1    2  501    0  0.16923335521E+03 -0.63595846421E+02  0.25292219092E+03  0.35538255886E+03  0.17217075327E+03 0.  0.
         24    2    5    5    0    0  0.95022419315E+02 -0.87240113051E+02  0.88028432311E+02  0.17295899684E+03  0.74335134325E+02 0.  0.
          5    1    5    5  501    0  0.74210935893E+02  0.23644266630E+02  0.16489375861E+03  0.18242356202E+03  0.47000000000E+01 0. -1.
        -11    1    6    6    0    0 -0.11076724383E+02 -0.71667218883E+01 -0.58452563333E+00  0.13205960620E+02  0.00000000000E+00 0.  1.
         12    1    6    6    0    0  0.10609914370E+03 -0.80073391162E+02  0.88612957944E+02  0.15975303622E+03  0.00000000000E+00 0. -1.
         -5    1    3    3    0  503 -0.85829528562E+02 -0.21695633084E+02  0.91742821810E+02  0.12757838305E+03  0.47000000000E+01 0.  1.
         13    1    4    4    0    0 -0.27025194251E+02 -0.96847975601E+00 -0.21447866772E+02  0.34515359863E+02  0.00000000000E+00 0. -1.
        -14    1    4    4    0    0 -0.56378632396E+02  0.86259959260E+02  0.38204012905E+02  0.10990394608E+03  0.00000000000E+00 0.  1.
</event>
<event>
12    1  0.8684423E-002  0.2383910E+03  0.7818608E-02  0.1121217E+00
         21   -1    0    0  503  502  0.00000000000E+00  0.00000000000E+00  0.65305058552E+02  0.65305058552E+02  0.00000000000E+00 0.  1.
         21   -1    0    0  501  503 -0.00000000000E+00 -0.00000000000E+00 -0.92219299505E+03  0.92219299505E+03  0.00000000000E+00 0. -1.
          6    2    1    2  501    0 -0.57227174775E+02 -0.15138407652E+03 -0.30132637131E+03  0.38294954001E+03  0.17222276270E+03 0.  0.
         24    2    3    3    0    0 -0.67450808220E+02 -0.10946832757E+03 -0.30708510471E+03  0.33916934242E+03  0.64820174564E+02 0.  0.
         -6    2    1    2    0  502  0.57227174775E+02  0.15138407652E+03 -0.55556156519E+03  0.60454851359E+03  0.17503760857E+03 0.  0.
        -24    2    5    5    0    0 -0.12395001165E+02  0.47686585787E+02 -0.11716031343E+03  0.14867773748E+03  0.77141973414E+02 0.  0.
          5    1    3    3  501    0  0.10223633445E+02 -0.41915748950E+02  0.57587334002E+01  0.43780197593E+02  0.47000000000E+01 0. -1.
        -11    1    4    4    0    0 -0.67653279458E+02 -0.83218072154E+02 -0.18106543394E+03  0.21044454167E+03  0.00000000000E+00 0.  1.
         12    1    4    4    0    0  0.20247123754E+00 -0.26250255415E+02 -0.12601967078E+03  0.12872480074E+03  0.00000000000E+00 0. -1.
         -5    1    5    5    0  502  0.69622175940E+02  0.10369749073E+03 -0.43840125176E+03  0.45587077611E+03  0.47000000000E+01 0.  1.
         11    1    6    6    0    0 -0.57490445384E+01  0.24758574643E+02 -0.12174476962E+03  0.12436972084E+03  0.00000000000E+00 0. -1.
        -12    1    6    6    0    0 -0.66459566264E+01  0.22928011143E+02  0.45844561935E+01  0.24308016642E+02  0.00000000000E+00 0.  1.
</event>
<event>
12    1  0.8684423E-002  0.1951227E+03  0.7818608E-02  0.1155871E+00
         21   -1    0    0  503  502  0.00000000000E+00  0.00000000000E+00  0.42843759469E+03  0.42843759469E+03  0.00000000000E+00 0. -1.
         21   -1    0    0  501  503 -0.00000000000E+00 -0.00000000000E+00 -0.88407297539E+02  0.88407297539E+02  0.00000000000E+00 0. -1.
          6    2    1    2  501    0  0.25146368266E+02 -0.90122000001E+02  0.21751983265E+03  0.28645029314E+03  0.16119732667E+03 0.  0.
         24    2    3    3    0    0  0.38658873296E+02 -0.42900604036E+01  0.15550871584E+03  0.17959909635E+03  0.80993589910E+02 0.  0.
         -6    2    1    2    0  502 -0.25146368266E+02  0.90122000001E+02  0.12251046451E+03  0.23039459909E+03  0.17122658279E+03 0.  0.
        -24    2    5    5    0    0  0.45751733996E+02  0.79919412452E+02  0.62106500620E+02  0.13657902176E+03  0.79475015660E+02 0.  0.
          5    1    3    3  501    0 -0.13512505030E+02 -0.85831939598E+02  0.62011116806E+02  0.10685119679E+03  0.47000000000E+01 0. -1.
        -11    1    4    4    0    0  0.39669376610E+02  0.11601195712E+02  0.15814703458E+03  0.16345865449E+03  0.00000000000E+00 0.  1.
         12    1    4    4    0    0 -0.10105033138E+01 -0.15891256115E+02 -0.26383187349E+01  0.16140441866E+02  0.00000000000E+00 0. -1.
         -5    1    5    5    0  502 -0.70898102262E+02  0.10202587549E+02  0.60403963886E+02  0.93815577332E+02  0.47000000000E+01 0.  1.
         13    1    6    6    0    0 -0.15800491497E+02  0.43580697745E+02  0.82567811220E+01  0.47086167629E+02  0.00000000000E+00 0. -1.
        -14    1    6    6    0    0  0.61552225493E+02  0.36338714707E+02  0.53849719498E+02  0.89492854127E+02  0.00000000000E+00 0.  1.
</event>
<event>
12    1  0.8684423E-002  0.1738549E+03  0.7818608E-02  0.1174074E+00
         21   -1    0    0  501  502  0.00000000000E+00  0.00000000000E+00  0.29502867667E+03  0.29502867667E+03  0.00000000000E+00 0. -1.
         21   -1    0    0  502  503 -0.00000000000E+00 -0.00000000000E+00 -0.18632064248E+03  0.18632064248E+03  0.00000000000E+00 0. -1.
         -6    2    1    2    0  503 -0.14621413768E+02  0.17085246486E+02 -0.10760231243E+03  0.20383233601E+03  0.17164985341E+03 0.  0.
        -24    2    3    3    0    0  0.50419312046E+02 -0.23440959960E+02 -0.59044640368E+02  0.11298847579E+03  0.78667277026E+02 0.  0.
          6    2    1    2  501    0  0.14621413768E+02 -0.17085246486E+02  0.21631034662E+03  0.27751698314E+03  0.17239436906E+03 0.  0.
         24    2    5    5    0    0 -0.39975681632E+02 -0.19351636594E+02  0.20070877735E+03  0.22049524768E+03  0.79759638821E+02 0.  0.
          5    1    5    5  501    0  0.54597095400E+02  0.22663901073E+01  0.15601569277E+02  0.57021735454E+02  0.47000000000E+01 0. -1.
        -13    1    6    6    0    0  0.16470842571E+02 -0.54962292819E+01  0.78263564287E+01  0.19045971917E+02  0.00000000000E+00 0.  1.
         14    1    6    6    0    0 -0.56446524203E+02 -0.13855407312E+02  0.19288242092E+03  0.20144927576E+03  0.00000000000E+00 0. -1.
         -5    1    3    3    0  503 -0.65040725814E+02  0.40526206447E+02 -0.48557672065E+02  0.90843860221E+02  0.47000000000E+01 0.  1.
         13    1    4    4    0    0  0.28653871242E+02  0.27402572777E+02 -0.34191134848E+02  0.52354360221E+02  0.00000000000E+00 0. -1.
        -14    1    4    4    0    0  0.21765440805E+02 -0.50843532737E+02 -0.24853505520E+02  0.60634115572E+02  0.00000000000E+00 0.  1.
</event>
<event>
12    1  0.8684423E-002  0.1899793E+03  0.7818608E-02  0.1158778E+00
         21   -1    0    0  503  502  0.00000000000E+00  0.00000000000E+00  0.16201388336E+04  0.16201388336E+04  0.00000000000E+00 0. -1.
         21   -1    0    0  501  503 -0.00000000000E+00 -0.00000000000E+00 -0.41554214102E+02  0.41554214102E+02  0.00000000000E+00 0. -1.
          6    2    1    2  501    0  0.50114196717E+02 -0.59088541070E+02  0.21968135633E+03  0.28957417454E+03  0.17201864970E+03 0.  0.
         24    2    3    3    0    0  0.31111018749E+02 -0.61188608426E+02  0.44701201473E+02  0.11348988890E+03  0.78548177453E+02 0.  0.
         -6    2    1    2    0  502 -0.50114196717E+02  0.59088541070E+02  0.13589032632E+04  0.13721188731E+04  0.17346248883E+03 0.  0.
        -24    2    5    5    0    0 -0.96686743568E+02  0.62553847281E+02  0.10672242231E+04  0.10766873872E+04  0.83826471005E+02 0.  0.
          5    1    3    3  501    0  0.19003177968E+02  0.21000673565E+01  0.17498015486E+03  0.17608428564E+03  0.47000000000E+01 0. -1.
        -11    1    4    4    0    0 -0.18710345291E+02  0.72688868279E+00  0.25666670249E+02  0.31770793974E+02  0.00000000000E+00 0.  1.
         12    1    4    4    0    0  0.49821364040E+02 -0.61915497109E+02  0.19034531225E+02  0.81719094929E+02  0.00000000000E+00 0. -1.
         -5    1    5    5    0  502  0.46572546851E+02 -0.34653062109E+01  0.29167904010E+03  0.29543148597E+03  0.47000000000E+01 0.  1.
         13    1    6    6    0    0 -0.48383217861E+02  0.39575134930E+02  0.87291097642E+03  0.87514610199E+03  0.00000000000E+00 0. -1.
        -14    1    6    6    0    0 -0.48303525706E+02  0.22978712351E+02  0.19431324663E+03  0.20154128519E+03  0.00000000000E+00 0.  1.
</event>
<event>
12    1  0.8684423E-002  0.1998325E+03  0.7818608E-02  0.1150354E+00
         21   -1    0    0  501  502  0.00000000000E+00  0.00000000000E+00  0.17929304354E+03  0.17929304354E+03  0.00000000000E+00 0. -1.
         21   -1    0    0  502  503 -0.00000000000E+00 -0.00000000000E+00 -0.27125983812E+03  0.27125983812E+03  0.00000000000E+00 0.  1.
         -6    2    1    2    0  503 -0.65405998373E+02  0.72140787026E+02 -0.14346376246E+03  0.24419159960E+03  0.17194606247E+03 0.  0.
        -24    2    3    3    0    0 -0.84497200657E+02  0.44260277537E+02 -0.16317427829E+03  0.20479120305E+03  0.78834273432E+02 0.  0.
          6    2    1    2  501    0  0.65405998373E+02 -0.72140787026E+02  0.51496967882E+02  0.20636128206E+03  0.17450158526E+03 0.  0.
         24    2    5    5    0    0  0.10752839325E+03 -0.58273090545E+02  0.13840248587E+02  0.14799410238E+03  0.82174165166E+02 0.  0.
          5    1    5    5  501    0 -0.42122394879E+02 -0.13867696481E+02  0.37656719296E+02  0.58367179683E+02  0.47000000000E+01 0. -1.
        -13    1    6    6    0    0 -0.13021801969E+02 -0.11750968591E+02 -0.26190726018E+01  0.17734489862E+02  0.00000000000E+00 0.  1.
         14    1    6    6    0    0  0.12055019522E+03 -0.46522121954E+02  0.16459321188E+02  0.13025961252E+03  0.00000000000E+00 0. -1.
         -5    1    3    3    0  503  0.19091202284E+02  0.27880509489E+02  0.19710515821E+02  0.39400396546E+02  0.47000000000E+01 0.  1.
         13    1    4    4    0    0 -0.11901330678E+02  0.56019247433E-01  0.75396996985E+01  0.14088714690E+02  0.00000000000E+00 0. -1.
        -14    1    4    4    0    0 -0.72595869979E+02  0.44204258290E+02 -0.17071397798E+03  0.19070248836E+03  0.00000000000E+00 0.  1.
</event>
<event>
12    1  0.8684423E-002  0.2922154E+03  0.7818608E-02  0.1089265E+00
         21   -1    0    0  501  502  0.00000000000E+00  0.00000000000E+00  0.24326168644E+03  0.24326168644E+03  0.00000000000E+00 0.  1.
         21   -1    0    0  502  503 -0.00000000000E+00 -0.00000000000E+00 -0.46097750621E+03  0.46097750621E+03  0.00000000000E+00 0. -1.
         -6    2    1    2    0  503 -0.21627787669E+03  0.93741167821E+02 -0.28124031795E+03  0.40519873549E+03  0.17183239601E+03 0.  0.
        -24    2    3    3    0    0 -0.18294508021E+03  0.12052987373E+03 -0.17765892926E+03  0.29303856356E+03  0.79451568606E+02 0.  0.
          6    2    1    2  501    0  0.21627787669E+03 -0.93741167821E+02  0.63524498176E+02  0.29904045715E+03  0.17270294338E+03 0.  0.
         24    2    5    5    0    0  0.19966161131E+03 -0.11009207524E+03  0.95350191886E+02  0.25931115777E+03  0.78521292602E+02 0.  0.
          5    1    5    5  501    0  0.16616265384E+02  0.16350907421E+02 -0.31825693709E+02  0.39729299376E+02  0.47000000000E+01 0. -1.
        -13    1    6    6    0    0  0.39610283002E+02 -0.21142800850E+02  0.56429214813E+02  0.72112750826E+02  0.00000000000E+00 0.  1.
         14    1    6    6    0    0  0.16005132830E+03 -0.88949274392E+02  0.38920977072E+02  0.18719840694E+03  0.00000000000E+00 0. -1.
         -5    1    3    3    0  503 -0.33332796481E+02 -0.26788705913E+02 -0.10358138869E+03  0.11216017193E+03  0.47000000000E+01 0.  1.
         13    1    4    4    0    0 -0.56267234321E+02 -0.24698946302E+01 -0.47578165880E+02  0.73727768894E+02  0.00000000000E+00 0. -1.
        -14    1    4    4    0    0 -0.12667784589E+03  0.12299976836E+03 -0.13008076338E+03  0.21931079467E+03  0.00000000000E+00 0.  1.
</event>
<event>
12    1  0.8684423E-002  0.1809109E+03  0.7818608E-02  0.1167219E+00
         21   -1    0    0  503  502  0.00000000000E+00  0.00000000000E+00  0.47763896462E+03  0.47763896462E+03  0.00000000000E+00 0.  1.
         21   -1    0    0  501  503 -0.00000000000E+00 -0.00000000000E+00 -0.12619524162E+03  0.12619524162E+03  0.00000000000E+00 0.  1.
          6    2    1    2  501    0  0.58589851851E+01  0.56016827281E+02 -0.29519976517E+02  0.18209719910E+03  0.17063337381E+03 0.  0.
         24    2    3    3    0    0 -0.30871677848E+02  0.74209417915E+02 -0.62962544935E+02  0.12898780875E+03  0.78825595718E+02 0.  0.
         -6    2    1    2    0  502 -0.58589851851E+01 -0.56016827281E+02  0.38096369952E+03  0.42173700715E+03  0.17192018556E+03 0.  0.
        -24    2    5    5    0    0  0.56618948203E+02 -0.27404238962E+02  0.15130847377E+03  0.18197507296E+03  0.79145279939E+02 0.  0.
          5    1    3    3  501    0  0.36730663033E+02 -0.18192590634E+02  0.33442568417E+02  0.53109390349E+02  0.47000000000E+01 0. -1.
        -13    1    4    4    0    0 -0.23392066540E+01  0.62544914022E+02 -0.73383396644E+02  0.96449266772E+02  0.00000000000E+00 0.  1.
         14    1    4    4    0    0 -0.28532471194E+02  0.11664503893E+02  0.10420851709E+02  0.32538541975E+02  0.00000000000E+00 0. -1.
         -5    1    5    5    0  502 -0.62477933388E+02 -0.28612588320E+02  0.22965522575E+03  0.23976193419E+03  0.47000000000E+01 0.  1.
         13    1    6    6    0    0  0.11354006060E+02 -0.28565309011E+02  0.81137444026E+01  0.31791872872E+02  0.00000000000E+00 0. -1.
        -14    1    6    6    0    0  0.45264942143E+02  0.11610700491E+01  0.14319472937E+03  0.15018320009E+03  0.00000000000E+00 0.  1.
</event>
<event>
12    1  0.8684423E-002  0.1854233E+03  0.7818608E-02  0.1165575E+00
         21   -1    0    0  503  502  0.00000000000E+00  0.00000000000E+00  0.10710007147E+04  0.10710007147E+04  0.00000000000E+00 0. -1.
         21   -1    0    0  501  503 -0.00000000000E+00 -0.00000000000E+00 -0.30096821888E+02  0.30096821888E+02  0.00000000000E+00 0. -1.
          6    2    1    2  501    0  0.25832841625E+02  0.51916399585E+01  0.51443086596E+03  0.54682805123E+03  0.18354158363E+03 0.  0.
         24    2    3    3    0    0 -0.32362540082E+02 -0.53025200374E+02  0.32396075994E+03  0.33927840839E+03  0.79374168014E+02 0.  0.
         -6    2    1    2    0  502 -0.25832841625E+02 -0.51916399585E+01  0.52647302687E+03  0.55426948538E+03  0.17130827643E+03 0.  0.
        -24    2    5    5    0    0 -0.40068532313E+01 -0.25430895657E+02  0.12386875102E+03  0.15053901319E+03  0.81582729101E+02 0.  0.
          5    1    3    3  501    0  0.58195381707E+02  0.58216840333E+02  0.19047010603E+03  0.20754964283E+03  0.47000000000E+01 0. -1.
        -11    1    4    4    0    0 -0.36042950928E+02 -0.32332670734E+01  0.55784278694E+02  0.66493864957E+02  0.00000000000E+00 0.  1.
         12    1    4    4    0    0  0.36804108461E+01 -0.49791933301E+02  0.26817648124E+03  0.27278454344E+03  0.00000000000E+00 0. -1.
         -5    1    5    5    0  502 -0.21825988394E+02  0.20239255699E+02  0.40260427585E+03  0.40373047219E+03  0.47000000000E+01 0.  1.
         11    1    6    6    0    0  0.18806940974E+02  0.21771809680E+02  0.22902371556E+02  0.36772698411E+02  0.00000000000E+00 0. -1.
        -12    1    6    6    0    0 -0.22813794205E+02 -0.47202705338E+02  0.10096637946E+03  0.11376631478E+03  0.00000000000E+00 0.  1.
</event>
<event>
12    1  0.8684423E-002  0.2253775E+03  0.7818608E-02  0.1130310E+00
         21   -1    0    0  503  502  0.00000000000E+00  0.00000000000E+00  0.37998717203E+03  0.37998717203E+03  0.00000000000E+00 0.  1.
         21   -1    0    0  501  503 -0.00000000000E+00 -0.00000000000E+00 -0.15636790900E+03  0.15636790900E+03  0.00000000000E+00 0.  1.
          6    2    1    2  501    0 -0.59854890157E+02 -0.12814505700E+03  0.65108084697E+01  0.22341562863E+03  0.17282473486E+03 0.  0.
         24    2    3    3    0    0  0.94934401920E+01 -0.29030086326E+02  0.45263329527E+02  0.96306163122E+02  0.79329923337E+02 0.  0.
         -6    2    1    2    0  502  0.59854890157E+02  0.12814505700E+03  0.21710845456E+03  0.31293945240E+03  0.17547437511E+03 0.  0.
        -24    2    5    5    0    0  0.94464000284E+02  0.67155885218E+02  0.19211158911E+03  0.23834452724E+03  0.80423197664E+02 0.  0.
          5    1    3    3  501    0 -0.69348330349E+02 -0.99114970674E+02 -0.38752521057E+02  0.12710946551E+03  0.47000000000E+01 0. -1.
        -11    1    4    4    0    0  0.50729323659E+01 -0.39052902178E+02 -0.94566206846E+01  0.40500512170E+02  0.00000000000E+00 0.  1.
         12    1    4    4    0    0  0.44205078261E+01  0.10022815851E+02  0.54719950211E+02  0.55805650952E+02  0.00000000000E+00 0. -1.
         -5    1    5    5    0  502 -0.34609110126E+02  0.60989171782E+02  0.24996865442E+02  0.74594925165E+02  0.47000000000E+01 0.  1.
         11    1    6    6    0    0  0.21636320693E+01  0.26059758947E+02  0.93779918028E+02  0.97357410429E+02  0.00000000000E+00 0. -1.
        -12    1    6    6    0    0  0.92300368214E+02  0.41096126271E+02  0.98331671085E+02  0.14098711681E+03  0.00000000000E+00 0.  1.
</event>
<event>
12    1  0.8684423E-002  0.2429094E+03  0.7818608E-02  0.1117882E+00
         21   -1    0    0  501  502  0.00000000000E+00  0.00000000000E+00  0.57765551307E+03  0.57765551307E+03  0.00000000000E+00 0.  1.
         21   -1    0    0  502  503 -0.00000000000E+00 -0.00000000000E+00 -0.10566153829E+03  0.10566153829E+03  0.00000000000E+00 0. -1.
         -6    2    1    2    0  503 -0.35984272106E+01 -0.17157776007E+03  0.29862399945E+03  0.38494322119E+03  0.17191019186E+03 0.  0.
        -24    2    3    3    0    0  0.62478120168E+02 -0.87818050012E+02  0.16544226671E+03  0.21423509872E+03  0.83126460900E+02 0.  0.
          6    2    1    2  501    0  0.35984272106E+01  0.17157776007E+03  0.17336997533E+03  0.29837383016E+03  0.17180779304E+03 0.  0.
         24    2    5    5    0    0 -0.44981589250E+02  0.16939468056E+03  0.12084302476E+03  0.22663852246E+03  0.77743694620E+02 0.  0.
          5    1    5    5  501    0  0.48580016461E+02  0.21830795097E+01  0.52526950564E+02  0.71735307701E+02  0.47000000000E+01 0. -1.
        -13    1    6    6    0    0 -0.27143059432E+02  0.15678502194E+03  0.75105906803E+02  0.17595222652E+03  0.00000000000E+00 0.  1.
         14    1    6    6    0    0 -0.17838529819E+02  0.12609658623E+02  0.45737117959E+02  0.50686295938E+02  0.00000000000E+00 0. -1.
         -5    1    3    3    0  503 -0.66076547379E+02 -0.83759710063E+02  0.13318173274E+03  0.17070812247E+03  0.47000000000E+01 0.  1.
         11    1    4    4    0    0  0.22435712472E+02  0.12532716245E+02  0.17714174182E+02  0.31212531739E+02  0.00000000000E+00 0. -1.
        -12    1    4    4    0    0  0.40042407696E+02 -0.10035076626E+03  0.14772809253E+03  0.18302256698E+03  0.00000000000E+00 0.  1.
</event>
<event>
12    1  0.8684423E-002  0.2843961E+03  0.7818608E-02  0.1093706E+00
         21   -1    0    0  501  502  0.00000000000E+00  0.00000000000E+00  0.62552869281E+02  0.62552869281E+02  0.00000000000E+00 0.  1.
         21   -1    0    0  502  503 -0.00000000000E+00 -0.00000000000E+00 -0.14627680672E+04  0.14627680672E+04  0.00000000000E+00 0.  1.
         -6    2    1    2    0  503  0.20159200363E+03 -0.10214277163E+03 -0.97307134383E+03  0.10137795426E+04  0.17265178585E+03 0.  0.
        -24    2    3    3    0    0  0.63935045734E+02 -0.10365357647E+03 -0.54925252506E+03  0.56813820509E+03  0.79189202577E+02 0.  0.
          6    2    1    2  501    0 -0.20159200363E+03  0.10214277163E+03 -0.42714385406E+03  0.51154139381E+03  0.16778034392E+03 0.  0.
         24    2    5    5    0    0 -0.20183953031E+03  0.58449739947E+02 -0.28523012080E+03  0.36297915105E+03  0.79006798411E+02 0.  0.
          5    1    5    5  501    0  0.24752668020E+00  0.43693031683E+02 -0.14191373326E+03  0.14856224276E+03  0.47000000000E+01 0. -1.
        -13    1    6    6    0    0 -0.94684705072E+02  0.67507872191E+02 -0.13414684471E+03  0.17753276354E+03  0.00000000000E+00 0.  1.
         14    1    6    6    0    0 -0.10715482523E+03 -0.90581322437E+01 -0.15108327609E+03  0.18544638752E+03  0.00000000000E+00 0. -1.
         -5    1    3    3    0  503  0.13765695789E+03  0.15108048437E+01 -0.42381881876E+03  0.44564133754E+03  0.47000000000E+01 0.  1.
         11    1    4    4    0    0  0.28535121101E+02 -0.77094721400E+02 -0.20214900050E+03  0.21822480979E+03  0.00000000000E+00 0. -1.
        -12    1    4    4    0    0  0.35399924633E+02 -0.26558855074E+02 -0.34710352456E+03  0.34991339530E+03  0.00000000000E+00 0.  1.
</event>
<event>
12    1  0.8684423E-002  0.2111729E+03  0.7818608E-02  0.1141033E+00
         21   -1    0    0  503  502  0.00000000000E+00  0.00000000000E+00  0.18474527747E+03  0.18474527747E+03  0.00000000000E+00 0. -1.
         21   -1    0    0  501  503 -0.00000000000E+00 -0.00000000000E+00 -0.40566642941E+03  0.40566642941E+03  0.00000000000E+00 0.  1.
          6    2    1    2  501    0  0.12164779837E+03  0.56551037892E+01 -0.29992107239E+03  0.36680600095E+03  0.17252195692E+03 0.  0.
         24    2    3    3    0    0  0.12272754112E+03  0.19394857555E+02 -0.13274277808E+03  0.19899474160E+03  0.80870589221E+02 0.  0.
         -6    2    1    2    0  502 -0.12164779837E+03 -0.56551037892E+01  0.78999920449E+02  0.22360570593E+03  0.17008338321E+03 0.  0.
        -24    2    5    5    0    0 -0.13074179461E+03  0.26362448843E+02  0.32396549158E+02  0.16614451329E+03  0.93627278777E+02 0.  0.
          5    1    3    3  501    0 -0.10797427436E+01 -0.13739753766E+02 -0.16717829431E+03  0.16781125936E+03  0.47000000000E+01 0. -1.
        -11    1    4    4    0    0  0.80652498814E+02 -0.25067792834E+02 -0.94841270783E+02  0.12699640328E+03  0.00000000000E+00 0.  1.
         12    1    4    4    0    0  0.42075042305E+02  0.44462650389E+02 -0.37901507301E+02  0.71998338315E+02  0.00000000000E+00 0. -1.
         -5    1    5    5    0  502  0.90939962371E+01 -0.32017552632E+02  0.46603371291E+02  0.57461192642E+02  0.47000000000E+01 0.  1.
         13    1    6    6    0    0 -0.39398785488E+01  0.35599258976E+02  0.68931810264E+01  0.36473906115E+02  0.00000000000E+00 0. -1.
        -14    1    6    6    0    0 -0.12680191606E+03 -0.92368101332E+01  0.25503368131E+02  0.12967060717E+03  0.00000000000E+00 0.  1.
</event>
<event>
12    1  0.8684423E-002  0.2237176E+03  0.7818608E-02  0.1131492E+00
         21   -1    0    0  503  502  0.00000000000E+00  0.00000000000E+00  0.18404528756E+03  0.18404528756E+03  0.00000000000E+00 0.  1.
         21   -1    0    0  501  503 -0.00000000000E+00 -0.00000000000E+00 -0.31389552744E+03  0.31389552744E+03  0.00000000000E+00 0. -1.
          6    2    1    2  501    0 -0.82627368785E+02  0.11640130923E+03  0.28340428317E+02  0.22550556436E+03  0.17225862190E+03 0.  0.
         24    2    3    3    0    0 -0.93187893103E+02  0.14619531861E+03  0.16426661758E+02  0.19139932589E+03  0.79415440135E+02 0.  0.
         -6    2    1    2    0  502  0.82627368785E+02 -0.11640130923E+03 -0.15819066819E+03  0.27243525064E+03  0.16976492991E+03 0.  0.
        -24    2    5    5    0    0  0.63385645108E+02 -0.55625438684E+02 -0.17069497987E+03  0.20730155598E+03  0.82007496752E+02 0.  0.
          5    1    3    3  501    0  0.10560524318E+02 -0.29794009381E+02  0.11913766559E+02  0.34106238469E+02  0.47000000000E+01 0. -1.
        -11    1    4    4    0    0 -0.81508250413E+01  0.42887323189E+02  0.35466579775E+02  0.56246215162E+02  0.00000000000E+00 0.  1.
         12    1    4    4    0    0 -0.85037068062E+02  0.10330799542E+03 -0.19039918016E+02  0.13515311073E+03  0.00000000000E+00 0. -1.
         -5    1    5    5    0  502  0.19241723677E+02 -0.60775870544E+02  0.12504311673E+02  0.65133694666E+02  0.47000000000E+01 0.  1.
         11    1    6    6    0    0  0.12324517836E+02  0.21316170763E+02 -0.45494936885E+02  0.51730669415E+02  0.00000000000E+00 0. -1.
        -12    1    6    6    0    0  0.51061127273E+02 -0.76941609448E+02 -0.12520004298E+03  0.15557088656E+03  0.00000000000E+00 0.  1.
</event>
<event>
12    1  0.8684423E-002  0.4243010E+03  0.7818608E-02  0.1035710E+00
         21   -1    0    0  501  502  0.00000000000E+00  0.00000000000E+00  0.31463478667E+03  0.31463478667E+03  0.00000000000E+00 0.  1.
         21   -1    0    0  502  503 -0.00000000000E+00 -0.00000000000E+00 -0.63971039799E+03  0.63971039799E+03  0.00000000000E+00 0.  1.
         -6    2    1    2    0  503 -0.33029100913E+03 -0.20312142906E+03 -0.31815619618E+03  0.52998778008E+03  0.17121102828E+03 0.  0.
        -24    2    3    3    0    0 -0.14558724580E+03 -0.51914212184E+02 -0.78965517270E+02  0.19203308859E+03  0.82160955606E+02 0.  0.
          6    2    1    2  501    0  0.33029100913E+03  0.20312142906E+03 -0.69194151331E+01  0.42435740457E+03  0.17228134795E+03 0.  0.
         24    2    5    5    0    0  0.29585739293E+03  0.11254633220E+03  0.28925591236E+01  0.32684901039E+03  0.81385716526E+02 0.  0.
          5    1    5    5  501    0  0.34433616209E+02  0.90575096866E+02 -0.98119742567E+01  0.97508394184E+02  0.47000000000E+01 0. -1.
        -11    1    6    6    0    0  0.13434110789E+03  0.88200021263E+01  0.74975636058E+01  0.13483893787E+03  0.00000000000E+00 0.  1.
         12    1    6    6    0    0  0.16151628504E+03  0.10372633007E+03 -0.46050044822E+01  0.19201007252E+03  0.00000000000E+00 0. -1.
         -5    1    3    3    0  503 -0.18470376333E+03 -0.15120721688E+03 -0.23919067891E+03  0.33795469150E+03  0.47000000000E+01 0.  1.
         13    1    4    4    0    0  0.16134513749E+01 -0.20466893423E+02 -0.24488218108E+02  0.31955747180E+02  0.00000000000E+00 0. -1.
        -14    1    4    4    0    0 -0.14720069718E+03 -0.31447318761E+02 -0.54477299162E+02  0.16007734141E+03  0.00000000000E+00 0.  1.
</event>
<event>
12    1  0.8684423E-002  0.1895127E+03  0.7818608E-02  0.1159110E+00
         21   -1    0    0  503  502  0.00000000000E+00  0.00000000000E+00  0.70249273774E+03  0.70249273774E+03  0.00000000000E+00 0.  1.
         21   -1    0    0  501  503 -0.00000000000E+00 -0.00000000000E+00 -0.12532503176E+03  0.12532503176E+03  0.00000000000E+00 0.  1.
          6    2    1    2  501    0 -0.76608354334E+02  0.44756446725E+00 -0.30145735759E+02  0.19189535092E+03  0.17333787830E+03 0.  0.
         24    2    3    3    0    0 -0.45505285732E+02  0.15283402105E+02 -0.83161068464E+02  0.12849015826E+03  0.85379412337E+02 0.  0.
         -6    2    1    2    0  502  0.76608354334E+02 -0.44756446725E+00  0.60731344174E+03  0.63592241859E+03  0.17233300810E+03 0.  0.
        -24    2    5    5    0    0 -0.29397738537E+02  0.18610760775E+02  0.28558992597E+03  0.29661632951E+03  0.72173774109E+02 0.  0.
          5    1    3    3  501    0 -0.31103068602E+02 -0.14835837638E+02  0.53015332705E+02  0.63405192664E+02  0.47000000000E+01 0. -1.
        -11    1    4    4    0    0 -0.58686697984E+02 -0.13209323572E+02 -0.74826858653E+02  0.96008715883E+02  0.00000000000E+00 0.  1.
         12    1    4    4    0    0  0.13181412252E+02  0.28492725677E+02 -0.83342098109E+01  0.32481442373E+02  0.00000000000E+00 0. -1.
         -5    1    5    5    0  502  0.10600609287E+03 -0.19058325242E+02  0.32172351577E+03  0.33930608908E+03  0.47000000000E+01 0.  1.
         11    1    6    6    0    0 -0.26180195582E+02  0.68583233174E+01  0.28737691965E+02  0.39475235007E+02  0.00000000000E+00 0. -1.
        -12    1    6    6    0    0 -0.32175429550E+01  0.11752437458E+02  0.25685223400E+03  0.25714109450E+03  0.00000000000E+00 0.  1.
</event>
<event>
12    1  0.8684423E-002  0.3295613E+03  0.7818608E-02  0.1071366E+00
         21   -1    0    0  503  502  0.00000000000E+00  0.00000000000E+00  0.88047475860E+03  0.88047475860E+03  0.00000000000E+00 0. -1.
         21   -1    0    0  501  503 -0.00000000000E+00 -0.00000000000E+00 -0.17645608975E+03  0.17645608975E+03  0.00000000000E+00 0.  1.
          6    2    1    2  501    0  0.53897951317E+02 -0.27579393027E+03  0.61665759337E+02  0.33496968317E+03  0.17156556076E+03 0.  0.
         24    2    3    3    0    0  0.71540502893E+02 -0.10903865498E+03  0.67650018670E+02  0.16711116292E+03  0.79637578505E+02 0.  0.
         -6    2    1    2    0  502 -0.53897951317E+02  0.27579393027E+03  0.64235290951E+03  0.72196116517E+03  0.17217253710E+03 0.  0.
        -24    2    5    5    0    0 -0.59894299448E+02  0.27696782242E+03  0.64829515104E+03  0.71222800289E+03  0.81753430919E+02 0.  0.
          5    1    3    3  501    0 -0.17642551577E+02 -0.16675527529E+03 -0.59842593326E+01  0.16785852026E+03  0.47000000000E+01 0. -1.
        -13    1    4    4    0    0  0.77128548026E+02 -0.10924080240E+03  0.40982883845E+02  0.13986408616E+03  0.00000000000E+00 0.  1.
         14    1    4    4    0    0 -0.55880451321E+01  0.20214741394E+00  0.26667134825E+02  0.27247076756E+02  0.00000000000E+00 0. -1.
         -5    1    5    5    0  502  0.59963481310E+01 -0.11738921424E+01 -0.59422415345E+01  0.97331622880E+01  0.47000000000E+01 0.  1.
         11    1    6    6    0    0  0.16096612655E+02  0.58336983954E+02  0.97207010268E+02  0.11450549105E+03  0.00000000000E+00 0. -1.
        -12    1    6    6    0    0 -0.75990912103E+02  0.21863083846E+03  0.55108814078E+03  0.59772251183E+03  0.00000000000E+00 0.  1.
</event>
<event>
12    1  0.8684423E-002  0.2007917E+03  0.7818608E-02  0.1149106E+00
         21   -1    0    0  501  502  0.00000000000E+00  0.00000000000E+00  0.17408899167E+03  0.17408899167E+03  0.00000000000E+00 0.  1.
         21   -1    0    0  502  503 -0.00000000000E+00 -0.00000000000E+00 -0.29092261175E+03  0.29092261175E+03  0.00000000000E+00 0. -1.
         -6    2    1    2    0  503 -0.29220026268E+02 -0.99906222660E+02 -0.16356121478E+03  0.25885446457E+03  0.17151763637E+03 0.  0.
        -24    2    3    3    0    0 -0.35832000258E+02 -0.13472043136E+03 -0.15302334982E+03  0.22158673154E+03  0.79063310936E+02 0.  0.
          6    2    1    2  501    0  0.29220026268E+02  0.99906222660E+02  0.46727594701E+02  0.20615713885E+03  0.17170391531E+03 0.  0.
         24    2    5    5    0    0  0.57429236316E+02  0.87406576796E+02 -0.14668115900E+02  0.13728389326E+03  0.87713664120E+02 0.  0.
          5    1    5    5  501    0 -0.28209210048E+02  0.12499645864E+02  0.61395710600E+02  0.68873245592E+02  0.47000000000E+01 0. -1.
        -11    1    6    6    0    0 -0.21919028873E+02  0.23193911369E+02 -0.14873233044E+02  0.35208158323E+02  0.00000000000E+00 0.  1.
         12    1    6    6    0    0  0.79348265188E+02  0.64212665428E+02  0.20511714436E+00  0.10207573494E+03  0.00000000000E+00 0. -1.
         -5    1    3    3    0  503  0.66119739906E+01  0.34814208697E+02 -0.10537864964E+02  0.37267733030E+02  0.47000000000E+01 0.  1.
         11    1    4    4    0    0  0.15903372017E+02 -0.88607573336E+02 -0.98210055289E+02  0.13322700272E+03  0.00000000000E+00 0. -1.
        -12    1    4    4    0    0 -0.51735372276E+02 -0.46112858021E+02 -0.54813294528E+02  0.88359728816E+02  0.00000000000E+00 0.  1.
</event>
<event>
12    1  0.8684423E-002  0.2443149E+03  0.7818608E-02  0.1117021E+00
         21   -1    0    0  503  502  0.00000000000E+00  0.00000000000E+00  0.15713834518E+03  0.15713834518E+03  0.00000000000E+00 0.  1.
         21   -1    0    0  501  503 -0.00000000000E+00 -0.00000000000E+00 -0.44123980963E+03  0.44123980963E+03  0.00000000000E+00 0.  1.
          6    2    1    2  501    0 -0.17266246459E+03  0.27981057701E+02 -0.25414140325E+03  0.35223309836E+03  0.16995598391E+03 0.  0.
         24    2    3    3    0    0 -0.57891395614E+02 -0.46775061680E+02 -0.92609282060E+02  0.14039449981E+03  0.74798505147E+02 0.  0.
         -6    2    1    2    0  502  0.17266246459E+03 -0.27981057701E+02 -0.29960061203E+02  0.24614505645E+03  0.17057115020E+03 0.  0.
        -24    2    5    5    0    0  0.78260244549E+02  0.26512036918E+02 -0.66618421933E+02  0.13104856684E+03  0.76864548082E+02 0.  0.
          5    1    3    3  501    0 -0.11477106898E+03  0.74756119381E+02 -0.16153212119E+03  0.21183859855E+03  0.47000000000E+01 0. -1.
        -13    1    4    4    0    0 -0.14087224283E+02  0.19732350381E+01 -0.69439676205E+02  0.70881677293E+02  0.00000000000E+00 0.  1.
         14    1    4    4    0    0 -0.43804171330E+02 -0.48748296718E+02 -0.23169605855E+02  0.69512822517E+02  0.00000000000E+00 0. -1.
         -5    1    5    5    0  502  0.94402220041E+02 -0.54493094619E+02  0.36658360730E+02  0.11509648961E+03  0.47000000000E+01 0.  1.
         11    1    6    6    0    0  0.69897315550E+01 -0.12997490991E+02 -0.44102199477E+02  0.46505861114E+02  0.00000000000E+00 0. -1.
        -12    1    6    6    0    0  0.71270512994E+02  0.39509527909E+02 -0.22516222456E+02  0.84542705727E+02  0.00000000000E+00 0.  1.
</event>
<event>
12    1  0.8684423E-002  0.2317076E+03  0.7818608E-02  0.1126262E+00
         21   -1    0    0  503  502  0.00000000000E+00  0.00000000000E+00  0.33364728398E+03  0.33364728398E+03  0.00000000000E+00 0.  1.
         21   -1    0    0  501  503 -0.00000000000E+00 -0.00000000000E+00 -0.39561245430E+03  0.39561245430E+03  0.00000000000E+00 0. -1.
          6    2    1    2  501    0 -0.14984162006E+03 -0.10526258477E+02 -0.31361526766E+03  0.38718346231E+03  0.17027385047E+03 0.  0.
         24    2    3    3    0    0 -0.14907725259E+03 -0.27592509316E+02 -0.32583557927E+03  0.36565981970E+03  0.67475219291E+02 0.  0.
         -6    2    1    2    0  502  0.14984162006E+03  0.10526258477E+02  0.25165009734E+03  0.34207627597E+03  0.17642305369E+03 0.  0.
        -24    2    5    5    0    0  0.59459320970E+02 -0.50720150112E+01  0.33567206544E+02  0.10544469866E+03  0.80191588922E+02 0.  0.
          5    1    3    3  501    0 -0.76436747407E+00  0.17066250839E+02  0.12220311606E+02  0.21523642607E+02  0.47000000000E+01 0. -1.
        -13    1    4    4    0    0 -0.14190238076E+01  0.85604909474E-01 -0.62266132524E+02  0.62282358788E+02  0.00000000000E+00 0.  1.
         14    1    4    4    0    0 -0.14765822878E+03 -0.27678114226E+02 -0.26356944674E+03  0.30337746091E+03  0.00000000000E+00 0. -1.
         -5    1    5    5    0  502  0.90382299092E+02  0.15598273488E+02  0.21808289079E+03  0.23663157731E+03  0.47000000000E+01 0.  1.
         13    1    6    6    0    0  0.18253682730E+02 -0.40993784152E+02  0.19950497453E+02  0.49109160254E+02  0.00000000000E+00 0. -1.
        -14    1    6    6    0    0  0.41205638241E+02  0.35921769140E+02  0.13616709091E+02  0.56335538406E+02  0.00000000000E+00 0.  1.
</event>
<event>
12    1  0.8684423E-002  0.1771621E+03  0.7818608E-02  0.1170719E+00
         21   -1    0    0  501  502  0.00000000000E+00  0.00000000000E+00  0.74132211770E+02  0.74132211770E+02  0.00000000000E+00 0.  1.
         21   -1    0    0  502  503 -0.00000000000E+00 -0.00000000000E+00 -0.14864884374E+04  0.14864884374E+04  0.00000000000E+00 0.  1.
         -6    2    1    2    0  503  0.23944999674E+02 -0.31670447022E+02 -0.13661716318E+04  0.13775374978E+04  0.17207047989E+03 0.  0.
        -24    2    3    3    0    0  0.32306637995E+02 -0.76276722693E+02 -0.11898350042E+04  0.11953937824E+04  0.79981875934E+02 0.  0.
          6    2    1    2  501    0 -0.23944999674E+02  0.31670447022E+02 -0.46184593815E+02  0.18308315137E+03  0.17265585245E+03 0.  0.
         24    2    5    5    0    0  0.42615823069E+02  0.29192976643E+02  0.10806743149E+02  0.95296002692E+02  0.79348624251E+02 0.  0.
          5    1    5    5  501    0 -0.66560822743E+02  0.24774703781E+01 -0.56991336964E+02  0.87787148676E+02  0.47000000000E+01 0. -1.
        -11    1    6    6    0    0  0.30695767537E+02 -0.10628343995E+02  0.34552591732E+02  0.47424397056E+02  0.00000000000E+00 0.  1.
         12    1    6    6    0    0  0.11920055533E+02  0.39821320638E+02 -0.23745848583E+02  0.47871605636E+02  0.00000000000E+00 0. -1.
         -5    1    3    3    0  503 -0.83616383208E+01  0.44606275672E+02 -0.17633662763E+03  0.18214371542E+03  0.47000000000E+01 0.  1.
         13    1    4    4    0    0  0.24390945397E+02  0.57045109405E+00 -0.10439299699E+03  0.10720607004E+03  0.00000000000E+00 0. -1.
        -14    1    4    4    0    0  0.79156925979E+01 -0.76847173787E+02 -0.10854420072E+04  0.10881877123E+04  0.00000000000E+00 0.  1.
</event>
<event>
12    1  0.8684423E-002  0.1954811E+03  0.7818608E-02  0.1153848E+00
         21   -1    0    0  501  502  0.00000000000E+00  0.00000000000E+00  0.13283555652E+02  0.13283555652E+02  0.00000000000E+00 0.  1.
         21   -1    0    0  502  503 -0.00000000000E+00 -0.00000000000E+00 -0.28885743432E+04  0.28885743432E+04  0.00000000000E+00 0.  1.
         -6    2    1    2    0  503 -0.89966991030E+02 -0.11295446392E+02 -0.12907446339E+04  0.13052992963E+04  0.17193864206E+03 0.  0.
        -24    2    3    3    0    0 -0.14184987135E+01  0.63922297536E+01 -0.28826299089E+03  0.29874814322E+03  0.78179462910E+02 0.  0.
          6    2    1    2  501    0  0.89966991030E+02  0.11295446392E+02 -0.15845461537E+04  0.15965586025E+04  0.17317970858E+03 0.  0.
         24    2    5    5    0    0  0.44087039336E+02  0.20784785508E+02 -0.14682862271E+04  0.14711254408E+04  0.77265409564E+02 0.  0.
          5    1    5    5  501    0  0.45879951694E+02 -0.94893391158E+01 -0.11625992654E+03  0.12543316165E+03  0.47000000000E+01 0. -1.
        -11    1    6    6    0    0 -0.39022876439E+01 -0.24297694263E+02 -0.49802482879E+03  0.49863246573E+03  0.00000000000E+00 0.  1.
         12    1    6    6    0    0  0.47989326980E+02  0.45082479771E+02 -0.97026139835E+03  0.97249297510E+03  0.00000000000E+00 0. -1.
         -5    1    3    3    0  503 -0.88548492316E+02 -0.17687676146E+02 -0.10024816430E+04  0.10065511531E+04  0.47000000000E+01 0.  1.
         13    1    4    4    0    0 -0.47342476364E+01 -0.35785769220E+02 -0.12754872726E+03  0.13255833510E+03  0.00000000000E+00 0. -1.
        -14    1    4    4    0    0  0.33157489229E+01  0.42177998973E+02 -0.16071426364E+03  0.16618980812E+03  0.00000000000E+00 0.  1.
</event>
<event>
12    1  0.8684423E-002  0.1865113E+03  0.7818608E-02  0.1161992E+00
         21   -1    0    0  503  502  0.00000000000E+00  0.00000000000E+00  0.53844894994E+02  0.53844894994E+02  0.00000000000E+00 0. -1.
         21   -1    0    0  501  503 -0.00000000000E+00 -0.00000000000E+00 -0.96354945047E+03  0.96354945047E+03  0.00000000000E+00 0. -1.
          6    2    1    2  501    0  0.52375662083E+02  0.45532381605E+02 -0.74800459057E+03  0.77054753860E+03  0.17151161468E+03 0.  0.
         24    2    3    3    0    0  0.91817815213E+01  0.91028429555E+02 -0.51752645001E+03  0.53163779628E+03  0.80216207063E+02 0.  0.
         -6    2    1    2    0  502 -0.52375662083E+02 -0.45532381605E+02 -0.16169996491E+03  0.24684680687E+03  0.17311862886E+03 0.  0.
        -24    2    5    5    0    0 -0.13138510098E+02  0.38100430000E+02 -0.10435441496E+03  0.13801389194E+03  0.80831474273E+02 0.  0.
          5    1    3    3  501    0  0.43193880562E+02 -0.45496047950E+02 -0.23047814057E+03  0.23890974232E+03  0.47000000000E+01 0. -1.
        -11    1    4    4    0    0 -0.73273888796E+01  0.27772955281E+02 -0.35918403888E+03  0.36033068348E+03  0.00000000000E+00 0.  1.
         12    1    4    4    0    0  0.16509170401E+02  0.63255474274E+02 -0.15834241113E+03  0.17130711280E+03  0.00000000000E+00 0. -1.
         -5    1    5    5    0  502 -0.39237151985E+02 -0.83632811605E+02 -0.57345549946E+02  0.10883291493E+03  0.47000000000E+01 0.  1.
         11    1    6    6    0    0 -0.37266041401E+02  0.30060483300E+02 -0.23658245759E+02  0.53405084873E+02  0.00000000000E+00 0. -1.
        -12    1    6    6    0    0  0.24127531302E+02  0.80399467003E+01 -0.80696169201E+02  0.84608807068E+02  0.00000000000E+00 0.  1.
</event>
<event>
12    1  0.8684423E-002  0.2155880E+03  0.7818608E-02  0.1137544E+00
         21   -1    0    0  501  502  0.00000000000E+00  0.00000000000E+00  0.98929602719E+03  0.98929602719E+03  0.00000000000E+00 0. -1.
         21   -1    0    0  502  503 -0.00000000000E+00 -0.00000000000E+00 -0.65553180070E+02  0.65553180070E+02  0.00000000000E+00 0. -1.
         -6    2    1    2    0  503  0.24226851466E+01  0.13059184003E+03  0.17704437368E+03  0.27765115849E+03  0.16936752189E+03 0.  0.
        -24    2    3    3    0    0  0.43509819673E+02  0.89999314302E+02  0.49496207408E+02  0.13755643879E+03  0.80491728279E+02 0.  0.
          6    2    1    2  501    0 -0.24226851466E+01 -0.13059184003E+03  0.74669847344E+03  0.77719804877E+03  0.17151705072E+03 0.  0.
         24    2    5    5    0    0 -0.43383535210E+02 -0.28981922422E+02  0.24034923551E+03  0.25911117638E+03  0.81539951914E+02 0.  0.
          5    1    5    5  501    0  0.40960850064E+02 -0.10160991761E+03  0.50634923793E+03  0.51808687239E+03  0.47000000000E+01 0. -1.
        -13    1    6    6    0    0 -0.37285220805E+02  0.46454459255E+01  0.21021761124E+03  0.21354908554E+03  0.00000000000E+00 0.  1.
         14    1    6    6    0    0 -0.60983144058E+01 -0.33627368347E+02  0.30131624274E+02  0.45562090842E+02  0.00000000000E+00 0. -1.
         -5    1    3    3    0  503 -0.41087134526E+02  0.40592525732E+02  0.12754816627E+03  0.14009471970E+03  0.47000000000E+01 0.  1.
         13    1    4    4    0    0  0.63558037778E+00  0.49712130154E+02 -0.13342356403E+02  0.51475414726E+02  0.00000000000E+00 0. -1.
        -14    1    4    4    0    0  0.42874239295E+02  0.40287184148E+02  0.62838563810E+02  0.86081024061E+02  0.00000000000E+00 0.  1.
</event>
<event>
12    1  0.8684423E-002  0.1918310E+03  0.7818608E-02  0.1157621E+00
         21   -1    0    0  501  502  0.00000000000E+00  0.00000000000E+00  0.74585253786E+03  0.74585253786E+03  0.00000000000E+00 0.  1.
         21   -1    0    0  502  503 -0.00000000000E+00 -0.00000000000E+00 -0.12055875579E+03  0.12055875579E+03  0.00000000000E+00 0.  1.
         -6    2    1    2    0  503  0.78170815473E+02 -0.67576575679E+01 -0.21258535354E+02  0.19300530731E+03  0.17505079547E+03 0.  0.
        -24    2    3    3    0    0  0.10964042849E+03 -0.30767774694E+02 -0.44110173977E+02  0.14705849397E+03  0.81931762351E+02 0.  0.
          6    2    1    2  501    0 -0.78170815473E+02  0.67576575679E+01  0.64655231743E+03  0.67340598634E+03  0.17114140625E+03 0.  0.
         24    2    5    5    0    0 -0.47721811131E+02  0.58297932890E+02  0.32208531345E+03  0.34342951973E+03  0.92351857817E+02 0.  0.
          5    1    5    5  501    0 -0.30449004342E+02 -0.51540275322E+02  0.32446700397E+03  0.32997646661E+03  0.47000000000E+01 0. -1.
        -11    1    6    6    0    0 -0.99255648658E+01  0.37784615805E+01  0.22833345361E+03  0.22858031335E+03  0.00000000000E+00 0.  1.
         12    1    6    6    0    0 -0.37796246266E+02  0.54519471309E+02  0.93751859839E+02  0.11484920638E+03  0.00000000000E+00 0. -1.
         -5    1    3    3    0  503 -0.31469613018E+02  0.24010117126E+02  0.22851638623E+02  0.45946813335E+02  0.47000000000E+01 0.  1.
         13    1    4    4    0    0 -0.10690648998E+02 -0.41821068030E+01  0.72214405039E+01  0.13562049855E+02  0.00000000000E+00 0. -1.
        -14    1    4    4    0    0  0.12033107749E+03 -0.26585667891E+02 -0.51331614481E+02  0.13349644412E+03  0.00000000000E+00 0.  1.
</event>
<event>
12    1  0.8684423E-002  0.1745379E+03  0.7818608E-02  0.1173205E+00
         21   -1    0    0  503  502  0.00000000000E+00  0.00000000000E+00  0.24844469969E+03  0.24844469969E+03  0.00000000000E+00 0.  1.
         21   -1    0    0  501  503 -0.00000000000E+00 -0.00000000000E+00 -0.24469560144E+03  0.24469560144E+03  0.00000000000E+00 0.  1.
          6    2    1    2  501    0 -0.26171631647E+02 -0.76269552977E+01 -0.17230210187E+03  0.24525803221E+03  0.17239594921E+03 0.  0.
         24    2    3    3    0    0  0.54515289780E+01 -0.56429226925E+02 -0.53861155703E+02  0.11322760491E+03  0.81887053920E+02 0.  0.
         -6    2    1    2    0  502  0.26171631647E+02  0.76269552977E+01  0.17605120012E+03  0.24788226892E+03  0.17236144995E+03 0.  0.
        -24    2    5    5    0    0  0.61175660190E+02 -0.24352190167E+02  0.54723645772E+02  0.11753498969E+03  0.80525187540E+02 0.  0.
          5    1    3    3  501    0 -0.31623160625E+02  0.48802271627E+02 -0.11844094617E+03  0.13203042730E+03  0.47000000000E+01 0. -1.
        -11    1    4    4    0    0 -0.29629628384E+02 -0.19569416385E+01 -0.34681901826E+02  0.45657187966E+02  0.00000000000E+00 0.  1.
         12    1    4    4    0    0  0.35081157362E+02 -0.54472285287E+02 -0.19179253878E+02  0.67570416941E+02  0.00000000000E+00 0. -1.
         -5    1    5    5    0  502 -0.35004028543E+02  0.31979145465E+02  0.12132755435E+03  0.13034727923E+03  0.47000000000E+01 0.  1.
         11    1    6    6    0    0  0.29339501633E+02 -0.53394322577E+02  0.31766291101E+02  0.68708495034E+02  0.00000000000E+00 0. -1.
        -12    1    6    6    0    0  0.31836158557E+02  0.29042132410E+02  0.22957354671E+02  0.48826494653E+02  0.00000000000E+00 0.  1.
</event>
<event>
12    1  0.8684423E-002  0.1845639E+03  0.7818608E-02  0.1163750E+00
         21   -1    0    0  503  502  0.00000000000E+00  0.00000000000E+00  0.41267378492E+03  0.41267378492E+03  0.00000000000E+00 0. -1.
         21   -1    0    0  501  503 -0.00000000000E+00 -0.00000000000E+00 -0.97298813415E+02  0.97298813415E+02  0.00000000000E+00 0. -1.
          6    2    1    2  501    0  0.67830203534E+02 -0.19310163231E+02  0.56094470040E+02  0.19171138761E+03  0.16921243351E+03 0.  0.
         24    2    3    3    0    0  0.43921104370E+01 -0.35355145363E+02  0.83492940828E+02  0.12061568233E+03  0.79421626266E+02 0.  0.
         -6    2    1    2    0  502 -0.67830203534E+02  0.19310163231E+02  0.25928050146E+03  0.31826121072E+03  0.17055791068E+03 0.  0.
        -24    2    5    5    0    0 -0.10057620665E+03 -0.15237269398E+02  0.22283505525E+03  0.25812647558E+03  0.81400662308E+02 0.  0.
          5    1    3    3  501    0  0.63438093097E+02  0.16044982133E+02 -0.27398470788E+02  0.71095705277E+02  0.47000000000E+01 0. -1.
        -11    1    4    4    0    0 -0.30452272441E+02 -0.29573098217E+02  0.17801117089E+02  0.46030303112E+02  0.00000000000E+00 0.  1.
         12    1    4    4    0    0  0.34844382878E+02 -0.57820471463E+01  0.65691823740E+02  0.74585379221E+02  0.00000000000E+00 0. -1.
         -5    1    5    5    0  502  0.32746003113E+02  0.34547432628E+02  0.36445446210E+02  0.60134735142E+02  0.47000000000E+01 0.  1.
         11    1    6    6    0    0 -0.84814352295E+01  0.26938861396E+02  0.37868012506E+02  0.47240061050E+02  0.00000000000E+00 0. -1.
        -12    1    6    6    0    0 -0.92094771417E+02 -0.42176130794E+02  0.18496704274E+03  0.21088641453E+03  0.00000000000E+00 0.  1.
</event>
<event>
12    1  0.8684423E-002  0.2181502E+03  0.7818608E-02  0.1135435E+00
         21   -1    0    0  503  502  0.00000000000E+00  0.00000000000E+00  0.12873473287E+03  0.12873473287E+03  0.00000000000E+00 0.  1.
         21   -1    0    0  501  503 -0.00000000000E+00 -0.00000000000E+00 -0.43331477552E+03  0.43331477552E+03  0.00000000000E+00 0.  1.
          6    2    1    2  501    0  0.11218021453E+03 -0.67425983729E+02 -0.26097818146E+03  0.33958462101E+03  0.17342848618E+03 0.  0.
         24    2    3    3    0    0  0.28867166976E+02 -0.56391310076E+02 -0.51627718566E+02  0.11394656078E+03  0.79404686303E+02 0.  0.
         -6    2    1    2    0  502 -0.11218021453E+03  0.67425983729E+02 -0.43601861200E+02  0.22246488738E+03  0.17452461146E+03 0.  0.
        -24    2    5    5    0    0 -0.41202394554E+01  0.44896568089E+02 -0.60771423210E+02  0.11065515327E+03  0.80738583513E+02 0.  0.
          5    1    3    3  501    0  0.83313047550E+02 -0.11034673653E+02 -0.20935046289E+03  0.22563806024E+03  0.47000000000E+01 0. -1.
        -13    1    4    4    0    0  0.10646168742E+02  0.16259558990E+02 -0.30424771718E+02  0.36102366980E+02  0.00000000000E+00 0.  1.
         14    1    4    4    0    0  0.18220998234E+02 -0.72650869066E+02 -0.21202946847E+02  0.77844193795E+02  0.00000000000E+00 0. -1.
         -5    1    5    5    0  502 -0.10805997507E+03  0.22529415640E+02  0.17169562009E+02  0.11180973411E+03  0.47000000000E+01 0.  1.
         13    1    6    6    0    0 -0.17388951622E+01  0.55642758983E+02 -0.74535962743E+02  0.93030909518E+02  0.00000000000E+00 0. -1.
        -14    1    6    6    0    0 -0.23813442932E+01 -0.10746190894E+02  0.13764539534E+02  0.17624243755E+02  0.00000000000E+00 0.  1.
</event>
<event>
12    1  0.8684423E-002  0.3221544E+03  0.7818608E-02  0.1074679E+00
         21   -1    0    0  503  502  0.00000000000E+00  0.00000000000E+00  0.15931428137E+04  0.15931428137E+04  0.00000000000E+00 0. -1.
         21   -1    0    0  501  503 -0.00000000000E+00 -0.00000000000E+00 -0.83390989153E+02  0.83390989153E+02  0.00000000000E+00 0.  1.
          6    2    1    2  501    0 -0.27232453341E+03 -0.30168114951E+00  0.36228864714E+03  0.48470528270E+03  0.17182958046E+03 0.  0.
         24    2    3    3    0    0 -0.19671694793E+03 -0.61623283221E+02  0.20724133925E+03  0.30156980403E+03  0.74164596489E+02 0.  0.
         -6    2    1    2    0  502  0.27232453341E+03  0.30168114951E+00  0.11474631774E+04  0.11918285201E+04  0.17211256617E+03 0.  0.
        -24    2    5    5    0    0  0.19785236477E+03 -0.14034242676E+02  0.55838756974E+03  0.59787247450E+03  0.79449981237E+02 0.  0.
          5    1    3    3  501    0 -0.75607585486E+02  0.61321602071E+02  0.15504730788E+03  0.18313547866E+03  0.47000000000E+01 0. -1.
        -13    1    4    4    0    0 -0.15278053968E+03 -0.16171059959E+02  0.16549001654E+03  0.22581041176E+03  0.00000000000E+00 0.  1.
         14    1    4    4    0    0 -0.43936408246E+02 -0.45452223262E+02  0.41751322713E+02  0.75759392271E+02  0.00000000000E+00 0. -1.
         -5    1    5    5    0  502  0.74472168643E+02  0.14335923826E+02  0.58907560763E+03  0.59395604562E+03  0.47000000000E+01 0.  1.
         11    1    6    6    0    0  0.15511146425E+03 -0.35357237431E+02  0.48394720301E+03  0.50942575110E+03  0.00000000000E+00 0. -1.
        -12    1    6    6    0    0  0.42740900520E+02  0.21322994755E+02  0.74440366729E+02  0.88446723406E+02  0.00000000000E+00 0.  1.
</event>
<event>
12    1  0.8684423E-002  0.1877630E+03  0.7818608E-02  0.1160765E+00
         21   -1    0    0  501  502  0.00000000000E+00  0.00000000000E+00  0.10371747151E+03  0.10371747151E+03  0.00000000000E+00 0.  1.
         21   -1    0    0  502  503 -0.00000000000E+00 -0.00000000000E+00 -0.10175523763E+04  0.10175523763E+04  0.00000000000E+00 0.  1.
         -6    2    1    2    0  503  0.63185982414E+02 -0.34767329014E+02 -0.91562009160E+03  0.93467379466E+03  0.17336007253E+03 0.  0.
        -24    2    3    3    0    0  0.61084127277E+02 -0.72863699958E+02 -0.43101455347E+03  0.44854586000E+03  0.79871483287E+02 0.  0.
          6    2    1    2  501    0 -0.63185982414E+02  0.34767329014E+02  0.17851868210E+01  0.18659605314E+03  0.17208621274E+03 0.  0.
         24    2    5    5    0    0 -0.81951928996E+02  0.69912830248E+02  0.29371487332E+02  0.13790867301E+03  0.80945631905E+02 0.  0.
          5    1    5    5  501    0  0.18765946581E+02 -0.35145501234E+02 -0.27586300511E+02  0.48687380130E+02  0.47000000000E+01 0. -1.
        -11    1    6    6    0    0 -0.74756307592E+02  0.85671498309E+02  0.36143587861E+02  0.11930829850E+03  0.00000000000E+00 0.  1.
         12    1    6    6    0    0 -0.71956214032E+01 -0.15758668061E+02 -0.67721005295E+01  0.18600374513E+02  0.00000000000E+00 0. -1.
         -5    1    3    3    0  503  0.21018551375E+01  0.38096370944E+02 -0.48460553812E+03  0.48612793466E+03  0.47000000000E+01 0.  1.
         11    1    4    4    0    0  0.36649782551E+02  0.49912771593E+01 -0.79482804174E+02  0.87667756718E+02  0.00000000000E+00 0. -1.
        -12    1    4    4    0    0  0.24434344726E+02 -0.77854977118E+02 -0.35153174930E+03  0.36087810328E+03  0.00000000000E+00 0.  1.
</event>
<event>
12    1  0.8684423E-002  0.2048769E+03  0.7818608E-02  0.1145734E+00
         21   -1    0    0  503  502  0.00000000000E+00  0.00000000000E+00  0.30614363387E+03  0.30614363387E+03  0.00000000000E+00 0. -1.
         21   -1    0    0  501  503 -0.00000000000E+00 -0.00000000000E+00 -0.16689069481E+03  0.16689069481E+03  0.00000000000E+00 0. -1.
          6    2    1    2  501    0  0.55057165426E+02  0.96591091710E+02 -0.30568639276E+02  0.20692550288E+03  0.17182139440E+03 0.  0.
         24    2    3    3    0    0  0.12270659437E+02  0.77175174824E+02 -0.82157221968E+02  0.13698885450E+03  0.76873665469E+02 0.  0.
         -6    2    1    2    0  502 -0.55057165426E+02 -0.96591091710E+02  0.16982157834E+03  0.26610882580E+03  0.17208546783E+03 0.  0.
        -24    2    5    5    0    0  0.30131952247E+02 -0.73267274304E+02  0.12247919657E+03  0.16578645871E+03  0.78790661044E+02 0.  0.
          5    1    3    3  501    0  0.42786505989E+02  0.19415916886E+02  0.51588582692E+02  0.69936648386E+02  0.47000000000E+01 0. -1.
        -13    1    4    4    0    0 -0.30388836507E+02  0.14412035679E+02 -0.22604535919E+02  0.40523489494E+02  0.00000000000E+00 0.  1.
         14    1    4    4    0    0  0.42659495944E+02  0.62763139145E+02 -0.59552686049E+02  0.96465365003E+02  0.00000000000E+00 0. -1.
         -5    1    5    5    0  502 -0.85189117674E+02 -0.23323817406E+02  0.47342381764E+02  0.10032236709E+03  0.47000000000E+01 0.  1.
         11    1    6    6    0    0  0.15408203981E+02 -0.77816113859E+02  0.54897856620E+02  0.96470383992E+02  0.00000000000E+00 0. -1.
        -12    1    6    6    0    0  0.14723748267E+02  0.45488395550E+01  0.67581339952E+02  0.69316074716E+02  0.00000000000E+00 0.  1.
</event>
<event>
12    1  0.8684423E-002  0.1993199E+03  0.7818608E-02  0.1151378E+00
         21   -1    0    0  501  502  0.00000000000E+00  0.00000000000E+00  0.57355481142E+03  0.57355481142E+03  0.00000000000E+00 0.  1.
         21   -1    0    0  502  503 -0.00000000000E+00 -0.00000000000E+00 -0.16731757705E+03  0.16731757705E+03  0.00000000000E+00 0.  1.
         -6    2    1    2    0  503  0.80951898306E+02 -0.59201065525E+02 -0.81878933833E+02  0.21548225035E+03  0.17225116664E+03 0.  0.
        -24    2    3    3    0    0  0.84164587557E+02 -0.12856512226E+02  0.63831399769E+01  0.11563024653E+03  0.77978469667E+02 0.  0.
          6    2    1    2  501    0 -0.80951898306E+02  0.59201065525E+02  0.48811616820E+03  0.52539013812E+03  0.16649152405E+03 0.  0.
         24    2    5    5    0    0 -0.71044169165E+02  0.95992523802E+02  0.44508883647E+03  0.46772545417E+03  0.80007434262E+02 0.  0.
          5    1    5    5  501    0 -0.99077291408E+01 -0.36791458277E+02  0.43027331734E+02  0.57664683950E+02  0.47000000000E+01 0. -1.
        -11    1    6    6    0    0 -0.86853920695E+02  0.64654022496E+02  0.34996702809E+03  0.36633409193E+03  0.00000000000E+00 0.  1.
         12    1    6    6    0    0  0.15809751530E+02  0.31338501306E+02  0.95121808381E+02  0.10139136224E+03  0.00000000000E+00 0. -1.
         -5    1    3    3    0  503 -0.32126892510E+01 -0.46344553299E+02 -0.88262073810E+02  0.99852003815E+02  0.47000000000E+01 0.  1.
         11    1    4    4    0    0  0.69293581678E+02 -0.42934195419E+02  0.22602680177E+00  0.81516849094E+02  0.00000000000E+00 0. -1.
        -12    1    4    4    0    0  0.14871005878E+02  0.30077683192E+02  0.61571131751E+01  0.34113397437E+02  0.00000000000E+00 0.  1.
</event>
<event>
12    1  0.8684423E-002  0.1849282E+03  0.7818608E-02  0.1163132E+00
         21   -1    0    0  501  502  0.00000000000E+00  0.00000000000E+00  0.85890862531E+03  0.85890862531E+03  0.00000000000E+00 0. -1.
         21   -1    0    0  502  503 -0.00000000000E+00 -0.00000000000E+00 -0.51606009308E+02  0.51606009308E+02  0.00000000000E+00 0. -1.
         -6    2    1    2    0  503 -0.58048851300E+02 -0.35707363142E+02  0.18597708370E+03  0.26227070132E+03  0.17191207110E+03 0.  0.
        -24    2    3    3    0    0 -0.42053800799E+02 -0.28352805504E+02  0.23162168676E+02  0.98439331575E+02  0.81125903394E+02 0.  0.
          6    2    1    2  501    0  0.58048851300E+02  0.35707363142E+02  0.62132553230E+03  0.64824393330E+03  0.17184322811E+03 0.  0.
         24    2    5    5    0    0  0.78225340121E+02  0.79036786667E+02  0.45319116368E+03  0.47338460253E+03  0.79653836021E+02 0.  0.
          5    1    5    5  501    0 -0.20176488821E+02 -0.43329423525E+02  0.16813436862E+03  0.17485933076E+03  0.47000000000E+01 0. -1.
        -13    1    6    6    0    0  0.14962813404E+02 -0.10712703508E+02  0.23295433752E+02  0.29687119010E+02  0.00000000000E+00 0.  1.
         14    1    6    6    0    0  0.63262526718E+02  0.89749490175E+02  0.42989572993E+03  0.44369748352E+03  0.00000000000E+00 0. -1.
         -5    1    3    3    0  503 -0.15995050502E+02 -0.73545576385E+01  0.16281491502E+03  0.16383136975E+03  0.47000000000E+01 0.  1.
         13    1    4    4    0    0 -0.49154450815E+01  0.27812249911E+02  0.48110213149E+01  0.28650109451E+02  0.00000000000E+00 0. -1.
        -14    1    4    4    0    0 -0.37138355717E+02 -0.56165055415E+02  0.18351147361E+02  0.69789222124E+02  0.00000000000E+00 0.  1.
</event>
<event>
12    1  0.8684423E-002  0.2189246E+03  0.7818608E-02  0.1134904E+00
         21   -1    0    0  503  502  0.00000000000E+00  0.00000000000E+00  0.90946450116E+02  0.90946450116E+02  0.00000000000E+00 0. -1.
         21   -1    0    0  501  503 -0.00000000000E+00 -0.00000000000E+00 -0.67327874114E+03  0.67327874114E+03  0.00000000000E+00 0. -1.
          6    2    1    2  501    0  0.22363475006E+02 -0.13133213431E+03 -0.47155348806E+03  0.51989485103E+03  0.17372308285E+03 0.  0.
         24    2    3    3    0    0  0.59751628981E+02 -0.13270219595E+03 -0.28477475280E+03  0.32934790913E+03  0.78697239063E+02 0.  0.
         -6    2    1    2    0  502 -0.22363475006E+02  0.13133213431E+03 -0.11077880297E+03  0.24433034022E+03  0.17227047759E+03 0.  0.
        -24    2    5    5    0    0  0.43451700003E+02  0.43843126529E+02 -0.19132455442E+02  0.10147689518E+03  0.78238350109E+02 0.  0.
          5    1    3    3  501    0 -0.37388153974E+02  0.13700616405E+01 -0.18677873525E+03  0.19054694190E+03  0.47000000000E+01 0. -1.
        -11    1    4    4    0    0 -0.16275971786E+02 -0.18155824154E+02 -0.22279112920E+02  0.33028776556E+02  0.00000000000E+00 0.  1.
         12    1    4    4    0    0  0.76027600766E+02 -0.11454637180E+03 -0.26249563988E+03  0.29631913257E+03  0.00000000000E+00 0. -1.
         -5    1    5    5    0  502 -0.65815175010E+02  0.87489007784E+02 -0.91646347525E+02  0.14285344504E+03  0.47000000000E+01 0.  1.
         11    1    6    6    0    0  0.13476394331E+02  0.46164338036E+02  0.20037731083E+02  0.52098656196E+02  0.00000000000E+00 0. -1.
        -12    1    6    6    0    0  0.29975305672E+02 -0.23212115076E+01 -0.39170186526E+02  0.49378238987E+02  0.00000000000E+00 0.  1.
</event>
<event>
12    1  0.8684423E-002  0.2209220E+03  0.7818608E-02  0.1133232E+00
         21   -1    0    0  501  502  0.00000000000E+00  0.00000000000E+00  0.12699374489E+04  0.12699374489E+04  0.00000000000E+00 0. -1.
         21   -1    0    0  502  503 -0.00000000000E+00 -0.00000000000E+00 -0.47084448039E+02  0.47084448039E+02  0.00000000000E+00 0.  1.
         -6    2    1    2    0  503 -0.31933605842E+02  0.13478714464E+03  0.32882400376E+03  0.39614614854E+03  0.17210234168E+03 0.  0.
        -24    2    3    3    0    0 -0.82125946521E+02  0.56627180718E+02  0.17410445467E+03  0.21562335249E+03  0.78928830699E+02 0.  0.
          6    2    1    2  501    0  0.31933605842E+02 -0.13478714464E+03  0.89402899712E+03  0.92087574842E+03  0.17186322115E+03 0.  0.
         24    2    5    5    0    0 -0.11298442548E+02 -0.10585656730E+03  0.35013694492E+03  0.37448152923E+03  0.79418309545E+02 0.  0.
          5    1    5    5  501    0  0.43232048390E+02 -0.28930577345E+02  0.54389205220E+03  0.54639421919E+03  0.47000000000E+01 0. -1.
        -11    1    6    6    0    0 -0.40193778156E+02 -0.47533960518E+02  0.11826467338E+03  0.13364711061E+03  0.00000000000E+00 0.  1.
         12    1    6    6    0    0  0.28895335609E+02 -0.58322606780E+02  0.23187227154E+03  0.24083441862E+03  0.00000000000E+00 0. -1.
         -5    1    3    3    0  503  0.50192340679E+02  0.78159963925E+02  0.15471954909E+03  0.18052279605E+03  0.47000000000E+01 0.  1.
         13    1    4    4    0    0  0.35562263216E+01  0.20362530658E+02  0.82520302012E+02  0.85069851561E+02  0.00000000000E+00 0. -1.
        -14    1    4    4    0    0 -0.85682172843E+02  0.36264650061E+02  0.91584152657E+02  0.13055350093E+03  0.00000000000E+00 0.  1.
</event>
<event>
12    1  0.8684423E-002  0.2068890E+03  0.7818608E-02  0.1144539E+00
         21   -1    0    0  501  502  0.00000000000E+00  0.00000000000E+00  0.45152540398E+03  0.45152540398E+03  0.00000000000E+00 0.  1.
         21   -1    0    0  502  503 -0.00000000000E+00 -0.00000000000E+00 -0.10180078198E+03  0.10180078198E+03  0.00000000000E+00 0. -1.
         -6    2    1    2    0  503 -0.71582653676E+02  0.97978842840E+02  0.97779961408E+02  0.22883178347E+03  0.16756829749E+03 0.  0.
        -24    2    3    3    0    0 -0.31932894358E+02 -0.12971725446E+02  0.41003065624E+02  0.97958417535E+02  0.82016003147E+02 0.  0.
          6    2    1    2  501    0  0.71582653676E+02 -0.97978842840E+02  0.25194466058E+03  0.32449440249E+03  0.16461037421E+03 0.  0.
         24    2    5    5    0    0  0.39243358540E+02 -0.10965325176E+03  0.11043073317E+03  0.17878783611E+03  0.78779862277E+02 0.  0.
          5    1    5    5  501    0  0.32339295136E+02  0.11674408924E+02  0.14151392742E+03  0.14570656638E+03  0.47000000000E+01 0. -1.
        -11    1    6    6    0    0  0.32934696786E+01 -0.97811178622E+02  0.99097645868E+02  0.13927748211E+03  0.00000000000E+00 0.  1.
         12    1    6    6    0    0  0.35949888861E+02 -0.11842073141E+02  0.11333087301E+02  0.39510354000E+02  0.00000000000E+00 0. -1.
         -5    1    3    3    0  503 -0.39649759318E+02  0.11095056829E+03  0.56776895784E+02  0.13087336594E+03  0.47000000000E+01 0.  1.
         13    1    4    4    0    0 -0.23149149216E+02  0.16204137263E+02 -0.16615139725E+02  0.32779872513E+02  0.00000000000E+00 0. -1.
        -14    1    4    4    0    0 -0.87837451424E+01 -0.29175862710E+02  0.57618205349E+02  0.65178545022E+02  0.00000000000E+00 0.  1.
</event>
<event>
12    1  0.8684423E-002  0.1971298E+03  0.7818608E-02  0.1152534E+00
         21   -1    0    0  503  502  0.00000000000E+00  0.00000000000E+00  0.35960920363E+03  0.35960920363E+03  0.00000000000E+00 0.  1.
         21   -1    0    0  501  503 -0.00000000000E+00 -0.00000000000E+00 -0.12027257420E+03  0.12027257420E+03  0.00000000000E+00 0.  1.
          6    2    1    2  501    0  0.67963357239E+02  0.70664409556E+02  0.40926645089E+02  0.20133342609E+03  0.17101953537E+03 0.  0.
         24    2    3    3    0    0  0.56500819592E+02  0.10167135057E+03  0.69729171036E+02  0.15723699017E+03  0.79573284730E+02 0.  0.
         -6    2    1    2    0  502 -0.67963357239E+02 -0.70664409556E+02  0.19840998434E+03  0.27854835174E+03  0.16914545713E+03 0.  0.
        -24    2    5    5    0    0  0.18451407443E+01 -0.64436146463E+01  0.15392070354E+03  0.17367260147E+03  0.80160244563E+02 0.  0.
          5    1    3    3  501    0  0.11462537647E+02 -0.31006941011E+02 -0.28802525948E+02  0.44096435923E+02  0.47000000000E+01 0. -1.
        -13    1    4    4    0    0  0.56630147853E+02  0.70821359460E+02  0.11585561322E+02  0.91415883919E+02  0.00000000000E+00 0.  1.
         14    1    4    4    0    0 -0.12932826101E+00  0.30849991107E+02  0.58143609714E+02  0.65821106248E+02  0.00000000000E+00 0. -1.
         -5    1    5    5    0  502 -0.69808497983E+02 -0.64220794910E+02  0.44489280798E+02  0.10487575027E+03  0.47000000000E+01 0.  1.
         11    1    6    6    0    0 -0.20264498752E+02 -0.73091879829E+01  0.37326223142E+01  0.21863362229E+02  0.00000000000E+00 0. -1.
        -12    1    6    6    0    0  0.22109639496E+02  0.86557333656E+00  0.15018808123E+03  0.15180923924E+03  0.00000000000E+00 0.  1.
</event>
<event>
12    1  0.8684423E-002  0.1912275E+03  0.7818608E-02  0.1157567E+00
         21   -1    0    0  501  502  0.00000000000E+00  0.00000000000E+00  0.20588345203E+03  0.20588345203E+03  0.00000000000E+00 0.  1.
         21   -1    0    0  502  503 -0.00000000000E+00 -0.00000000000E+00 -0.25107918327E+03  0.25107918327E+03  0.00000000000E+00 0.  1.
         -6    2    1    2    0  503 -0.71584041974E+02  0.41064133283E+02 -0.14687270081E+03  0.24038436932E+03  0.17147162057E+03 0.  0.
        -24    2    3    3    0    0  0.21377357879E+01 -0.10836045722E+02 -0.12221590408E+03  0.14679710137E+03  0.80564706661E+02 0.  0.
          6    2    1    2  501    0  0.71584041974E+02 -0.41064133283E+02  0.10167696956E+03  0.21657826598E+03  0.17250333634E+03 0.  0.
         24    2    5    5    0    0  0.16679856541E+02 -0.86898042621E+02  0.45578415519E+02  0.12555983604E+03  0.76540140051E+02 0.  0.
          5    1    5    5  501    0  0.54904185433E+02  0.45833909338E+02  0.56098554045E+02  0.91018429943E+02  0.47000000000E+01 0. -1.
        -13    1    6    6    0    0 -0.15433845296E+02 -0.78384221640E+02  0.46285960738E+02  0.92329193348E+02  0.00000000000E+00 0.  1.
         14    1    6    6    0    0  0.32113701837E+02 -0.85138209803E+01 -0.70754521850E+00  0.33230642690E+02  0.00000000000E+00 0. -1.
         -5    1    3    3    0  503 -0.73721777762E+02  0.51900179005E+02 -0.24656796729E+02  0.93587267949E+02  0.47000000000E+01 0.  1.
         13    1    4    4    0    0 -0.17387479341E+02  0.25948766479E+02 -0.86385366810E+02  0.91859101446E+02  0.00000000000E+00 0. -1.
        -14    1    4    4    0    0  0.19525215129E+02 -0.36784812201E+02 -0.35830537266E+02  0.54937999920E+02  0.00000000000E+00 0.  1.
</event>
<event>
12    1  0.8684423E-002  0.1906608E+03  0.7818608E-02  0.1159460E+00
         21   -1    0    0  503  502  0.00000000000E+00  0.00000000000E+00  0.89274985334E+02  0.89274985334E+02  0.00000000000E+00 0.  1.
         21   -1    0    0  501  503 -0.00000000000E+00 -0.00000000000E+00 -0.79262269885E+03  0.79262269885E+03  0.00000000000E+00 0.  1.
          6    2    1    2  501    0  0.55962500043E+02 -0.36937504617E+02 -0.66818956323E+03  0.69485885175E+03  0.17848067341E+03 0.  0.
         24    2    3    3    0    0  0.77368423970E+01  0.27155264093E+02 -0.51519514434E+03  0.52204976845E+03  0.79452230260E+02 0.  0.
         -6    2    1    2    0  502 -0.55962500043E+02  0.36937504617E+02 -0.35158150287E+02  0.18703883244E+03  0.17102996419E+03 0.  0.
        -24    2    5    5    0    0  0.48008099259E+01  0.73492566518E+02 -0.29886742461E+01  0.10902974593E+03  0.80338958266E+02 0.  0.
          5    1    3    3  501    0  0.48225657646E+02 -0.64092768710E+02 -0.15299441889E+03  0.17280908329E+03  0.47000000000E+01 0. -1.
        -13    1    4    4    0    0  0.32258250289E+02 -0.10725064140E+02 -0.13622382340E+03  0.14040139520E+03  0.00000000000E+00 0.  1.
         14    1    4    4    0    0 -0.24521407892E+02  0.37880328233E+02 -0.37897132094E+03  0.38164837326E+03  0.00000000000E+00 0. -1.
         -5    1    5    5    0  502 -0.60763309969E+02 -0.36555061900E+02 -0.32169476041E+02  0.78009086507E+02  0.47000000000E+01 0.  1.
         13    1    6    6    0    0  0.31045288179E+02  0.49038426486E+02 -0.28843583962E+02  0.64811492238E+02  0.00000000000E+00 0. -1.
        -14    1    6    6    0    0 -0.26244478253E+02  0.24454140031E+02  0.25854909715E+02  0.44218253695E+02  0.00000000000E+00 0.  1.
</event>
<event>
12    1  0.8684423E-002  0.2980730E+03  0.7818608E-02  0.1086276E+00
         21   -1    0    0  503  502  0.00000000000E+00  0.00000000000E+00  0.46320855044E+03  0.46320855044E+03  0.00000000000E+00 0. -1.
         21   -1    0    0  501  503 -0.00000000000E+00 -0.00000000000E+00 -0.26088250880E+03  0.26088250880E+03  0.00000000000E+00 0. -1.
          6    2    1    2  501    0 -0.24254324874E+03 -0.56455252816E+01 -0.85664256715E+02  0.30962038677E+03  0.17224203773E+03 0.  0.
         24    2    3    3    0    0 -0.21548738350E+03 -0.53750243708E+02 -0.93504233525E+02  0.25367721011E+03  0.79279152977E+02 0.  0.
         -6    2    1    2    0  502  0.24254324874E+03  0.56455252816E+01  0.28799029835E+03  0.41447067246E+03  0.17317166893E+03 0.  0.
        -24    2    5    5    0    0  0.15746759075E+03 -0.61481776881E+02  0.21049744134E+03  0.28116210122E+03  0.78529633433E+02 0.  0.
          5    1    3    3  501    0 -0.27055865246E+02  0.48104718426E+02  0.78399768094E+01  0.55943176665E+02  0.47000000000E+01 0. -1.
        -11    1    4    4    0    0 -0.84084499001E+02 -0.52973386421E+02 -0.66356170592E+02  0.11949696237E+03  0.00000000000E+00 0.  1.
         12    1    4    4    0    0 -0.13140288449E+03 -0.77685728656E+00 -0.27148062933E+02  0.13418024773E+03  0.00000000000E+00 0. -1.
         -5    1    5    5    0  502  0.85075657987E+02  0.67127302163E+02  0.77492857014E+02  0.13330857124E+03  0.47000000000E+01 0.  1.
         11    1    6    6    0    0  0.16059007176E+03 -0.65797701889E+02  0.17937650517E+03  0.24958854006E+03  0.00000000000E+00 0. -1.
        -12    1    6    6    0    0 -0.31224810094E+01  0.43159250080E+01  0.31120936171E+02  0.31573561162E+02  0.00000000000E+00 0.  1.
</event>
<event>
12    1  0.8684423E-002  0.2645397E+03  0.7818608E-02  0.1104469E+00
         21   -1    0    0  501  502  0.00000000000E+00  0.00000000000E+00  0.28626819565E+03  0.28626819565E+03  0.00000000000E+00 0. -1.
         21   -1    0    0  502  503 -0.00000000000E+00 -0.00000000000E+00 -0.31917821468E+03  0.31917821468E+03  0.00000000000E+00 0. -1.
         -6    2    1    2    0  503  0.39500169905E+02  0.19554937891E+03 -0.16306777939E+03  0.31076089687E+03  0.17372798086E+03 0.  0.
        -24    2    3    3    0    0  0.81385178227E+02  0.88548975521E+02 -0.71398246575E+02  0.16369345148E+03  0.85049210125E+02 0.  0.
          6    2    1    2  501    0 -0.39500169905E+02 -0.19554937891E+03  0.13015776035E+03  0.29468551346E+03  0.17348972951E+03 0.  0.
         24    2    5    5    0    0 -0.26149315962E+02 -0.57836778949E+02  0.11935185738E+03  0.15582636530E+03  0.77512002537E+02 0.  0.
          5    1    5    5  501    0 -0.13350853943E+02 -0.13771259996E+03  0.10805902973E+02  0.13885914816E+03  0.47000000000E+01 0. -1.
        -13    1    6    6    0    0  0.20339838815E+02 -0.20476587195E+02  0.78226795698E+02  0.83381240284E+02  0.00000000000E+00 0.  1.
         14    1    6    6    0    0 -0.46489154777E+02 -0.37360191754E+02  0.41125061681E+02  0.72445125013E+02  0.00000000000E+00 0. -1.
         -5    1    3    3    0  503 -0.41885008322E+02  0.10700040339E+03 -0.91669532814E+02  0.14706744539E+03  0.47000000000E+01 0.  1.
         11    1    4    4    0    0 -0.13753636794E+02  0.43996061203E+01 -0.24225192464E+02  0.28202464591E+02  0.00000000000E+00 0. -1.
        -12    1    4    4    0    0  0.95138815021E+02  0.84149369401E+02 -0.47173054111E+02  0.13549098689E+03  0.00000000000E+00 0.  1.
</event>
<event>
12    1  0.8684423E-002  0.1874692E+03  0.7818608E-02  0.1162882E+00
         21   -1    0    0  501  502  0.00000000000E+00  0.00000000000E+00  0.63443368146E+02  0.63443368146E+02  0.00000000000E+00 0.  1.
         21   -1    0    0  502  503 -0.00000000000E+00 -0.00000000000E+00 -0.84540743707E+03  0.84540743707E+03  0.00000000000E+00 0. -1.
         -6    2    1    2    0  503 -0.73346436556E+02 -0.88331749002E+01 -0.66350651920E+03  0.68709217669E+03  0.16247163911E+03 0.  0.
        -24    2    3    3    0    0 -0.37648843003E+02  0.32310513432E+02 -0.57753135044E+03  0.58520527410E+03  0.80382507084E+02 0.  0.
          6    2    1    2  501    0  0.73346436556E+02  0.88331749002E+01 -0.11845754973E+03  0.22175862853E+03  0.17229908156E+03 0.  0.
         24    2    5    5    0    0  0.75929177067E+02  0.67173403120E+02 -0.94698507085E+02  0.15853810271E+03  0.76739929310E+02 0.  0.
          5    1    5    5  501    0 -0.25827405117E+01 -0.58340228219E+02 -0.23759042644E+02  0.63220525817E+02  0.47000000000E+01 0. -1.
        -11    1    6    6    0    0  0.51432409525E+02 -0.99108986078E+00 -0.22108755456E+02  0.55991714355E+02  0.00000000000E+00 0.  1.
         12    1    6    6    0    0  0.24496767542E+02  0.68164492980E+02 -0.72589751629E+02  0.10254638836E+03  0.00000000000E+00 0. -1.
         -5    1    3    3    0  503 -0.35697593552E+02 -0.41143688332E+02 -0.85975168762E+02  0.10188690259E+03  0.47000000000E+01 0.  1.
         11    1    4    4    0    0  0.18881959711E+02  0.22787404639E+02 -0.32025059308E+03  0.32161504408E+03  0.00000000000E+00 0. -1.
        -12    1    4    4    0    0 -0.56530802715E+02  0.95231087929E+01 -0.25728075736E+03  0.26359023002E+03  0.00000000000E+00 0.  1.
</event>
<event>
12    1  0.8684423E-002  0.1942128E+03  0.7818608E-02  0.1155633E+00
         21   -1    0    0  503  502  0.00000000000E+00  0.00000000000E+00  0.20410905988E+03  0.20410905988E+03  0.00000000000E+00 0. -1.
         21   -1    0    0  501  503 -0.00000000000E+00 -0.00000000000E+00 -0.22219819002E+03  0.22219819002E+03  0.00000000000E+00 0. -1.
          6    2    1    2  501    0  0.66534576769E+02 -0.38373319814E+02 -0.10103419617E+03  0.21892126080E+03  0.17837950570E+03 0.  0.
         24    2    3    3    0    0  0.92219904581E+02  0.19715598820E+02 -0.95904040004E+02  0.15502707456E+03  0.77088217770E+02 0.  0.
         -6    2    1    2    0  502 -0.66534576769E+02  0.38373319814E+02  0.82945066025E+02  0.20738598911E+03  0.17386691152E+03 0.  0.
        -24    2    5    5    0    0 -0.36262959999E+02  0.80350343096E+02  0.10422141745E+03  0.15123249950E+03  0.65099809099E+02 0.  0.
          5    1    3    3  501    0 -0.25685327812E+02 -0.58088918635E+02 -0.51301561628E+01  0.63894186240E+02  0.47000000000E+01 0. -1.
        -11    1    4    4    0    0 -0.53732499078E+01  0.17682493934E+02 -0.43188793768E+00  0.18485911757E+02  0.00000000000E+00 0.  1.
         12    1    4    4    0    0  0.97593154489E+02  0.20331048859E+01 -0.95472152067E+02  0.13654116280E+03  0.00000000000E+00 0. -1.
         -5    1    5    5    0  502 -0.30271616770E+02 -0.41977023282E+02 -0.21276351426E+02  0.56153489611E+02  0.47000000000E+01 0.  1.
         13    1    6    6    0    0  0.13099742366E+02  0.48000365469E+02  0.38583876274E+02  0.62963114944E+02  0.00000000000E+00 0. -1.
        -14    1    6    6    0    0 -0.49362702365E+02  0.32349977628E+02  0.65637541177E+02  0.88269384552E+02  0.00000000000E+00 0.  1.
</event>
<event>
12    1  0.8684423E-002  0.1761414E+03  0.7818608E-02  0.1172312E+00
         21   -1    0    0  501  502  0.00000000000E+00  0.00000000000E+00  0.84716308308E+03  0.84716308308E+03  0.00000000000E+00 0.  1.
         21   -1    0    0  502  503 -0.00000000000E+00 -0.00000000000E+00 -0.43895292686E+02  0.43895292686E+02  0.00000000000E+00 0.  1.
         -6    2    1    2    0  503  0.27545317775E+02 -0.11812262223E+02  0.21031137901E+03  0.27249302245E+03  0.17065549237E+03 0.  0.
        -24    2    3    3    0    0 -0.80330060336E+01  0.34544979286E+02  0.48294250334E+02  0.10019545733E+03  0.80305107393E+02 0.  0.
          6    2    1    2  501    0 -0.27545317775E+02  0.11812262223E+02  0.59295641138E+03  0.61856535331E+03  0.17357279869E+03 0.  0.
         24    2    5    5    0    0 -0.67919088108E+02 -0.25004835013E+02  0.49771303929E+03  0.50866116818E+03  0.76024142480E+02 0.  0.
          5    1    5    5  501    0  0.40373770333E+02  0.36817097235E+02  0.95243372095E+02  0.10990418512E+03  0.47000000000E+01 0. -1.
        -11    1    6    6    0    0 -0.11314108678E+02  0.25961734194E+02  0.15749356065E+03  0.16001950613E+03  0.00000000000E+00 0.  1.
         12    1    6    6    0    0 -0.56604979429E+02 -0.50966569207E+02  0.34021947864E+03  0.34864166205E+03  0.00000000000E+00 0. -1.
         -5    1    3    3    0  503  0.35578323808E+02 -0.46357241509E+02  0.16201712868E+03  0.17229756513E+03  0.47000000000E+01 0.  1.
         13    1    4    4    0    0  0.26707777664E+02  0.38547582808E+02  0.92855238585E+01  0.47806301691E+02  0.00000000000E+00 0. -1.
        -14    1    4    4    0    0 -0.34740783697E+02 -0.40026035216E+01  0.39008726476E+02  0.52389155634E+02  0.00000000000E+00 0.  1.
</event>
<event>
12    1  0.8684423E-002  0.1867065E+03  0.7818608E-02  0.1161720E+00
         21   -1    0    0  501  502  0.00000000000E+00  0.00000000000E+00  0.44312155909E+03  0.44312155909E+03  0.00000000000E+00 0.  1.
         21   -1    0    0  502  503 -0.00000000000E+00 -0.00000000000E+00 -0.10841623104E+03  0.10841623104E+03  0.00000000000E+00 0.  1.
         -6    2    1    2    0  503 -0.53870964915E+02 -0.52332594257E+02  0.21427190875E+02  0.18684270865E+03  0.16973594783E+03 0.  0.
        -24    2    3    3    0    0 -0.86708770213E+02 -0.26932808303E+02 -0.26885204128E+02  0.12297058567E+03  0.78454851624E+02 0.  0.
          6    2    1    2  501    0  0.53870964915E+02  0.52332594257E+02  0.31327813717E+03  0.36469508148E+03  0.17093428544E+03 0.  0.
         24    2    5    5    0    0  0.43768274947E+02  0.66041983689E+02  0.10600224852E+03  0.15666768972E+03  0.83851552220E+02 0.  0.
          5    1    5    5  501    0  0.10102689968E+02 -0.13709389432E+02  0.20727588866E+03  0.20802739176E+03  0.47000000000E+01 0. -1.
        -13    1    6    6    0    0  0.15729100170E+02  0.69285216085E+02  0.10698144446E+03  0.12842458962E+03  0.00000000000E+00 0.  1.
         14    1    6    6    0    0  0.28039174777E+02 -0.32432323960E+01 -0.97919594277E+00  0.28243100100E+02  0.00000000000E+00 0. -1.
         -5    1    3    3    0  503  0.32837805299E+02 -0.25399785953E+02  0.48312395003E+02  0.63872122982E+02  0.47000000000E+01 0.  1.
         11    1    4    4    0    0 -0.22959997592E+01 -0.11433566679E+01 -0.34299516603E+02  0.34395286284E+02  0.00000000000E+00 0. -1.
        -12    1    4    4    0    0 -0.84412770454E+02 -0.25789451635E+02  0.74143124751E+01  0.88575299383E+02  0.00000000000E+00 0.  1.
</event>
<event>
12    1  0.8684423E-002  0.1979717E+03  0.7818608E-02  0.1151979E+00
         21   -1    0    0  501  502  0.00000000000E+00  0.00000000000E+00  0.65482751058E+03  0.65482751058E+03  0.00000000000E+00 0.  1.
         21   -1    0    0  502  503 -0.00000000000E+00 -0.00000000000E+00 -0.66847465307E+02  0.66847465307E+02  0.00000000000E+00 0.  1.
         -6    2    1    2    0  503  0.25450838512E+02 -0.95082198496E+02  0.17295665062E+03  0.26288169327E+03  0.17176848376E+03 0.  0.
        -24    2    3    3    0    0  0.55736194973E+02  0.25685961477E+01  0.84376560791E+02  0.12752511669E+03  0.77653913360E+02 0.  0.
          6    2    1    2  501    0 -0.25450838512E+02  0.95082198496E+02  0.41502339466E+03  0.45879328262E+03  0.16899256909E+03 0.  0.
         24    2    5    5    0    0 -0.55860364517E+02  0.32193111771E+01  0.18600167856E+03  0.21012369102E+03  0.80153582659E+02 0.  0.
          5    1    5    5  501    0  0.30409526005E+02  0.91862887319E+02  0.22902171610E+03  0.24866959159E+03  0.47000000000E+01 0. -1.
        -11    1    6    6    0    0 -0.72693355942E+02  0.17253400034E+02  0.15601756615E+03  0.17298405926E+03  0.00000000000E+00 0.  1.
         12    1    6    6    0    0  0.16832991424E+02 -0.14034088857E+02  0.29984112406E+02  0.37139631758E+02  0.00000000000E+00 0. -1.
         -5    1    3    3    0  503 -0.30285356461E+02 -0.97650794643E+02  0.88580089826E+02  0.13535657658E+03  0.47000000000E+01 0.  1.
         11    1    4    4    0    0  0.22946130266E+02  0.33748441914E+02  0.12662529879E+02  0.42729637124E+02  0.00000000000E+00 0. -1.
        -12    1    4    4    0    0  0.32790064707E+02 -0.31179845767E+02  0.71714030911E+02  0.84795479568E+02  0.00000000000E+00 0.  1.
</event>
<event>
12    1  0.8684423E-002  0.2385584E+03  0.7818608E-02  0.1121360E+00
         21   -1    0    0  503  502  0.00000000000E+00  0.00000000000E+00  0.27004092746E+03  0.27004092746E+03  0.00000000000E+00 0. -1.
         21   -1    0    0  501  503 -0.00000000000E+00 -0.00000000000E+00 -0.27059210974E+03  0.27059210974E+03  0.00000000000E+00 0. -1.
          6    2    1    2  501    0 -0.15681815035E+03 -0.31367437628E+02 -0.13068801513E+03  0.26888735373E+03  0.17217782457E+03 0.  0.
         24    2    3    3    0    0 -0.53410687291E+02  0.12026248010E+02 -0.12326644359E+03  0.15640053187E+03  0.79178141526E+02 0.  0.
         -6    2    1    2    0  502  0.15681815035E+03  0.31367437628E+02  0.13013683285E+03  0.27174568346E+03  0.17701489427E+03 0.  0.
        -24    2    5    5    0    0  0.11966995705E+03  0.22922558127E+02  0.10216339578E+02  0.14583174872E+03  0.79474417576E+02 0.  0.
          5    1    3    3  501    0 -0.10340746306E+03 -0.43393685638E+02 -0.74215715487E+01  0.11248682187E+03  0.47000000000E+01 0. -1.
        -13    1    4    4    0    0 -0.71406877060E+02  0.76727589461E+01 -0.71157694558E+02  0.10110010295E+03  0.00000000000E+00 0.  1.
         14    1    4    4    0    0  0.17996189769E+02  0.43534890641E+01 -0.52108749028E+02  0.55300428918E+02  0.00000000000E+00 0. -1.
         -5    1    5    5    0  502  0.37148193303E+02  0.84448795008E+01  0.11992049328E+03  0.12591393475E+03  0.47000000000E+01 0.  1.
         11    1    6    6    0    0  0.74575020819E+02 -0.88062095455E+00  0.42149154437E+02  0.85666565492E+02  0.00000000000E+00 0. -1.
        -12    1    6    6    0    0  0.45094936226E+02  0.23803179081E+02 -0.31932814859E+02  0.60165183225E+02  0.00000000000E+00 0.  1.
</event>
<event>
12    1  0.8684423E-002  0.1784345E+03  0.7818608E-02  0.1169333E+00
         21   -1    0    0  503  502  0.00000000000E+00  0.00000000000E+00  0.28452013840E+03  0.28452013840E+03  0.00000000000E+00 0.  1.
         21   -1    0    0  501  503 -0.00000000000E+00 -0.00000000000E+00 -0.12123078465E+03  0.12123078465E+03  0.00000000000E+00 0.  1.
          6    2    1    2  501    0 -0.21669848279E+02  0.45708494308E+02  0.25327277735E+02  0.18022304418E+03  0.17111407271E+03 0.  0.
         24    2    3    3    0    0  0.46392359457E+02 -0.65513672758E+00  0.29446654673E+02  0.97633034672E+02  0.80699589639E+02 0.  0.
         -6    2    1    2    0  502  0.21669848279E+02 -0.45708494308E+02  0.13796207601E+03  0.22552787886E+03  0.17108606299E+03 0.  0.
        -24    2    5    5    0    0  0.43223844618E+02 -0.64295628163E+02  0.15396260654E+03  0.19254055887E+03  0.85820475729E+02 0.  0.
          5    1    3    3  501    0 -0.68062207735E+02  0.46363631036E+02 -0.41193769385E+01  0.82590009511E+02  0.47000000000E+01 0. -1.
        -13    1    4    4    0    0  0.31600576546E+01  0.35618166624E+02  0.49016445979E+01  0.36092462895E+02  0.00000000000E+00 0.  1.
         14    1    4    4    0    0  0.43232301802E+02 -0.36273303352E+02  0.24545010075E+02  0.61540571778E+02  0.00000000000E+00 0. -1.
         -5    1    5    5    0  502 -0.21553996340E+02  0.18587133854E+02 -0.16000530524E+02  0.32987319991E+02  0.47000000000E+01 0.  1.
         11    1    6    6    0    0  0.32951313662E+02  0.12143477081E+02  0.28319157454E+02  0.45113498939E+02  0.00000000000E+00 0. -1.
        -12    1    6    6    0    0  0.10272530957E+02 -0.76439105244E+02  0.12564344908E+03  0.14742705993E+03  0.00000000000E+00 0.  1.
</event>
<event>
12    1  0.8684423E-002  0.1951214E+03  0.7818608E-02  0.1154589E+00
         21   -1    0    0  503  502  0.00000000000E+00  0.00000000000E+00  0.34541237480E+03  0.34541237480E+03  0.00000000000E+00 0.  1.
         21   -1    0    0  501  503 -0.00000000000E+00 -0.00000000000E+00 -0.27813725941E+03  0.27813725941E+03  0.00000000000E+00 0.  1.
          6    2    1    2  501    0 -0.21721177207E+02 -0.83182591820E+02 -0.20993847024E+03  0.28455152175E+03  0.17176802416E+03 0.  0.
         24    2    3    3    0    0 -0.22327756153E+02 -0.72198927702E+02 -0.23373655511E+03  0.25791606308E+03  0.78592013228E+02 0.  0.
         -6    2    1    2    0  502  0.21721177207E+02  0.83182591820E+02  0.27721358562E+03  0.33899811246E+03  0.17516048377E+03 0.  0.
        -24    2    5    5    0    0 -0.21152732272E+02 -0.10146603163E+02  0.81423055869E+02  0.11785442096E+03  0.81911897022E+02 0.  0.
          5    1    3    3  501    0  0.60657894553E+00 -0.10983664118E+02  0.23798084870E+02  0.26635458677E+02  0.47000000000E+01 0. -1.
        -11    1    4    4    0    0 -0.48852707451E+02 -0.65367947817E+02 -0.17780496472E+03  0.19563783148E+03  0.00000000000E+00 0.  1.
         12    1    4    4    0    0  0.26524951298E+02 -0.68309798853E+01 -0.55931590393E+02  0.62278231602E+02  0.00000000000E+00 0. -1.
         -5    1    5    5    0  502  0.42873909480E+02  0.93329194983E+02  0.19579052975E+03  0.22114369150E+03  0.47000000000E+01 0.  1.
         11    1    6    6    0    0 -0.30922508416E+02  0.17229468261E+02  0.45751078568E+01  0.35692964506E+02  0.00000000000E+00 0. -1.
        -12    1    6    6    0    0  0.97697761435E+01 -0.27376071424E+02  0.76847948013E+02  0.82161456452E+02  0.00000000000E+00 0.  1.
</event>
<event>
12    1  0.8684423E-002  0.2158629E+03  0.7818608E-02  0.1137061E+00
         21   -1    0    0  501  502  0.00000000000E+00  0.00000000000E+00  0.62156792291E+03  0.62156792291E+03  0.00000000000E+00 0.  1.
         21   -1    0    0  502  503 -0.00000000000E+00 -0.00000000000E+00 -0.74972286255E+02  0.74972286255E+02  0.00000000000E+00 0.  1.
         -6    2    1    2    0  503 -0.12379445810E+03 -0.41546828042E+02  0.28622675361E+03  0.35832614383E+03  0.17152452912E+03 0.  0.
        -24    2    3    3    0    0 -0.13509593129E+03 -0.24294432516E+02  0.29541842061E+03  0.33526220684E+03  0.79294224229E+02 0.  0.
          6    2    1    2  501    0  0.12379445810E+03  0.41546828042E+02  0.26036888304E+03  0.33821406533E+03  0.17188831245E+03 0.  0.
         24    2    5    5    0    0  0.94836224882E+02  0.80999217582E+02  0.24609360375E+03  0.28701891018E+03  0.79139182449E+02 0.  0.
          5    1    5    5  501    0  0.28958233221E+02 -0.39452389540E+02  0.14275279289E+02  0.51195155147E+02  0.47000000000E+01 0. -1.
        -13    1    6    6    0    0  0.96601052278E+02  0.37040109357E+02  0.16477993456E+03  0.19456659487E+03  0.00000000000E+00 0.  1.
         14    1    6    6    0    0 -0.17648273964E+01  0.43959108225E+02  0.81313669184E+02  0.92452315319E+02  0.00000000000E+00 0. -1.
         -5    1    3    3    0  503  0.11301473184E+02 -0.17252395526E+02 -0.91916669956E+01  0.23063936995E+02  0.47000000000E+01 0.  1.
         13    1    4    4    0    0 -0.36330088825E+02  0.91481574691E+01  0.16011908969E+03  0.16444356790E+03  0.00000000000E+00 0. -1.
        -14    1    4    4    0    0 -0.98765842462E+02 -0.33442589985E+02  0.13529933091E+03  0.17081863894E+03  0.00000000000E+00 0.  1.
</event>
<event>
12    1  0.8684423E-002  0.1852222E+03  0.7818608E-02  0.1163185E+00
         21   -1    0    0  501  502  0.00000000000E+00  0.00000000000E+00  0.72295990486E+02  0.72295990486E+02  0.00000000000E+00 0.  1.
         21   -1    0    0  502  503 -0.00000000000E+00 -0.00000000000E+00 -0.47201773971E+03  0.47201773971E+03  0.00000000000E+00 0. -1.
         -6    2    1    2    0  503  0.38624432109E+02  0.53717929984E+02 -0.21445874720E+03  0.28337222458E+03  0.17300231402E+03 0.  0.
        -24    2    3    3    0    0  0.14355870001E+02 -0.31261756481E+02 -0.14158560690E+03  0.16872888725E+03  0.85085632673E+02 0.  0.
          6    2    1    2  501    0 -0.38624432109E+02 -0.53717929984E+02 -0.18526300203E+03  0.26094150562E+03  0.17143694665E+03 0.  0.
         24    2    5    5    0    0  0.33630888959E+02  0.65273189759E+01 -0.86916153721E+02  0.12476326207E+03  0.82691058759E+02 0.  0.
          5    1    5    5  501    0 -0.72255321068E+02 -0.60245248960E+02 -0.98346848309E+02  0.13617824355E+03  0.47000000000E+01 0. -1.
        -11    1    6    6    0    0  0.62605639640E+01  0.42591759723E+02 -0.32287169479E+02  0.53811838571E+02  0.00000000000E+00 0.  1.
         12    1    6    6    0    0  0.27370324995E+02 -0.36064440747E+02 -0.54628984242E+02  0.70951423495E+02  0.00000000000E+00 0. -1.
         -5    1    3    3    0  503  0.24268562109E+02  0.84979686465E+02 -0.72873140292E+02  0.11464333733E+03  0.47000000000E+01 0.  1.
         11    1    4    4    0    0 -0.25914994708E+02  0.77267463791E+01 -0.84514073134E+02  0.88735100823E+02  0.00000000000E+00 0. -1.
        -12    1    4    4    0    0  0.40270864708E+02 -0.38988502860E+02 -0.57071533770E+02  0.79993786424E+02  0.00000000000E+00 0.  1.
</event>
<event>
12    1  0.8684423E-002  0.2918070E+03  0.7818608E-02  0.1089490E+00
         21   -1    0    0  501  502  0.00000000000E+00  0.00000000000E+00  0.40254933475E+03  0.40254933475E+03  0.00000000000E+00 0.  1.
         21   -1    0    0  502  503 -0.00000000000E+00 -0.00000000000E+00 -0.30563257059E+03  0.30563257059E+03  0.00000000000E+00 0.  1.
         -6    2    1    2    0  503 -0.19669320050E+03  0.12972818205E+03 -0.14852464216E+03  0.32687778298E+03  0.17109032508E+03 0.  0.
        -24    2    3    3    0    0 -0.77443878905E+02  0.26361793264E+02 -0.12308129120E+03  0.16695759933E+03  0.77674559579E+02 0.  0.
          6    2    1    2  501    0  0.19669320050E+03 -0.12972818205E+03  0.24544140631E+03  0.38130412236E+03  0.17214451330E+03 0.  0.
         24    2    5    5    0    0  0.99409451253E+02 -0.96630582382E+02  0.22294020612E+03  0.27600467801E+03  0.85185317556E+02 0.  0.
          5    1    5    5  501    0  0.97283749247E+02 -0.33097599668E+02  0.22501200189E+02  0.10529944435E+03  0.47000000000E+01 0. -1.
        -11    1    6    6    0    0  0.55967075485E+02  0.38564621837E+00  0.67351390377E+02  0.87570954357E+02  0.00000000000E+00 0.  1.
         12    1    6    6    0    0  0.43442375768E+02 -0.97016228600E+02  0.15558881575E+03  0.18843372365E+03  0.00000000000E+00 0. -1.
         -5    1    3    3    0  503 -0.11924932159E+03  0.10336638879E+03 -0.25443350959E+02  0.15992018365E+03  0.47000000000E+01 0.  1.
         11    1    4    4    0    0 -0.89614899519E+02  0.31572878842E+02 -0.12052571250E+03  0.15347352953E+03  0.00000000000E+00 0. -1.
        -12    1    4    4    0    0  0.12171020614E+02 -0.52110855779E+01 -0.25555786997E+01  0.13484069793E+02  0.00000000000E+00 0.  1.
</event>
<event>
12    1  0.8684423E-002  0.2517394E+03  0.7818608E-02  0.1112288E+00
         21   -1    0    0  503  502  0.00000000000E+00  0.00000000000E+00  0.34116969918E+03  0.34116969918E+03  0.00000000000E+00 0. -1.
         21   -1    0    0  501  503 -0.00000000000E+00 -0.00000000000E+00 -0.21718172700E+03  0.21718172700E+03  0.00000000000E+00 0. -1.
          6    2    1    2  501    0 -0.84696217201E+02  0.16157840730E+03  0.16876200288E+03  0.30266129761E+03  0.17274899867E+03 0.  0.
         24    2    3    3    0    0 -0.55667910307E+01  0.85116140582E+01  0.46594723992E+02  0.91384599154E+02  0.77952805738E+02 0.  0.
         -6    2    1    2    0  502  0.84696217201E+02 -0.16157840730E+03 -0.44774030702E+02  0.25569012857E+03  0.17346958555E+03 0.  0.
        -24    2    5    5    0    0  0.11590903367E+03 -0.12611916040E+03 -0.70761339257E+02  0.20156963052E+03  0.79260343861E+02 0.  0.
          5    1    3    3  501    0 -0.79129426170E+02  0.15306679324E+03  0.12216727889E+03  0.21127669845E+03  0.47000000000E+01 0. -1.
        -11    1    4    4    0    0  0.86716453424E+00 -0.30743450245E+02  0.40940651019E+02  0.51205943143E+02  0.00000000000E+00 0.  1.
         12    1    4    4    0    0 -0.64339555649E+01  0.39255064303E+02  0.56540729723E+01  0.40178656011E+02  0.00000000000E+00 0. -1.
         -5    1    5    5    0  502 -0.31212816474E+02 -0.35459246903E+02  0.25987308555E+02  0.54120498049E+02  0.47000000000E+01 0.  1.
         11    1    6    6    0    0  0.72862075084E+02 -0.11180682411E+03 -0.79548034159E+02  0.15536260053E+03  0.00000000000E+00 0. -1.
        -12    1    6    6    0    0  0.43046958591E+02 -0.14312336287E+02  0.87866949028E+01  0.46207029998E+02  0.00000000000E+00 0.  1.
</event>
<event>
12    1  0.8684423E-002  0.1735911E+03  0.7818608E-02  0.1174360E+00
         21   -1    0    0  503  502  0.00000000000E+00  0.00000000000E+00  0.10443585811E+04  0.10443585811E+04  0.00000000000E+00 0.  1.
         21   -1    0    0  501  503 -0.00000000000E+00 -0.00000000000E+00 -0.15529283576E+03  0.15529283576E+03  0.00000000000E+00 0.  1.
          6    2    1    2  501    0  0.27853854218E+02  0.28523444163E+02 -0.96802212499E+02  0.19875745173E+03  0.16895097577E+03 0.  0.
         24    2    3    3    0    0 -0.30523798189E+02 -0.32147314328E+02 -0.79889508077E+02  0.11275151701E+03  0.66071317626E+02 0.  0.
         -6    2    1    2    0  502 -0.27853854218E+02 -0.28523444163E+02  0.98586795785E+03  0.10008939651E+04  0.16811803908E+03 0.  0.
        -24    2    5    5    0    0 -0.54025453305E+02 -0.92509678285E+01  0.93674803215E+03  0.94180726575E+03  0.80620841477E+02 0.  0.
          5    1    3    3  501    0  0.58377652407E+02  0.60670758490E+02 -0.16912704422E+02  0.86005934721E+02  0.47000000000E+01 0. -1.
        -13    1    4    4    0    0 -0.33233525553E+02  0.80720872766E+01 -0.56786587251E+02  0.66289835610E+02  0.00000000000E+00 0.  1.
         14    1    4    4    0    0  0.27097273632E+01 -0.40219401604E+02 -0.23102920827E+02  0.46461681400E+02  0.00000000000E+00 0. -1.
         -5    1    5    5    0  502  0.26171599088E+02 -0.19272476334E+02  0.49119925706E+02  0.59086699385E+02  0.47000000000E+01 0.  1.
         11    1    6    6    0    0 -0.34132253676E+02  0.14070629670E+02  0.15050551718E+03  0.15496742904E+03  0.00000000000E+00 0. -1.
        -12    1    6    6    0    0 -0.19893199629E+02 -0.23321597499E+02  0.78624251496E+03  0.78683983671E+03  0.00000000000E+00 0.  1.
</event>
<event>
12    1  0.8684423E-002  0.2122747E+03  0.7818608E-02  0.1140028E+00
         21   -1    0    0  503  502  0.00000000000E+00  0.00000000000E+00  0.21559773416E+02  0.21559773416E+02  0.00000000000E+00 0.  1.
         21   -1    0    0  501  503 -0.00000000000E+00 -0.00000000000E+00 -0.20935646275E+04  0.20935646275E+04  0.00000000000E+00 0.  1.
          6    2    1    2  501    0  0.12208786563E+03 -0.15597981174E+02 -0.11319416585E+04  0.11516737658E+04  0.17295028368E+03 0.  0.
         24    2    3    3    0    0  0.15113978559E+03  0.12232974335E+01 -0.10454197076E+04  0.10587484869E+04  0.72119777225E+02 0.  0.
         -6    2    1    2    0  502 -0.12208786563E+03  0.15597981174E+02 -0.94006319559E+03  0.96345063513E+03  0.17137552529E+03 0.  0.
        -24    2    5    5    0    0 -0.29414893346E+02 -0.15051317842E+02 -0.23530730293E+03  0.25195178231E+03  0.83775865711E+02 0.  0.
          5    1    3    3  501    0 -0.29051919961E+02 -0.16821278607E+02 -0.86521950915E+02  0.92925278895E+02  0.47000000000E+01 0. -1.
        -13    1    4    4    0    0  0.12247638925E+03 -0.11421604178E+02 -0.95839055894E+03  0.96625223540E+03  0.00000000000E+00 0.  1.
         14    1    4    4    0    0  0.28663396343E+02  0.12644901611E+02 -0.87029148631E+02  0.92496251481E+02  0.00000000000E+00 0. -1.
         -5    1    5    5    0  502 -0.92672972287E+02  0.30649299016E+02 -0.70475589266E+03  0.71149885282E+03  0.47000000000E+01 0.  1.
         13    1    6    6    0    0  0.22091633998E+02 -0.17713529564E+02 -0.14686545562E+03  0.14957028942E+03  0.00000000000E+00 0. -1.
        -14    1    6    6    0    0 -0.51506527344E+02  0.26622117226E+01 -0.88441847313E+02  0.10238149289E+03  0.00000000000E+00 0.  1.
</event>
<event>
12    1  0.8684423E-002  0.1750679E+03  0.7818608E-02  0.1172712E+00
         21   -1    0    0  503  502  0.00000000000E+00  0.00000000000E+00  0.64948958775E+03  0.64948958775E+03  0.00000000000E+00 0.  1.
         21   -1    0    0  501  503 -0.00000000000E+00 -0.00000000000E+00 -0.50467825765E+02  0.50467825765E+02  0.00000000000E+00 0.  1.
          6    2    1    2  501    0  0.20953064970E+02 -0.16207605847E+02  0.20945424994E+03  0.27286069200E+03  0.17285877762E+03 0.  0.
         24    2    3    3    0    0 -0.30210245255E+02  0.43570737514E+02  0.12379410894E+03  0.15645242595E+03  0.79632355806E+02 0.  0.
         -6    2    1    2    0  502 -0.20953064970E+02  0.16207605847E+02  0.38956751204E+03  0.42709672151E+03  0.17305214726E+03 0.  0.
        -24    2    5    5    0    0 -0.48526455816E+02 -0.12106154199E+02  0.10943931915E+03  0.14415528704E+03  0.79387696286E+02 0.  0.
          5    1    3    3  501    0  0.51163310225E+02 -0.59778343361E+02  0.85660141000E+02  0.11640826605E+03  0.47000000000E+01 0. -1.
        -13    1    4    4    0    0  0.76060840246E+01  0.51239253271E+02  0.95360963100E+02  0.10852201101E+03  0.00000000000E+00 0.  1.
         14    1    4    4    0    0 -0.37816329279E+02 -0.76685157574E+01  0.28433145844E+02  0.47930414944E+02  0.00000000000E+00 0. -1.
         -5    1    5    5    0  502  0.27573390846E+02  0.28313760046E+02  0.28012819289E+03  0.28294143447E+03  0.47000000000E+01 0.  1.
         13    1    6    6    0    0  0.14968291850E+02  0.14036808223E+02  0.47248802152E+02  0.51512435885E+02  0.00000000000E+00 0. -1.
        -14    1    6    6    0    0 -0.63494747666E+02 -0.26142962422E+02  0.62190516996E+02  0.92642851152E+02  0.00000000000E+00 0.  1.
</event>
<event>
12    1  0.8684423E-002  0.5634514E+03  0.7818608E-02  0.9984701E-01
         21   -1    0    0  501  502  0.00000000000E+00  0.00000000000E+00  0.22244515430E+03  0.22244515430E+03  0.00000000000E+00 0. -1.
         21   -1    0    0  502  503 -0.00000000000E+00 -0.00000000000E+00 -0.14292652191E+04  0.14292652191E+04  0.00000000000E+00 0.  1.
         -6    2    1    2    0  503 -0.25379277125E+03  0.47267877513E+03 -0.64651325244E+03  0.85709018716E+03  0.16967088185E+03 0.  0.
        -24    2    3    3    0    0 -0.12474526045E+03  0.36612813298E+03 -0.45211465011E+03  0.60053764678E+03  0.81404045333E+02 0.  0.
          6    2    1    2  501    0  0.25379277125E+03 -0.47267877513E+03 -0.56030681238E+03  0.79462018627E+03  0.17216713165E+03 0.  0.
         24    2    5    5    0    0  0.44936686519E+02 -0.15945681366E+03 -0.20657227765E+03  0.27801678680E+03  0.84708008074E+02 0.  0.
          5    1    5    5  501    0  0.20885608473E+03 -0.31322196147E+03 -0.35373453473E+03  0.51660339946E+03  0.47000000000E+01 0. -1.
        -13    1    6    6    0    0  0.63417689031E+02 -0.12737827096E+03 -0.19020344970E+03  0.23753816425E+03  0.00000000000E+00 0.  1.
         14    1    6    6    0    0 -0.18481002512E+02 -0.32078542704E+02 -0.16368827950E+02  0.40478622559E+02  0.00000000000E+00 0. -1.
         -5    1    3    3    0  503 -0.12904751080E+03  0.10655064215E+03 -0.19439860233E+03  0.25655254038E+03  0.47000000000E+01 0.  1.
         13    1    4    4    0    0 -0.10456142481E+03  0.26355599189E+03 -0.27573579162E+03  0.39550610513E+03  0.00000000000E+00 0. -1.
        -14    1    4    4    0    0 -0.20183835646E+02  0.10257214109E+03 -0.17637885849E+03  0.20503154165E+03  0.00000000000E+00 0.  1.
</event>
<event>
12    1  0.8684423E-002  0.1745607E+03  0.7818608E-02  0.1173471E+00
         21   -1    0    0  501  502  0.00000000000E+00  0.00000000000E+00  0.83234401169E+02  0.83234401169E+02  0.00000000000E+00 0. -1.
         21   -1    0    0  502  503 -0.00000000000E+00 -0.00000000000E+00 -0.44395559603E+03  0.44395559603E+03  0.00000000000E+00 0. -1.
         -6    2    1    2    0  503 -0.29786771231E+02  0.12173598997E+02 -0.67737534434E+02  0.18614623275E+03  0.17037194059E+03 0.  0.
        -24    2    3    3    0    0 -0.63577311340E+02  0.15078060113E+02  0.61985942067E+01  0.10466692486E+03  0.81531099436E+02 0.  0.
          6    2    1    2  501    0  0.29786771231E+02 -0.12173598997E+02 -0.29298366043E+03  0.34104376446E+03  0.17156915732E+03 0.  0.
         24    2    5    5    0    0 -0.18169102972E+02  0.90148131227E+01 -0.27182900619E+03  0.28431348969E+03  0.80819358173E+02 0.  0.
          5    1    5    5  501    0  0.47955874203E+02 -0.21188412119E+02 -0.21154654236E+02  0.56730274761E+02  0.47000000000E+01 0. -1.
        -11    1    6    6    0    0  0.12546627787E+02  0.11119787645E+02 -0.77916749822E+01  0.18487231949E+02  0.00000000000E+00 0.  1.
         12    1    6    6    0    0 -0.30715730759E+02 -0.21049745220E+01 -0.26403733121E+03  0.26582625775E+03  0.00000000000E+00 0. -1.
         -5    1    3    3    0  503  0.33790540110E+02 -0.29044611164E+01 -0.73936128641E+02  0.81479307886E+02  0.47000000000E+01 0.  1.
         13    1    4    4    0    0 -0.41019869651E+02  0.60337385361E+00  0.42810146563E+02  0.59293358944E+02  0.00000000000E+00 0. -1.
        -14    1    4    4    0    0 -0.22557441689E+02  0.14474686259E+02 -0.36611552356E+02  0.45373565914E+02  0.00000000000E+00 0.  1.
</event>
<event>
12    1  0.8684423E-002  0.2226937E+03  0.7818608E-02  0.1132117E+00
         21   -1    0    0  503  502  0.00000000000E+00  0.00000000000E+00  0.89944575482E+03  0.89944575482E+03  0.00000000000E+00 0. -1.
         21   -1    0    0  501  503 -0.00000000000E+00 -0.00000000000E+00 -0.12903118562E+03  0.12903118562E+03  0.00000000000E+00 0.  1.
          6    2    1    2  501    0  0.12335912668E+03  0.66712814487E+02 -0.51986313240E+01  0.22152693460E+03  0.17140327661E+03 0.  0.
         24    2    3    3    0    0  0.15792250856E+03  0.55753384803E+02 -0.74752904545E+01  0.18489348481E+03  0.77985653371E+02 0.  0.
         -6    2    1    2    0  502 -0.12335912668E+03 -0.66712814487E+02  0.77561320053E+03  0.80695000584E+03  0.17298670855E+03 0.  0.
        -24    2    5    5    0    0 -0.13722079237E+03 -0.15204158567E+02  0.67153176046E+03  0.68990162449E+03  0.77127387251E+02 0.  0.
          5    1    3    3  501    0 -0.34563381884E+02  0.10959429684E+02  0.22766591304E+01  0.36633449784E+02  0.47000000000E+01 0. -1.
        -13    1    4    4    0    0  0.20638386527E+02  0.37274472085E+02 -0.17385526187E+02  0.46017233603E+02  0.00000000000E+00 0.  1.
         14    1    4    4    0    0  0.13728412204E+03  0.18478912718E+02  0.99102357326E+01  0.13887625121E+03  0.00000000000E+00 0. -1.
         -5    1    5    5    0  502  0.13861665693E+02 -0.51508655920E+02  0.10408144007E+03  0.11704838135E+03  0.47000000000E+01 0.  1.
         13    1    6    6    0    0  0.20843814904E+01 -0.70729057538E+01  0.14516824825E+03  0.14535539530E+03  0.00000000000E+00 0. -1.
        -14    1    6    6    0    0 -0.13930517386E+03 -0.81312528134E+01  0.52636351221E+03  0.54454622919E+03  0.00000000000E+00 0.  1.
</event>
<event>
12    1  0.8684423E-002  0.2015630E+03  0.7818608E-02  0.1149031E+00
         21   -1    0    0  503  502  0.00000000000E+00  0.00000000000E+00  0.43228886079E+02  0.43228886079E+02  0.00000000000E+00 0. -1.
         21   -1    0    0  501  503 -0.00000000000E+00 -0.00000000000E+00 -0.97790371427E+03  0.97790371427E+03  0.00000000000E+00 0. -1.
          6    2    1    2  501    0  0.98324647912E+02  0.39634033793E+02 -0.58123525481E+03  0.61425772672E+03  0.16804624475E+03 0.  0.
         24    2    3    3    0    0  0.12515243900E+03  0.49944702581E+02 -0.54849478968E+03  0.57043914251E+03  0.79979214119E+02 0.  0.
         -6    2    1    2    0  502 -0.98324647912E+02 -0.39634033793E+02 -0.35343957338E+03  0.40687487363E+03  0.17143231241E+03 0.  0.
        -24    2    5    5    0    0 -0.72917717741E+02  0.38066280246E+02 -0.25622470047E+03  0.27976990749E+03  0.76511886362E+02 0.  0.
          5    1    3    3  501    0 -0.26827791086E+02 -0.10310668788E+02 -0.32740465128E+02  0.43818584211E+02  0.47000000000E+01 0. -1.
        -11    1    4    4    0    0  0.43552848337E+02 -0.18269018530E+02 -0.22520724113E+03  0.23010629955E+03  0.00000000000E+00 0.  1.
         12    1    4    4    0    0  0.81599590661E+02  0.68213721111E+02 -0.32328754855E+03  0.34033284296E+03  0.00000000000E+00 0. -1.
         -5    1    5    5    0  502 -0.25406930171E+02 -0.77700314039E+02 -0.97214872911E+02  0.12710496614E+03  0.47000000000E+01 0.  1.
         13    1    6    6    0    0 -0.22551896093E+02 -0.16031235428E+02 -0.13485898732E+03  0.13766820616E+03  0.00000000000E+00 0. -1.
        -14    1    6    6    0    0 -0.50365821648E+02  0.54097515674E+02 -0.12136571314E+03  0.14210170132E+03  0.00000000000E+00 0.  1.
</event>
<event>
12    1  0.8684423E-002  0.1805927E+03  0.7818608E-02  0.1168254E+00
         21   -1    0    0  503  502  0.00000000000E+00  0.00000000000E+00  0.12768443744E+04  0.12768443744E+04  0.00000000000E+00 0.  1.
         21   -1    0    0  501  503 -0.00000000000E+00 -0.00000000000E+00 -0.50052322840E+02  0.50052322840E+02  0.00000000000E+00 0. -1.
          6    2    1    2  501    0  0.33275418880E+02  0.14813769059E+02  0.14718735020E+03  0.23297607629E+03  0.17688141454E+03 0.  0.
         24    2    3    3    0    0 -0.17540180282E+02  0.44300937686E+02  0.14773805080E+03  0.17403448229E+03  0.78684422650E+02 0.  0.
         -6    2    1    2    0  502 -0.33275418880E+02 -0.14813769059E+02  0.10796047014E+04  0.10939206210E+04  0.17259580668E+03 0.  0.
        -24    2    5    5    0    0  0.32871664883E+02 -0.87468498096E+01  0.86250353185E+03  0.86683638107E+03  0.79598463284E+02 0.  0.
          5    1    3    3  501    0  0.50815599162E+02 -0.29487168627E+02 -0.55070060265E+00  0.58941593998E+02  0.47000000000E+01 0. -1.
        -13    1    4    4    0    0  0.14774070532E+02  0.19263218085E+02  0.12484139271E+03  0.12717986502E+03  0.00000000000E+00 0.  1.
         14    1    4    4    0    0 -0.32314250814E+02  0.25037719601E+02  0.22896658090E+02  0.46854617277E+02  0.00000000000E+00 0. -1.
         -5    1    5    5    0  502 -0.66147083764E+02 -0.60669192495E+01  0.21710116952E+03  0.22708423989E+03  0.47000000000E+01 0.  1.
         11    1    6    6    0    0  0.78994531967E+01 -0.23821494122E+01  0.66557785819E+01  0.10600725690E+02  0.00000000000E+00 0. -1.
        -12    1    6    6    0    0  0.24972211687E+02 -0.63647003973E+01  0.85584775327E+03  0.85623565538E+03  0.00000000000E+00 0.  1.
</event>
<event>
12    1  0.8684423E-002  0.2926703E+03  0.7818608E-02  0.1089599E+00
         21   -1    0    0  501  502  0.00000000000E+00  0.00000000000E+00  0.10167858410E+03  0.10167858410E+03  0.00000000000E+00 0.  1.
         21   -1    0    0  502  503 -0.00000000000E+00 -0.00000000000E+00 -0.91649301323E+03  0.91649301323E+03  0.00000000000E+00 0.  1.
         -6    2    1    2    0  503  0.19122818789E+03  0.13034069207E+03 -0.56212077857E+03  0.63150637977E+03  0.17106613382E+03 0.  0.
        -24    2    3    3    0    0  0.54624566035E+02  0.26758392077E+02 -0.11472211395E+03  0.15236391925E+03  0.79710386388E+02 0.  0.
          6    2    1    2  501    0 -0.19122818789E+03 -0.13034069207E+03 -0.25269365056E+03  0.38666521755E+03  0.17916192000E+03 0.  0.
         24    2    5    5    0    0 -0.20087908257E+03 -0.13587093610E+03 -0.17743211810E+03  0.31044112926E+03  0.77962947059E+02 0.  0.
          5    1    5    5  501    0  0.96508946772E+01  0.55302440318E+01 -0.75261532465E+02  0.76224088293E+02  0.47000000000E+01 0. -1.
        -11    1    6    6    0    0 -0.85068247372E+02 -0.83319163769E+02 -0.12570193640E+03  0.17314637327E+03  0.00000000000E+00 0.  1.
         12    1    6    6    0    0 -0.11581083520E+03 -0.52551772328E+02 -0.51730181698E+02  0.13729475599E+03  0.00000000000E+00 0. -1.
         -5    1    3    3    0  503  0.13660362185E+03  0.10358229999E+03 -0.44739866462E+03  0.47914246052E+03  0.47000000000E+01 0.  1.
         11    1    4    4    0    0  0.72035098530E+02  0.48053759884E+01 -0.80386251868E+02  0.10804673317E+03  0.00000000000E+00 0. -1.
        -12    1    4    4    0    0 -0.17410532495E+02  0.21953016089E+02 -0.34335862086E+02  0.44317186083E+02  0.00000000000E+00 0.  1.
</event>
<event>
12    1  0.8684423E-002  0.2319929E+03  0.7818608E-02  0.1125428E+00
         21   -1    0    0  501  502  0.00000000000E+00  0.00000000000E+00  0.33709635218E+03  0.33709635218E+03  0.00000000000E+00 0.  1.
         21   -1    0    0  502  503 -0.00000000000E+00 -0.00000000000E+00 -0.30579430507E+03  0.30579430507E+03  0.00000000000E+00 0. -1.
         -6    2    1    2    0  503 -0.89736248924E+02  0.12750480061E+03 -0.20712714140E+03  0.31022084499E+03  0.17036798823E+03 0.  0.
        -24    2    3    3    0    0 -0.11475568628E+03  0.11644452916E+03 -0.21381670180E+03  0.28167015203E+03  0.83019857081E+02 0.  0.
          6    2    1    2  501    0  0.89736248924E+02 -0.12750480061E+03  0.23842918852E+03  0.33266981225E+03  0.17178666275E+03 0.  0.
         24    2    5    5    0    0 -0.13013962014E+02 -0.41444323753E+02  0.13634738900E+03  0.16412665660E+03  0.80373837413E+02 0.  0.
          5    1    5    5  501    0  0.10275021094E+03 -0.86060476861E+02  0.10208179951E+03  0.16854315565E+03  0.47000000000E+01 0. -1.
        -13    1    6    6    0    0 -0.18315151357E+01 -0.61442686142E+02  0.66228257113E+02  0.90358951788E+02  0.00000000000E+00 0.  1.
         14    1    6    6    0    0 -0.11182446878E+02  0.19998362389E+02  0.70119131889E+02  0.73767704812E+02  0.00000000000E+00 0. -1.
         -5    1    3    3    0  503  0.25019437361E+02  0.11060271456E+02  0.66895603960E+01  0.28550692966E+02  0.47000000000E+01 0.  1.
         11    1    4    4    0    0  0.76429463770E+01 -0.63486094627E+01 -0.13069440085E+02  0.16417360798E+02  0.00000000000E+00 0. -1.
        -12    1    4    4    0    0 -0.12239863266E+03  0.12279313862E+03 -0.20074726171E+03  0.26525279123E+03  0.00000000000E+00 0.  1.
</event>
<event>
12    1  0.8684423E-002  0.2073154E+03  0.7818608E-02  0.1144015E+00
         21   -1    0    0  503  502  0.00000000000E+00  0.00000000000E+00  0.25281465061E+03  0.25281465061E+03  0.00000000000E+00 0. -1.
         21   -1    0    0  501  503 -0.00000000000E+00 -0.00000000000E+00 -0.18276516663E+03  0.18276516663E+03  0.00000000000E+00 0. -1.
          6    2    1    2  501    0 -0.94008454496E+02  0.62254514135E+02 -0.25363327777E+02  0.20736217698E+03  0.17217014840E+03 0.  0.
         24    2    3    3    0    0 -0.10518979626E+03  0.36020753587E+01  0.19455487875E+02  0.13255611296E+03  0.78196795910E+02 0.  0.
         -6    2    1    2    0  502  0.94008454496E+02 -0.62254514135E+02  0.95412811758E+02  0.22821764026E+03  0.17397262035E+03 0.  0.
        -24    2    5    5    0    0  0.51577662173E+02 -0.97193846153E+02  0.10867676962E+03  0.17148007213E+03  0.74080199241E+02 0.  0.
          5    1    3    3  501    0  0.11181341765E+02  0.58652438776E+02 -0.44818815653E+02  0.74806064023E+02  0.47000000000E+01 0. -1.
        -11    1    4    4    0    0 -0.61169635040E+02 -0.15029337766E+02  0.45890303248E+02  0.77932824771E+02  0.00000000000E+00 0.  1.
         12    1    4    4    0    0 -0.44020161222E+02  0.18631413125E+02 -0.26434815372E+02  0.54623288191E+02  0.00000000000E+00 0. -1.
         -5    1    5    5    0  502  0.42430792323E+02  0.34939332018E+02 -0.13263957857E+02  0.56737568128E+02  0.47000000000E+01 0.  1.
         11    1    6    6    0    0  0.53661621310E+02 -0.37739199224E+02  0.85184595921E+02  0.10751851999E+03  0.00000000000E+00 0. -1.
        -12    1    6    6    0    0 -0.20839591363E+01 -0.59454646929E+02  0.23492173695E+02  0.63961552139E+02  0.00000000000E+00 0.  1.
</event>
<event>
12    1  0.8684423E-002  0.1827924E+03  0.7818608E-02  0.1165165E+00
         21   -1    0    0  501  502  0.00000000000E+00  0.00000000000E+00  0.68162046959E+02  0.68162046959E+02  0.00000000000E+00 0. -1.
         21   -1    0    0  502  503 -0.00000000000E+00 -0.00000000000E+00 -0.49094558314E+03  0.49094558314E+03  0.00000000000E+00 0. -1.
         -6    2    1    2    0  503 -0.22000421208E+01  0.62234922688E+02 -0.19781715100E+03  0.26934119828E+03  0.17185758661E+03 0.  0.
        -24    2    3    3    0    0  0.37573392941E+02  0.26374747418E+02 -0.35800470408E+02  0.98638611609E+02  0.79627349951E+02 0.  0.
          6    2    1    2  501    0  0.22000421208E+01 -0.62234922688E+02 -0.22496638518E+03  0.28976643182E+03  0.17168775367E+03 0.  0.
         24    2    5    5    0    0  0.47096742648E+02 -0.49567892936E+02 -0.68558069454E+02  0.12648196045E+03  0.81378119011E+02 0.  0.
          5    1    5    5  501    0 -0.44896700527E+02 -0.12667029753E+02 -0.15640831573E+03  0.16328447137E+03  0.47000000000E+01 0. -1.
        -13    1    6    6    0    0  0.57981835067E+02 -0.65168970567E+02 -0.54979091656E+02  0.10310959432E+03  0.00000000000E+00 0.  1.
         14    1    6    6    0    0 -0.10885092418E+02  0.15601077632E+02 -0.13578977798E+02  0.23372366125E+02  0.00000000000E+00 0. -1.
         -5    1    3    3    0  503 -0.39773435062E+02  0.35860175271E+02 -0.16201668059E+03  0.17070258667E+03  0.47000000000E+01 0.  1.
         11    1    4    4    0    0  0.53579396331E+02  0.34733886383E+02 -0.45247483350E+02  0.78259372116E+02  0.00000000000E+00 0. -1.
        -12    1    4    4    0    0 -0.16006003390E+02 -0.83591389654E+01  0.94470129425E+01  0.20379239493E+02  0.00000000000E+00 0.  1.
</event>
<event>
12    1  0.8684423E-002  0.3468728E+03  0.7818608E-02  0.1063969E+00
         21   -1    0    0  503  502  0.00000000000E+00  0.00000000000E+00  0.46607145650E+03  0.46607145650E+03  0.00000000000E+00 0.  1.
         21   -1    0    0  501  503 -0.00000000000E+00 -0.00000000000E+00 -0.26637227476E+03  0.26637227476E+03  0.00000000000E+00 0. -1.
          6    2    1    2  501    0  0.30033189551E+03  0.12373812232E+02  0.33702673197E+02  0.34789776533E+03  0.17188550331E+03 0.  0.
         24    2    3    3    0    0  0.20596857508E+03  0.71914053922E+02  0.40862564955E+02  0.23599231115E+03  0.80174413860E+02 0.  0.
         -6    2    1    2    0  502 -0.30033189551E+03 -0.12373812232E+02  0.16599650854E+03  0.38454596594E+03  0.17311383649E+03 0.  0.
        -24    2    5    5    0    0 -0.58010111580E+02 -0.26248075685E+02  0.70079306213E+02  0.12352002498E+03  0.79321831097E+02 0.  0.
          5    1    3    3  501    0  0.94363320430E+02 -0.59540241690E+02 -0.71598917578E+01  0.11190545417E+03  0.47000000000E+01 0. -1.
        -13    1    4    4    0    0  0.95960202902E+02 -0.64219684187E+01  0.52094804264E+01  0.96315839329E+02  0.00000000000E+00 0.  1.
         14    1    4    4    0    0  0.11000837218E+03  0.78336022341E+02  0.35653084528E+02  0.13967647183E+03  0.00000000000E+00 0. -1.
         -5    1    5    5    0  502 -0.24232178393E+03  0.13874263453E+02  0.95917202329E+02  0.26102594096E+03  0.47000000000E+01 0.  1.
         13    1    6    6    0    0  0.14016133117E+02 -0.10387523635E+01 -0.64339259239E+01  0.15457244154E+02  0.00000000000E+00 0. -1.
        -14    1    6    6    0    0 -0.72026244697E+02 -0.25209323321E+02  0.76513232136E+02  0.10806278082E+03  0.00000000000E+00 0.  1.
</event>
<event>
12    1  0.8684423E-002  0.2024097E+03  0.7818608E-02  0.1147737E+00
         21   -1    0    0  503  502  0.00000000000E+00  0.00000000000E+00  0.19608766991E+03  0.19608766991E+03  0.00000000000E+00 0. -1.
         21   -1    0    0  501  503 -0.00000000000E+00 -0.00000000000E+00 -0.22864931296E+03  0.22864931296E+03  0.00000000000E+00 0.  1.
          6    2    1    2  501    0 -0.25297077452E+02  0.10289405707E+03 -0.78762572525E+02  0.21719394859E+03  0.17246025445E+03 0.  0.
         24    2    3    3    0    0 -0.68733696538E+02  0.46053875476E+02 -0.86356920890E+01  0.11690728207E+03  0.82142905581E+02 0.  0.
         -6    2    1    2    0  502  0.25297077452E+02 -0.10289405707E+03  0.46200929480E+02  0.20754303429E+03  0.17237301439E+03 0.  0.
        -24    2    5    5    0    0 -0.12600723890E+02 -0.93912430718E+02  0.85756253287E+02  0.15183283235E+03  0.81980187336E+02 0.  0.
          5    1    3    3  501    0  0.43436619086E+02  0.56840181590E+02 -0.70126880436E+02  0.10028666651E+03  0.47000000000E+01 0. -1.
        -13    1    4    4    0    0 -0.19663558372E+01  0.36493825590E+02 -0.28776390720E+02  0.46516088876E+02  0.00000000000E+00 0.  1.
         14    1    4    4    0    0 -0.66767340701E+02  0.95600498865E+01  0.20140698631E+02  0.70391193196E+02  0.00000000000E+00 0. -1.
         -5    1    5    5    0  502  0.37897801342E+02 -0.89816263488E+01 -0.39555323807E+02  0.55710201937E+02  0.47000000000E+01 0.  1.
         11    1    6    6    0    0  0.17315307866E+02  0.74150780766E+01  0.71527542201E+01  0.20148577178E+02  0.00000000000E+00 0. -1.
        -12    1    6    6    0    0 -0.29916031756E+02 -0.10132750879E+03  0.78603499067E+02  0.13168425517E+03  0.00000000000E+00 0.  1.
</event>
<event>
12    1  0.8684423E-002  0.2656843E+03  0.7818608E-02  0.1103830E+00
         21   -1    0    0  501  502  0.00000000000E+00  0.00000000000E+00  0.51954394810E+03  0.51954394810E+03  0.00000000000E+00 0. -1.
         21   -1    0    0  502  503 -0.00000000000E+00 -0.00000000000E+00 -0.15721522560E+03  0.15721522560E+03  0.00000000000E+00 0.  1.
         -6    2    1    2    0  503  0.95658590372E+02  0.17826303478E+03  0.56024311181E+02  0.27152688069E+03  0.17222034726E+03 0.  0.
        -24    2    3    3    0    0  0.73967835449E+02  0.14433091743E+03 -0.23412503524E+02  0.18234069921E+03  0.79983316122E+02 0.  0.
          6    2    1    2  501    0 -0.95658590372E+02 -0.17826303478E+03  0.30630441132E+03  0.40523229302E+03  0.17164656545E+03 0.  0.
         24    2    5    5    0    0 -0.47077984106E+02 -0.43412356009E+02  0.53782264278E+02  0.11482859880E+03  0.78689935251E+02 0.  0.
          5    1    5    5  501    0 -0.48580606266E+02 -0.13485067877E+03  0.25252214704E+03  0.29040369422E+03  0.47000000000E+01 0. -1.
        -13    1    6    6    0    0  0.19877868613E+02 -0.86749375164E+01  0.27339407250E+02  0.34897383717E+02  0.00000000000E+00 0.  1.
         14    1    6    6    0    0 -0.66955852719E+02 -0.34737418492E+02  0.26442857027E+02  0.79931215083E+02  0.00000000000E+00 0. -1.
         -5    1    3    3    0  503  0.21690754923E+02  0.33932117347E+02  0.79436814705E+02  0.89186181481E+02  0.47000000000E+01 0.  1.
         11    1    4    4    0    0  0.83555979040E+02  0.10295886025E+03 -0.37153530804E+02  0.13770444215E+03  0.00000000000E+00 0. -1.
        -12    1    4    4    0    0 -0.95881435915E+01  0.41372057183E+02  0.13741027280E+02  0.44636257054E+02  0.00000000000E+00 0.  1.
</event>
<event>
12    1  0.8684423E-002  0.1872484E+03  0.7818608E-02  0.1160988E+00
         21   -1    0    0  503  502  0.00000000000E+00  0.00000000000E+00  0.17537183899E+03  0.17537183899E+03  0.00000000000E+00 0.  1.
         21   -1    0    0  501  503 -0.00000000000E+00 -0.00000000000E+00 -0.64185260409E+03  0.64185260409E+03  0.00000000000E+00 0.  1.
          6    2    1    2  501    0 -0.72074454616E+02  0.51458202782E+01 -0.57231303633E+03  0.60213744878E+03  0.17264440102E+03 0.  0.
         24    2    3    3    0    0  0.19874826844E+02 -0.29295863802E+02 -0.29072016882E+03  0.30387995434E+03  0.81065120188E+02 0.  0.
         -6    2    1    2    0  502  0.72074454616E+02 -0.51458202782E+01  0.10583227123E+03  0.21508699429E+03  0.17274472208E+03 0.  0.
        -24    2    5    5    0    0  0.63487603019E+02 -0.61632197999E+02  0.38381052400E+02  0.12656467050E+03  0.81953078455E+02 0.  0.
          5    1    3    3  501    0 -0.91949281460E+02  0.34441684080E+02 -0.28159286750E+03  0.29825749444E+03  0.47000000000E+01 0. -1.
        -13    1    4    4    0    0  0.15816788423E+02  0.26152954085E+02 -0.72297848333E+02  0.78492844750E+02  0.00000000000E+00 0.  1.
         14    1    4    4    0    0  0.40580384204E+01 -0.55448817887E+02 -0.21842232049E+03  0.22538710959E+03  0.00000000000E+00 0. -1.
         -5    1    5    5    0  502  0.85868515970E+01  0.56486377721E+02  0.67451218827E+02  0.88522323792E+02  0.47000000000E+01 0.  1.
         13    1    6    6    0    0 -0.80139717623E+01 -0.46195378349E+01 -0.17214486957E+02  0.19542324181E+02  0.00000000000E+00 0. -1.
        -14    1    6    6    0    0  0.71501574781E+02 -0.57012660164E+02  0.55595539357E+02  0.10702234632E+03  0.00000000000E+00 0.  1.
</event>
<event>
12    1  0.8684423E-002  0.2278103E+03  0.7818608E-02  0.1128255E+00
         21   -1    0    0  501  502  0.00000000000E+00  0.00000000000E+00  0.15064612303E+03  0.15064612303E+03  0.00000000000E+00 0.  1.
         21   -1    0    0  502  503 -0.00000000000E+00 -0.00000000000E+00 -0.37080605967E+03  0.37080605967E+03  0.00000000000E+00 0.  1.
         -6    2    1    2    0  503 -0.76578022141E+01  0.14943780005E+03 -0.39836153416E+02  0.23091095117E+03  0.17129696504E+03 0.  0.
        -24    2    3    3    0    0  0.57277098880E+02  0.64751043660E+02 -0.39995382130E+01  0.11824000958E+03  0.80568851608E+02 0.  0.
          6    2    1    2  501    0  0.76578022141E+01 -0.14943780005E+03 -0.18032378323E+03  0.29054123154E+03  0.17177672254E+03 0.  0.
         24    2    5    5    0    0 -0.26016150149E+02 -0.10381182256E+02 -0.71942901833E+02  0.11098849981E+03  0.79737425038E+02 0.  0.
          5    1    5    5  501    0  0.33673952363E+02 -0.13905661780E+03 -0.10838088139E+03  0.17955273173E+03  0.47000000000E+01 0. -1.
        -11    1    6    6    0    0 -0.12481824132E+02 -0.23610271028E+02 -0.84270991492E+02  0.88401588440E+02  0.00000000000E+00 0.  1.
         12    1    6    6    0    0 -0.13534326016E+02  0.13229088772E+02  0.12328089659E+02  0.22586911367E+02  0.00000000000E+00 0. -1.
         -5    1    3    3    0  503 -0.64934901095E+02  0.84686756390E+02 -0.35836615203E+02  0.11267094158E+03  0.47000000000E+01 0.  1.
         13    1    4    4    0    0  0.59475025642E+02  0.68321243429E+02  0.20923332895E+02  0.92966966382E+02  0.00000000000E+00 0. -1.
        -14    1    4    4    0    0 -0.21979267616E+01 -0.35701997690E+01 -0.24922871108E+02  0.25273043203E+02  0.00000000000E+00 0.  1.
</event>
<event>
12    1  0.8684423E-002  0.1992207E+03  0.7818608E-02  0.1154282E+00
         21   -1    0    0  503  502  0.00000000000E+00  0.00000000000E+00  0.25565859663E+03  0.25565859663E+03  0.00000000000E+00 0.  1.
         21   -1    0    0  501  503 -0.00000000000E+00 -0.00000000000E+00 -0.15884866398E+03  0.15884866398E+03  0.00000000000E+00 0.  1.
          6    2    1    2  501    0 -0.62510243415E+02 -0.77026187348E+02 -0.21119764267E+02  0.18299852669E+03  0.15232154233E+03 0.  0.
         24    2    3    3    0    0 -0.53630909151E+02 -0.71347795627E+02 -0.66163181294E+02  0.13650028880E+03  0.79296783832E+02 0.  0.
         -6    2    1    2    0  502  0.62510243415E+02  0.77026187348E+02  0.11792969692E+03  0.23150873392E+03  0.17276665302E+03 0.  0.
        -24    2    5    5    0    0  0.89199426030E+02  0.10405757145E+03  0.10988793567E+03  0.19239648368E+03  0.78463575913E+02 0.  0.
          5    1    3    3  501    0 -0.88793342644E+01 -0.56783917210E+01  0.45043417028E+02  0.46498237892E+02  0.47000000000E+01 0. -1.
        -13    1    4    4    0    0 -0.74201894140E+02 -0.52089163818E+02 -0.55911656962E+02  0.10651439088E+03  0.00000000000E+00 0.  1.
         14    1    4    4    0    0  0.20570984990E+02 -0.19258631809E+02 -0.10251524332E+02  0.29985897914E+02  0.00000000000E+00 0. -1.
         -5    1    5    5    0  502 -0.26689182615E+02 -0.27031384097E+02  0.80417612412E+01  0.39112250239E+02  0.47000000000E+01 0.  1.
         11    1    6    6    0    0  0.53322643471E+02  0.21215828004E+02  0.10881577630E+02  0.58410824308E+02  0.00000000000E+00 0. -1.
        -12    1    6    6    0    0  0.35876782559E+02  0.82841743441E+02  0.99006358045E+02  0.13398565937E+03  0.00000000000E+00 0.  1.
</event>
<event>
12    1  0.8684423E-002  0.2263804E+03  0.7818608E-02  0.1129366E+00
         21   -1    0    0  501  502  0.00000000000E+00  0.00000000000E+00  0.61890716166E+03  0.61890716166E+03  0.00000000000E+00 0.  1.
         21   -1    0    0  502  503 -0.00000000000E+00 -0.00000000000E+00 -0.86618560488E+02  0.86618560488E+02  0.00000000000E+00 0.  1.
         -6    2    1    2    0  503 -0.14079089571E+03 -0.41730420462E+02  0.34358727688E+03  0.41146119312E+03  0.17229217134E+03 0.  0.
        -24    2    3    3    0    0 -0.78941682145E+02  0.33328948233E+02  0.25247981414E+03  0.27811242554E+03  0.79106616182E+02 0.  0.
          6    2    1    2  501    0  0.14079089571E+03  0.41730420462E+02  0.18870132429E+03  0.29406452902E+03  0.17117900904E+03 0.  0.
         24    2    5    5    0    0  0.18378186259E+02  0.41404816826E+02  0.37415643067E+02  0.99399625163E+02  0.80176296684E+02 0.  0.
          5    1    5    5  501    0  0.12241270945E+03  0.32560363630E+00  0.15128568122E+03  0.19466490386E+03  0.47000000000E+01 0. -1.
        -13    1    6    6    0    0  0.37973257653E+02  0.51500397579E+02  0.10883259487E+02  0.64905350970E+02  0.00000000000E+00 0.  1.
         14    1    6    6    0    0 -0.19595071394E+02 -0.10095580753E+02  0.26532383580E+02  0.34494274193E+02  0.00000000000E+00 0. -1.
         -5    1    3    3    0  503 -0.61849213563E+02 -0.75059368695E+02  0.91107462739E+02  0.13334876758E+03  0.47000000000E+01 0.  1.
         11    1    4    4    0    0 -0.19920966091E+02 -0.23810465188E+02  0.10262947989E+03  0.10722216788E+03  0.00000000000E+00 0. -1.
        -12    1    4    4    0    0 -0.59020716053E+02  0.57139413421E+02  0.14985033425E+03  0.17089025766E+03  0.00000000000E+00 0.  1.
</event>
<event>
12    1  0.8684423E-002  0.1891395E+03  0.7818608E-02  0.1159263E+00
         21   -1    0    0  501  502  0.00000000000E+00  0.00000000000E+00  0.21192819693E+03  0.21192819693E+03  0.00000000000E+00 0. -1.
         21   -1    0    0  502  503 -0.00000000000E+00 -0.00000000000E+00 -0.17483751691E+03  0.17483751691E+03  0.00000000000E+00 0.  1.
         -6    2    1    2    0  503  0.64484906723E+02 -0.44171322641E+02 -0.17648393711E+02  0.18996106675E+03  0.17223336536E+03 0.  0.
        -24    2    3    3    0    0  0.31238663046E+02 -0.65894309573E+02  0.42364650217E+02  0.11784410397E+03  0.82307685842E+02 0.  0.
          6    2    1    2  501    0 -0.64484906723E+02  0.44171322641E+02  0.54739073730E+02  0.19680464708E+03  0.17212290371E+03 0.  0.
         24    2    5    5    0    0 -0.57047777249E+02  0.75240646241E+02  0.87410982666E+02  0.15086819753E+03  0.78771374245E+02 0.  0.
          5    1    5    5  501    0 -0.74371294732E+01 -0.31069323601E+02 -0.32671908936E+02  0.45936449551E+02  0.47000000000E+01 0. -1.
        -13    1    6    6    0    0 -0.38661552959E+02  0.46541664033E+02  0.38544706778E+01  0.60627544172E+02  0.00000000000E+00 0.  1.
         14    1    6    6    0    0 -0.18386224291E+02  0.28698982208E+02  0.83556511988E+02  0.90240653361E+02  0.00000000000E+00 0. -1.
         -5    1    3    3    0  503  0.33246243676E+02  0.21722986933E+02 -0.60013043928E+02  0.72116962785E+02  0.47000000000E+01 0.  1.
         13    1    4    4    0    0 -0.17702938772E-01 -0.51880388577E+02 -0.12314202956E+02  0.53321802546E+02  0.00000000000E+00 0. -1.
        -14    1    4    4    0    0  0.31256365985E+02 -0.14013920996E+02  0.54678853173E+02  0.64522301421E+02  0.00000000000E+00 0.  1.
</event>
<event>
12    1  0.8684423E-002  0.1781250E+03  0.7818608E-02  0.1169708E+00
         21   -1    0    0  503  502  0.00000000000E+00  0.00000000000E+00  0.15373619273E+03  0.15373619273E+03  0.00000000000E+00 0.  1.
         21   -1    0    0  501  503 -0.00000000000E+00 -0.00000000000E+00 -0.20624170914E+03  0.20624170914E+03  0.00000000000E+00 0.  1.
          6    2    1    2  501    0  0.21517375204E+02 -0.40253663155E+02 -0.32220221563E+02  0.18101566521E+03  0.17217773823E+03 0.  0.
         24    2    3    3    0    0  0.67167397207E+02 -0.66966650613E+02 -0.29942725244E+02  0.12786695688E+03  0.80357951222E+02 0.  0.
         -6    2    1    2    0  502 -0.21517375204E+02  0.40253663155E+02 -0.20285294841E+02  0.17896223666E+03  0.17185061574E+03 0.  0.
        -24    2    5    5    0    0  0.39637979924E+02 -0.18011915410E+02  0.17070614300E+01  0.91551660408E+02  0.80518283113E+02 0.  0.
          5    1    3    3  501    0 -0.45650022003E+02  0.26712987458E+02 -0.22774963192E+01  0.53148708331E+02  0.47000000000E+01 0. -1.
        -13    1    4    4    0    0 -0.15069614827E+02 -0.19811655249E+02 -0.21148371353E+02  0.32662648172E+02  0.00000000000E+00 0.  1.
         14    1    4    4    0    0  0.82237012034E+02 -0.47154995363E+02 -0.87943538913E+01  0.95204308707E+02  0.00000000000E+00 0. -1.
         -5    1    5    5    0  502 -0.61155355128E+02  0.58265578565E+02 -0.21992356271E+02  0.87410576252E+02  0.47000000000E+01 0.  1.
         13    1    6    6    0    0  0.41037261963E+02  0.42880184694E+01 -0.31232740399E+02  0.51748700898E+02  0.00000000000E+00 0. -1.
        -14    1    6    6    0    0 -0.13992820390E+01 -0.22299933880E+02  0.32939801829E+02  0.39802959510E+02  0.00000000000E+00 0.  1.
</event>
<event>
12    1  0.8684423E-002  0.2215427E+03  0.7818608E-02  0.1132929E+00
         21   -1    0    0  503  502  0.00000000000E+00  0.00000000000E+00  0.27030518188E+03  0.27030518188E+03  0.00000000000E+00 0. -1.
         21   -1    0    0  501  503 -0.00000000000E+00 -0.00000000000E+00 -0.32472824027E+03  0.32472824027E+03  0.00000000000E+00 0.  1.
          6    2    1    2  501    0 -0.95716835841E+02 -0.10112113909E+03 -0.22536397106E+03  0.31602229630E+03  0.17231939783E+03 0.  0.
         24    2    3    3    0    0  0.11551065918E+02 -0.42066630069E+02 -0.52686700543E+02  0.10428338269E+03  0.78715354290E+02 0.  0.
         -6    2    1    2    0  502  0.95716835841E+02  0.10112113909E+03  0.17094091267E+03  0.27901112585E+03  0.17099478147E+03 0.  0.
        -24    2    5    5    0    0  0.73589160194E+02  0.45952232172E+00  0.51087365380E+02  0.12086765328E+03  0.81138739504E+02 0.  0.
          5    1    3    3  501    0 -0.10726790176E+03 -0.59054509017E+02 -0.17267727052E+03  0.21173891361E+03  0.47000000000E+01 0. -1.
        -11    1    4    4    0    0  0.96669724929E+01 -0.11763771594E+01 -0.61621271150E+02  0.62386018294E+02  0.00000000000E+00 0.  1.
         12    1    4    4    0    0  0.18840934253E+01 -0.40890252909E+02  0.89345706069E+01  0.41897364392E+02  0.00000000000E+00 0. -1.
         -5    1    5    5    0  502  0.22127675648E+02  0.10066161676E+03  0.11985354729E+03  0.15814347257E+03  0.47000000000E+01 0.  1.
         11    1    6    6    0    0  0.17129838217E+02 -0.15747156077E+02  0.57257877629E+02  0.61805087431E+02  0.00000000000E+00 0. -1.
        -12    1    6    6    0    0  0.56459321977E+02  0.16206678398E+02 -0.61705122487E+01  0.59062565845E+02  0.00000000000E+00 0.  1.
</event>
<event>
12    1  0.8684423E-002  0.1885428E+03  0.7818608E-02  0.1159984E+00
         21   -1    0    0  503  502  0.00000000000E+00  0.00000000000E+00  0.35933094024E+02  0.35933094024E+02  0.00000000000E+00 0. -1.
         21   -1    0    0  501  503 -0.00000000000E+00 -0.00000000000E+00 -0.12254181210E+04  0.12254181210E+04  0.00000000000E+00 0. -1.
          6    2    1    2  501    0  0.76253842843E+02 -0.48070472860E+00 -0.87541223337E+03  0.89548588016E+03  0.17243405581E+03 0.  0.
         24    2    3    3    0    0  0.48717721694E+02  0.59169856797E+02 -0.59505324977E+03  0.60749338521E+03  0.95317126778E+02 0.  0.
         -6    2    1    2    0  502 -0.76253842843E+02  0.48070472860E+00 -0.31407279364E+03  0.36586533490E+03  0.17146674299E+03 0.  0.
        -24    2    5    5    0    0 -0.10865579526E+02 -0.57634537418E+02 -0.18036277099E+03  0.20601081821E+03  0.80435858537E+02 0.  0.
          5    1    3    3  501    0  0.27536121148E+02 -0.59650561526E+02 -0.28035898360E+03  0.28799249495E+03  0.47000000000E+01 0. -1.
        -13    1    4    4    0    0  0.81059387490E+01 -0.26070448102E+02 -0.11016410424E+03  0.11349671524E+03  0.00000000000E+00 0.  1.
         14    1    4    4    0    0  0.40611782945E+02  0.85240304900E+02 -0.48488914553E+03  0.49399666997E+03  0.00000000000E+00 0. -1.
         -5    1    5    5    0  502 -0.65388263317E+02  0.58115242146E+02 -0.13371002265E+03  0.15985451669E+03  0.47000000000E+01 0.  1.
         11    1    6    6    0    0 -0.45852638767E+02 -0.28250363296E+02 -0.97024934309E+02  0.11097020044E+03  0.00000000000E+00 0. -1.
        -12    1    6    6    0    0  0.34987059242E+02 -0.29384174121E+02 -0.83337836681E+02  0.95040617769E+02  0.00000000000E+00 0.  1.
</event>
<event>
12    1  0.8684423E-002  0.3766753E+03  0.7818608E-02  0.1052336E+00
         21   -1    0    0  501  502  0.00000000000E+00  0.00000000000E+00  0.18513236842E+03  0.18513236842E+03  0.00000000000E+00 0. -1.
         21   -1    0    0  502  503 -0.00000000000E+00 -0.00000000000E+00 -0.13913336626E+04  0.13913336626E+04  0.00000000000E+00 0.  1.
         -6    2    1    2    0  503 -0.25104980649E+03  0.21939698760E+03 -0.11321171297E+04  0.11925744719E+04  0.17141654581E+03 0.  0.
        -24    2    3    3    0    0 -0.18320883994E+03  0.97674204999E+02 -0.53071224828E+03  0.57521821014E+03  0.78196991305E+02 0.  0.
          6    2    1    2  501    0  0.25104980649E+03 -0.21939698760E+03 -0.74084164536E+02  0.38389155918E+03  0.17528041038E+03 0.  0.
         24    2    5    5    0    0  0.13048754116E+03 -0.98725152074E+02 -0.10369412665E+03  0.21069862754E+03  0.82872104453E+02 0.  0.
          5    1    5    5  501    0  0.12056226533E+03 -0.12067183553E+03  0.29609962111E+02  0.17319293164E+03  0.47000000000E+01 0. -1.
        -11    1    6    6    0    0  0.11871887667E+03 -0.65758379617E+02 -0.46154163722E+02  0.14334762990E+03  0.00000000000E+00 0.  1.
         12    1    6    6    0    0  0.11768664485E+02 -0.32966772457E+02 -0.57539962924E+02  0.67350997642E+02  0.00000000000E+00 0. -1.
         -5    1    3    3    0  503 -0.67840966550E+02  0.12172278260E+03 -0.60140488139E+03  0.61735626174E+03  0.47000000000E+01 0.  1.
         11    1    4    4    0    0 -0.12290500683E+03  0.68867219099E+02 -0.25303638251E+03  0.28961309612E+03  0.00000000000E+00 0. -1.
        -12    1    4    4    0    0 -0.60303833113E+02  0.28806985899E+02 -0.27767586577E+03  0.28560511402E+03  0.00000000000E+00 0.  1.
</event>
<event>
12    1  0.8684423E-002  0.1854194E+03  0.7818608E-02  0.1162779E+00
         21   -1    0    0  501  502  0.00000000000E+00  0.00000000000E+00  0.54265380733E+02  0.54265380733E+02  0.00000000000E+00 0. -1.
         21   -1    0    0  502  503 -0.00000000000E+00 -0.00000000000E+00 -0.72958128163E+03  0.72958128163E+03  0.00000000000E+00 0. -1.
         -6    2    1    2    0  503  0.63125324320E+02  0.28301270543E+02 -0.19458076094E+03  0.26877876188E+03  0.17203075838E+03 0.  0.
        -24    2    3    3    0    0 -0.17124661917E+02 -0.65787953628E+01 -0.39731768951E+02  0.90854678051E+02  0.79620502797E+02 0.  0.
          6    2    1    2  501    0 -0.63125324320E+02 -0.28301270543E+02 -0.48073513996E+03  0.51506790048E+03  0.17147273493E+03 0.  0.
         24    2    5    5    0    0 -0.78619960555E+01  0.42094570487E+02 -0.19517106616E+03  0.21577115788E+03  0.81435150028E+02 0.  0.
          5    1    5    5  501    0 -0.55263328264E+02 -0.70395841029E+02 -0.28556407380E+03  0.29929674260E+03  0.47000000000E+01 0. -1.
        -13    1    6    6    0    0  0.27634351339E+02  0.47796081298E+02 -0.13210289394E+03  0.14317575685E+03  0.00000000000E+00 0.  1.
         14    1    6    6    0    0 -0.35496347395E+02 -0.57015108109E+01 -0.63068172219E+02  0.72595401032E+02  0.00000000000E+00 0. -1.
         -5    1    3    3    0  503  0.80249986237E+02  0.34880065906E+02 -0.15484899198E+03  0.17792408383E+03  0.47000000000E+01 0.  1.
         13    1    4    4    0    0  0.22682083209E+02  0.21528024413E+02 -0.66910360460E+01  0.31979723220E+02  0.00000000000E+00 0. -1.
        -14    1    4    4    0    0 -0.39806745126E+02 -0.28106819776E+02 -0.33040732905E+02  0.58874954831E+02  0.00000000000E+00 0.  1.
</event>
<event>
12    1  0.8684423E-002  0.2414836E+03  0.7818608E-02  0.1118818E+00
         21   -1    0    0  501  502  0.00000000000E+00  0.00000000000E+00  0.50731925200E+03  0.50731925200E+03  0.00000000000E+00 0. -1.
         21   -1    0    0  502  503 -0.00000000000E+00 -0.00000000000E+00 -0.31312107774E+03  0.31312107774E+03  0.00000000000E+00 0. -1.
         -6    2    1    2    0  503  0.16498617872E+03  0.41148020510E+02 -0.22927104208E+03  0.33298582100E+03  0.17146646172E+03 0.  0.
        -24    2    3    3    0    0  0.15981287973E+03  0.80558752365E+02 -0.21364682506E+03  0.29001868280E+03  0.80224693242E+02 0.  0.
          6    2    1    2  501    0 -0.16498617872E+03 -0.41148020510E+02  0.42346921634E+03  0.48745450874E+03  0.17138296923E+03 0.  0.
         24    2    5    5    0    0 -0.70472361561E+02 -0.41003975446E+02  0.10318004528E+03  0.15347827384E+03  0.79131403688E+02 0.  0.
          5    1    5    5  501    0 -0.94513817157E+02 -0.14404506387E+00  0.32028917105E+03  0.33397623490E+03  0.47000000000E+01 0. -1.
        -11    1    6    6    0    0 -0.31686349393E+02  0.42989062458E+01 -0.25605769862E+01  0.32078994486E+02  0.00000000000E+00 0.  1.
         12    1    6    6    0    0 -0.38786012168E+02 -0.45302881691E+02  0.10574062227E+03  0.12139927935E+03  0.00000000000E+00 0. -1.
         -5    1    3    3    0  503  0.51732989881E+01 -0.39410731855E+02 -0.15624217017E+02  0.42967138201E+02  0.47000000000E+01 0.  1.
         13    1    4    4    0    0  0.46227982345E+02  0.66245232722E+02 -0.75156043803E+02  0.11033534398E+03  0.00000000000E+00 0. -1.
        -14    1    4    4    0    0  0.11358489739E+03  0.14313519642E+02 -0.13849078126E+03  0.17968333883E+03  0.00000000000E+00 0.  1.
</event>
<event>
12    1  0.8684423E-002  0.2618324E+03  0.7818608E-02  0.1106496E+00
         21   -1    0    0  503  502  0.00000000000E+00  0.00000000000E+00  0.11091922748E+03  0.11091922748E+03  0.00000000000E+00 0. -1.
         21   -1    0    0  501  503 -0.00000000000E+00 -0.00000000000E+00 -0.61783091300E+03  0.61783091300E+03  0.00000000000E+00 0.  1.
          6    2    1    2  501    0  0.14718705825E+03  0.12662468282E+03 -0.21664677863E+03  0.33984118888E+03  0.17566549620E+03 0.  0.
         24    2    3    3    0    0  0.10566050697E+03  0.77500904773E+02 -0.51003479799E+02  0.16208463492E+03  0.80619730535E+02 0.  0.
         -6    2    1    2    0  502 -0.14718705825E+03 -0.12662468282E+03 -0.29026490689E+03  0.38890895160E+03  0.17116838506E+03 0.  0.
        -24    2    5    5    0    0 -0.21724493858E+01 -0.55787926661E+02 -0.11894819114E+03  0.15349741853E+03  0.79345907404E+02 0.  0.
          5    1    3    3  501    0  0.41526551280E+02  0.49123778043E+02 -0.16564329883E+03  0.17775655396E+03  0.47000000000E+01 0. -1.
        -13    1    4    4    0    0  0.74450255017E+02  0.52130919816E+02 -0.72698863764E+02  0.11638555780E+03  0.00000000000E+00 0.  1.
         14    1    4    4    0    0  0.31210251949E+02  0.25369984957E+02  0.21695383966E+02  0.45699077112E+02  0.00000000000E+00 0. -1.
         -5    1    5    5    0  502 -0.14501460886E+03 -0.70836756155E+02 -0.17131671575E+03  0.23541153307E+03  0.47000000000E+01 0.  1.
         11    1    6    6    0    0  0.19024105179E+02 -0.39026146882E+02 -0.14751754475E+02  0.45853800043E+02  0.00000000000E+00 0. -1.
        -12    1    6    6    0    0 -0.21196554564E+02 -0.16761779779E+02 -0.10419643667E+03  0.10764361849E+03  0.00000000000E+00 0.  1.
</event>
<event>
12    1  0.8684423E-002  0.2239280E+03  0.7818608E-02  0.1131430E+00
         21   -1    0    0  501  502  0.00000000000E+00  0.00000000000E+00  0.14871580623E+03  0.14871580623E+03  0.00000000000E+00 0. -1.
         21   -1    0    0  502  503 -0.00000000000E+00 -0.00000000000E+00 -0.33432176701E+03  0.33432176701E+03  0.00000000000E+00 0. -1.
         -6    2    1    2    0  503 -0.13843003917E+03  0.24743370364E+02 -0.80750542849E+02  0.23577573164E+03  0.17115617236E+03 0.  0.
        -24    2    3    3    0    0 -0.12238790024E+03  0.76143299214E+02 -0.40700442321E+02  0.16850461258E+03  0.77205429303E+02 0.  0.
          6    2    1    2  501    0  0.13843003917E+03 -0.24743370364E+02 -0.10485541793E+03  0.24726184160E+03  0.17426603089E+03 0.  0.
         24    2    5    5    0    0  0.11201771974E+03  0.12037945759E+02 -0.13478794561E+03  0.19277769670E+03  0.79388717015E+02 0.  0.
          5    1    5    5  501    0  0.26412319431E+02 -0.36781316124E+02  0.29932527672E+02  0.54484144908E+02  0.47000000000E+01 0. -1.
        -11    1    6    6    0    0 -0.20087360394E+01  0.22692599773E+02 -0.28942159487E+02  0.36832563048E+02  0.00000000000E+00 0.  1.
         12    1    6    6    0    0  0.11402645578E+03 -0.10654654013E+02 -0.10584578612E+03  0.15594513365E+03  0.00000000000E+00 0. -1.
         -5    1    3    3    0  503 -0.16042138929E+02 -0.51399928850E+02 -0.40050100528E+02  0.67271119060E+02  0.47000000000E+01 0.  1.
         13    1    4    4    0    0 -0.67380897495E+02  0.11933111596E+02 -0.48082003356E+02  0.83632909469E+02  0.00000000000E+00 0. -1.
        -14    1    4    4    0    0 -0.55007002745E+02  0.64210187618E+02  0.73815610345E+01  0.84871703107E+02  0.00000000000E+00 0.  1.
</event>
<event>
12    1  0.8684423E-002  0.1898123E+03  0.7818608E-02  0.1159787E+00
         21   -1    0    0  501  502  0.00000000000E+00  0.00000000000E+00  0.68275425865E+02  0.68275425865E+02  0.00000000000E+00 0.  1.
         21   -1    0    0  502  503 -0.00000000000E+00 -0.00000000000E+00 -0.77546872437E+03  0.77546872437E+03  0.00000000000E+00 0.  1.
         -6    2    1    2    0  503 -0.55862391963E+02  0.53109030630E+02 -0.59550543547E+03  0.62351041774E+03  0.16792064013E+03 0.  0.
        -24    2    3    3    0    0  0.12043480085E+01 -0.14579530793E+02 -0.17208186901E+03  0.19090440669E+03  0.81352994292E+02 0.  0.
          6    2    1    2  501    0  0.55862391963E+02 -0.53109030630E+02 -0.11168786304E+03  0.22023373250E+03  0.17345760926E+03 0.  0.
         24    2    5    5    0    0  0.16377618490E+02  0.37388854876E+02 -0.61828978769E+02  0.10952278924E+03  0.80661427527E+02 0.  0.
          5    1    5    5  501    0  0.39484773472E+02 -0.90497885505E+02 -0.49858884266E+02  0.11071094326E+03  0.47000000000E+01 0. -1.
        -13    1    6    6    0    0  0.33963918467E+02  0.47176523413E+02 -0.67039686945E+02  0.88732698283E+02  0.00000000000E+00 0.  1.
         14    1    6    6    0    0 -0.17586299976E+02 -0.97876685374E+01  0.52107081757E+01  0.20790090956E+02  0.00000000000E+00 0. -1.
         -5    1    3    3    0  503 -0.57066739971E+02  0.67688561423E+02 -0.42342356646E+03  0.43260601105E+03  0.47000000000E+01 0.  1.
         13    1    4    4    0    0 -0.26296920656E+02  0.23172539019E+02 -0.87953964459E+02  0.94680486187E+02  0.00000000000E+00 0. -1.
        -14    1    4    4    0    0  0.27501268664E+02 -0.37752069812E+02 -0.84127904548E+02  0.96223920502E+02  0.00000000000E+00 0.  1.
</event>
<event>
12    1  0.8684423E-002  0.1820390E+03  0.7818608E-02  0.1167111E+00
         21   -1    0    0  501  502  0.00000000000E+00  0.00000000000E+00  0.11882090511E+04  0.11882090511E+04  0.00000000000E+00 0.  1.
         21   -1    0    0  502  503 -0.00000000000E+00 -0.00000000000E+00 -0.38213879250E+02  0.38213879250E+02  0.00000000000E+00 0.  1.
         -6    2    1    2    0  503  0.96878791160E+01  0.37683906484E+02  0.23828890333E+03  0.29672055486E+03  0.17247479356E+03 0.  0.
        -24    2    3    3    0    0 -0.32550057576E+02  0.68283332615E+02  0.21282433239E+03  0.23848909816E+03  0.76555429090E+02 0.  0.
          6    2    1    2  501    0 -0.96878791160E+01 -0.37683906484E+02  0.91170626849E+03  0.92970237546E+03  0.17783209814E+03 0.  0.
         24    2    5    5    0    0  0.21929386494E+02 -0.66215016163E+02  0.83709609630E+03  0.84366492142E+03  0.78583069637E+02 0.  0.
          5    1    5    5  501    0 -0.31617265610E+02  0.28531109680E+02  0.74610172187E+02  0.86037454042E+02  0.47000000000E+01 0. -1.
        -11    1    6    6    0    0 -0.65126065922E+01  0.13759193438E+02  0.25018326271E+03  0.25064595426E+03  0.00000000000E+00 0.  1.
         12    1    6    6    0    0  0.28441993086E+02 -0.79974209602E+02  0.58691283359E+03  0.59301896716E+03  0.00000000000E+00 0. -1.
         -5    1    3    3    0  503  0.42237936692E+02 -0.30599426131E+02  0.25464570937E+02  0.58231456693E+02  0.47000000000E+01 0.  1.
         11    1    4    4    0    0 -0.46365363013E+01 -0.48698540958E+01  0.10510572846E+03  0.10532059202E+03  0.00000000000E+00 0. -1.
        -12    1    4    4    0    0 -0.27913521275E+02  0.73153186711E+02  0.10771860393E+03  0.13316850614E+03  0.00000000000E+00 0.  1.
</event>
<event>
12    1  0.8684423E-002  0.3264872E+03  0.7818608E-02  0.1072791E+00
         21   -1    0    0  503  502  0.00000000000E+00  0.00000000000E+00  0.14013289811E+04  0.14013289811E+04  0.00000000000E+00 0. -1.
         21   -1    0    0  501  503 -0.00000000000E+00 -0.00000000000E+00 -0.10237831385E+03  0.10237831385E+03  0.00000000000E+00 0.  1.
          6    2    1    2  501    0  0.27687517310E+03  0.84839406802E+01  0.26640125711E+03  0.42077047284E+03  0.17130768311E+03 0.  0.
         24    2    3    3    0    0  0.65508147820E+02 -0.36487250666E+02  0.48573252052E+02  0.11389988576E+03  0.70648328138E+02 0.  0.
         -6    2    1    2    0  502 -0.27687517310E+03 -0.84839406802E+01  0.10325494101E+04  0.10829368221E+04  0.17280635859E+03 0.  0.
        -24    2    5    5    0    0 -0.13035070438E+03  0.42666731512E+02  0.67385453609E+03  0.69207890179E+03  0.77984064986E+02 0.  0.
          5    1    3    3  501    0  0.21136702528E+03  0.44971191347E+02  0.21782800506E+03  0.30687058708E+03  0.47000000000E+01 0. -1.
        -13    1    4    4    0    0  0.77099013347E+01 -0.26847355689E+02  0.47723641764E+02  0.55297098200E+02  0.00000000000E+00 0.  1.
         14    1    4    4    0    0  0.57798246485E+02 -0.96398949772E+01  0.84961028821E+00  0.58602787558E+02  0.00000000000E+00 0. -1.
         -5    1    5    5    0  502 -0.14652446873E+03 -0.51150672193E+02  0.35869487403E+03  0.39085792030E+03  0.47000000000E+01 0.  1.
         13    1    6    6    0    0 -0.50129480837E+02  0.51535951994E+02  0.23099353573E+03  0.24192340264E+03  0.00000000000E+00 0. -1.
        -14    1    6    6    0    0 -0.80221223538E+02 -0.88692204811E+01  0.44286100035E+03  0.45015549915E+03  0.00000000000E+00 0.  1.
</event>
<event>
12    1  0.8684423E-002  0.2413496E+03  0.7818608E-02  0.1119308E+00
         21   -1    0    0  503  502  0.00000000000E+00  0.00000000000E+00  0.54103225280E+02  0.54103225280E+02  0.00000000000E+00 0. -1.
         21   -1    0    0  501  503 -0.00000000000E+00 -0.00000000000E+00 -0.10745817790E+04  0.10745817790E+04  0.00000000000E+00 0.  1.
          6    2    1    2  501    0 -0.14335678141E+03  0.83283456411E+02 -0.55910757473E+03  0.60800006802E+03  0.17197529388E+03 0.  0.
         24    2    3    3    0    0 -0.10465133210E+03 -0.30165210965E+01 -0.22365035428E+03  0.25943237778E+03  0.79527837664E+02 0.  0.
         -6    2    1    2    0  502  0.14335678141E+03 -0.83283456411E+02 -0.46137097894E+03  0.52068493621E+03  0.17539190887E+03 0.  0.
        -24    2    5    5    0    0  0.63776663372E+02 -0.52609595968E+02 -0.39840161756E+03  0.41456655243E+03  0.79412499936E+02 0.  0.
          5    1    3    3  501    0 -0.38705449310E+02  0.86299977507E+02 -0.33545722046E+03  0.34856769024E+03  0.47000000000E+01 0. -1.
        -11    1    4    4    0    0 -0.21369384333E+02 -0.70277536792E+01 -0.13829029140E+03  0.14010797481E+03  0.00000000000E+00 0.  1.
         12    1    4    4    0    0 -0.83281947771E+02  0.40112325827E+01 -0.85360062871E+02  0.11932440297E+03  0.00000000000E+00 0. -1.
         -5    1    5    5    0  502  0.79580118041E+02 -0.30673860443E+02 -0.62969361384E+02  0.10611838378E+03  0.47000000000E+01 0.  1.
         11    1    6    6    0    0 -0.32290480194E+01  0.14701265207E+02 -0.24191655088E+02  0.28491930887E+02  0.00000000000E+00 0. -1.
        -12    1    6    6    0    0  0.67005711392E+02 -0.67310861175E+02 -0.37420996247E+03  0.38607462155E+03  0.00000000000E+00 0.  1.
</event>
<event>
12    1  0.8684423E-002  0.1819290E+03  0.7818608E-02  0.1167135E+00
         21   -1    0    0  501  502  0.00000000000E+00  0.00000000000E+00  0.29221157016E+03  0.29221157016E+03  0.00000000000E+00 0.  1.
         21   -1    0    0  502  503 -0.00000000000E+00 -0.00000000000E+00 -0.11100473693E+03  0.11100473693E+03  0.00000000000E+00 0.  1.
         -6    2    1    2    0  503  0.40377043156E+02  0.11359869252E+02  0.75078024931E+02  0.19681178742E+03  0.17702773116E+03 0.  0.
        -24    2    3    3    0    0  0.40936757775E+02  0.56385345111E+02  0.99660903826E+02  0.14529465734E+03  0.79518025761E+02 0.  0.
          6    2    1    2  501    0 -0.40377043156E+02 -0.11359869252E+02  0.10612880831E+03  0.20640451966E+03  0.17198880644E+03 0.  0.
         24    2    5    5    0    0  0.29386659007E+02  0.31960437890E+02  0.35359226152E+02  0.97896239294E+02  0.80301640557E+02 0.  0.
          5    1    5    5  501    0 -0.69763702163E+02 -0.43320307142E+02  0.70769582154E+02  0.10850828037E+03  0.47000000000E+01 0. -1.
        -13    1    6    6    0    0 -0.20394811805E+02  0.29877151503E+02  0.31421938570E+02  0.47915871630E+02  0.00000000000E+00 0.  1.
         14    1    6    6    0    0  0.49781470812E+02  0.20832863870E+01  0.39372875813E+01  0.49980367665E+02  0.00000000000E+00 0. -1.
         -5    1    3    3    0  503 -0.55971461807E+00 -0.45025475859E+02 -0.24582878896E+02  0.51517130079E+02  0.47000000000E+01 0.  1.
         11    1    4    4    0    0  0.11670850020E+02  0.64567166043E+02  0.36209074448E+02  0.74941475455E+02  0.00000000000E+00 0. -1.
        -12    1    4    4    0    0  0.29265907755E+02 -0.81818209320E+01  0.63451829379E+02  0.70353181890E+02  0.00000000000E+00 0.  1.
</event>
<event>
12    1  0.8684423E-002  0.1807974E+03  0.7818608E-02  0.1167209E+00
         21   -1    0    0  503  502  0.00000000000E+00  0.00000000000E+00  0.42198929198E+02  0.42198929198E+02  0.00000000000E+00 0. -1.
         21   -1    0    0  501  503 -0.00000000000E+00 -0.00000000000E+00 -0.13159999064E+04  0.13159999064E+04  0.00000000000E+00 0. -1.
          6    2    1    2  501    0  0.38610786564E+02 -0.38319092336E+02 -0.10729720478E+04  0.10879767831E+04  0.17165465233E+03 0.  0.
         24    2    3    3    0    0 -0.18936156411E+02 -0.47944940104E+00 -0.27984952392E+03  0.29185561330E+03  0.80654417633E+02 0.  0.
         -6    2    1    2    0  502 -0.38610786564E+02  0.38319092336E+02 -0.20082892942E+03  0.27022205245E+03  0.17241970033E+03 0.  0.
        -24    2    5    5    0    0 -0.11030772815E+02  0.72672263050E+02 -0.19724406036E+03  0.22577276919E+03  0.81640603835E+02 0.  0.
          5    1    3    3  501    0  0.57546942976E+02 -0.37839642935E+02 -0.79312252385E+03  0.79612116984E+03  0.47000000000E+01 0. -1.
        -13    1    4    4    0    0  0.25134828399E+02 -0.87642074316E+00 -0.35162579359E+02  0.43231177397E+02  0.00000000000E+00 0.  1.
         14    1    4    4    0    0 -0.44070984810E+02  0.39697134212E+00 -0.24468694456E+03  0.24862443590E+03  0.00000000000E+00 0. -1.
         -5    1    5    5    0  502 -0.27580013750E+02 -0.34353170714E+02 -0.35848690620E+01  0.44449283265E+02  0.47000000000E+01 0.  1.
         11    1    6    6    0    0 -0.20274770475E+02  0.12300375528E+02 -0.52365269219E+01  0.24285525939E+02  0.00000000000E+00 0. -1.
        -12    1    6    6    0    0  0.92439976603E+01  0.60371887523E+02 -0.19200753344E+03  0.20148724325E+03  0.00000000000E+00 0.  1.
</event>
<event>
12    1  0.8684423E-002  0.1790760E+03  0.7818608E-02  0.1168704E+00
         21   -1    0    0  503  502  0.00000000000E+00  0.00000000000E+00  0.58513461412E+03  0.58513461412E+03  0.00000000000E+00 0. -1.
         21   -1    0    0  501  503 -0.00000000000E+00 -0.00000000000E+00 -0.16856549275E+03  0.16856549275E+03  0.00000000000E+00 0. -1.
          6    2    1    2  501    0 -0.48889494821E+02 -0.13398190522E+02 -0.10131017346E+03  0.20573371007E+03  0.17173501099E+03 0.  0.
         24    2    3    3    0    0  0.25925581833E+02 -0.38724937494E+02 -0.39245692386E+02  0.10517114438E+03  0.85726242557E+02 0.  0.
         -6    2    1    2    0  502  0.48889494821E+02  0.13398190522E+02  0.51787929483E+03  0.54796639680E+03  0.17175131383E+03 0.  0.
        -24    2    5    5    0    0  0.28410538166E+02 -0.39614487556E+02  0.15537600322E+03  0.18100528425E+03  0.79023694203E+02 0.  0.
          5    1    3    3  501    0 -0.74815076654E+02  0.25326746973E+02 -0.62064481073E+02  0.10056256569E+03  0.47000000000E+01 0. -1.
        -13    1    4    4    0    0 -0.29196710205E+02 -0.12980852730E+02 -0.29633837458E+02  0.43578833703E+02  0.00000000000E+00 0.  1.
         14    1    4    4    0    0  0.55122292038E+02 -0.25744084764E+02 -0.96118549277E+01  0.61592310681E+02  0.00000000000E+00 0. -1.
         -5    1    5    5    0  502  0.20478956655E+02  0.53012678078E+02  0.36250329161E+03  0.36696111256E+03  0.47000000000E+01 0.  1.
         11    1    6    6    0    0 -0.10636630978E+02 -0.25187257393E+02  0.12868157144E+03  0.13155410553E+03  0.00000000000E+00 0. -1.
        -12    1    6    6    0    0  0.39047169144E+02 -0.14427230163E+02  0.26694431777E+02  0.49451178714E+02  0.00000000000E+00 0.  1.
</event>
<event>
12    1  0.8684423E-002  0.2002041E+03  0.7818608E-02  0.1149592E+00
         21   -1    0    0  503  502  0.00000000000E+00  0.00000000000E+00  0.20587936524E+03  0.20587936524E+03  0.00000000000E+00 0.  1.
         21   -1    0    0  501  503 -0.00000000000E+00 -0.00000000000E+00 -0.25951458521E+03  0.25951458521E+03  0.00000000000E+00 0. -1.
          6    2    1    2  501    0  0.85252414077E+02  0.60741349237E+02 -0.14322016535E+03  0.24606056689E+03  0.17051774454E+03 0.  0.
         24    2    3    3    0    0  0.65038954600E+02  0.88082835863E+02 -0.44800505655E+02  0.14182688592E+03  0.78224859682E+02 0.  0.
         -6    2    1    2    0  502 -0.85252414077E+02 -0.60741349237E+02  0.89584945382E+02  0.21933338357E+03  0.17065809414E+03 0.  0.
        -24    2    5    5    0    0  0.56665346441E+01 -0.14217760758E+02  0.95759994543E+02  0.11690818767E+03  0.65293900590E+02 0.  0.
          5    1    3    3  501    0  0.20213459478E+02 -0.27341486626E+02 -0.98419659693E+02  0.10423368097E+03  0.47000000000E+01 0. -1.
        -11    1    4    4    0    0  0.38768481809E+02  0.32489543477E+02  0.18235024514E+02  0.53768780311E+02  0.00000000000E+00 0.  1.
         12    1    4    4    0    0  0.26270472791E+02  0.55593292387E+02 -0.63035530168E+02  0.88058105605E+02  0.00000000000E+00 0. -1.
         -5    1    5    5    0  502 -0.90918948721E+02 -0.46523588479E+02 -0.61750491607E+01  0.10242519589E+03  0.47000000000E+01 0.  1.
         13    1    6    6    0    0  0.91364263974E+01  0.23476653938E+02  0.58952641572E+02  0.64109605487E+02  0.00000000000E+00 0. -1.
        -14    1    6    6    0    0 -0.34698917533E+01 -0.37694414696E+02  0.36807352971E+02  0.52798582186E+02  0.00000000000E+00 0.  1.
</event>
<event>
12    1  0.8684423E-002  0.3565429E+03  0.7818608E-02  0.1060029E+00
         21   -1    0    0  501  502  0.00000000000E+00  0.00000000000E+00  0.80502465082E+02  0.80502465082E+02  0.00000000000E+00 0.  1.
         21   -1    0    0  502  503 -0.00000000000E+00 -0.00000000000E+00 -0.16987793409E+04  0.16987793409E+04  0.00000000000E+00 0.  1.
         -6    2    1    2    0  503 -0.16345466714E+03 -0.26544203055E+03 -0.10474762327E+04  0.11062764632E+04  0.17165155174E+03 0.  0.
        -24    2    3    3    0    0 -0.98371971051E+02 -0.13446009713E+03 -0.73900146240E+03  0.76485180370E+03  0.10544457215E+03 0.  0.
          6    2    1    2  501    0  0.16345466714E+03  0.26544203055E+03 -0.57080064314E+03  0.67300534279E+03  0.17304888735E+03 0.  0.
         24    2    5    5    0    0  0.10762820344E+03  0.24130214220E+03 -0.53618294791E+03  0.60286403482E+03  0.78373062019E+02 0.  0.
          5    1    5    5  501    0  0.55826463704E+02  0.24139888348E+02 -0.34617695236E+02  0.70141307962E+02  0.47000000000E+01 0. -1.
        -13    1    6    6    0    0  0.14362391672E+02  0.12626965856E+03 -0.26428472757E+03  0.29325197730E+03  0.00000000000E+00 0.  1.
         14    1    6    6    0    0  0.93265811767E+02  0.11503248364E+03 -0.27189822034E+03  0.30961205752E+03  0.00000000000E+00 0. -1.
         -5    1    3    3    0  503 -0.65082696091E+02 -0.13098193341E+03 -0.30847477025E+03  0.34142465947E+03  0.47000000000E+01 0.  1.
         13    1    4    4    0    0  0.95019197190E+01 -0.12107698326E+01 -0.44558068899E+01  0.10564405188E+02  0.00000000000E+00 0. -1.
        -14    1    4    4    0    0 -0.10787389077E+03 -0.13324932730E+03 -0.73454565551E+03  0.75428739852E+03  0.00000000000E+00 0.  1.
</event>
<event>
12    1  0.8684423E-002  0.2011728E+03  0.7818608E-02  0.1150078E+00
         21   -1    0    0  503  502  0.00000000000E+00  0.00000000000E+00  0.54084811381E+03  0.54084811381E+03  0.00000000000E+00 0. -1.
         21   -1    0    0  501  503 -0.00000000000E+00 -0.00000000000E+00 -0.25037089913E+03  0.25037089913E+03  0.00000000000E+00 0.  1.
          6    2    1    2  501    0 -0.80422190371E+02 -0.51856495353E+02 -0.18882758380E+03  0.27140791734E+03  0.16985163047E+03 0.  0.
         24    2    3    3    0    0 -0.63812679648E+02 -0.73037442927E+02 -0.59799453613E+02  0.13951835457E+03  0.80516274475E+02 0.  0.
         -6    2    1    2    0  502  0.80422190371E+02  0.51856495353E+02  0.47930479849E+03  0.51981109561E+03  0.17695666263E+03 0.  0.
        -24    2    5    5    0    0  0.86311568588E+02  0.26048456803E+02  0.47792824754E+03  0.49289038756E+03  0.79983219296E+02 0.  0.
          5    1    3    3  501    0 -0.16609510723E+02  0.21180947574E+02 -0.12902813019E+03  0.13188956277E+03  0.47000000000E+01 0. -1.
        -11    1    4    4    0    0  0.18463352012E+02 -0.22389792348E+02 -0.91331577862E+01  0.30423884369E+02  0.00000000000E+00 0.  1.
         12    1    4    4    0    0 -0.82276031661E+02 -0.50647650579E+02 -0.50666295827E+02  0.10909447020E+03  0.00000000000E+00 0. -1.
         -5    1    5    5    0  502 -0.58893782173E+01  0.25808038550E+02  0.13765509423E+01  0.26920708053E+02  0.47000000000E+01 0.  1.
         11    1    6    6    0    0  0.22158983320E+02 -0.84866170483E+01  0.29550288273E+03  0.29645403845E+03  0.00000000000E+00 0. -1.
        -12    1    6    6    0    0  0.64152585269E+02  0.34535073851E+02  0.18242536482E+03  0.19643634911E+03  0.00000000000E+00 0.  1.
</event>
<event>
12    1  0.8684423E-002  0.1796655E+03  0.7818608E-02  0.1168589E+00
         21   -1    0    0  503  502  0.00000000000E+00  0.00000000000E+00  0.43275198544E+03  0.43275198544E+03  0.00000000000E+00 0. -1.
         21   -1    0    0  501  503 -0.00000000000E+00 -0.00000000000E+00 -0.12215184861E+03  0.12215184861E+03  0.00000000000E+00 0. -1.
          6    2    1    2  501    0  0.51602583072E+02 -0.13438057254E+02 -0.18747683435E+02  0.18064095048E+03  0.17157001309E+03 0.  0.
         24    2    3    3    0    0  0.43475816478E+02 -0.42645436074E+02 -0.61419288249E+02  0.12808554000E+03  0.94471142431E+02 0.  0.
         -6    2    1    2    0  502 -0.51602583072E+02  0.13438057254E+02  0.32934782027E+03  0.37426288357E+03  0.16958570500E+03 0.  0.
        -24    2    5    5    0    0 -0.39970555977E+02 -0.57272496503E+02  0.19263642699E+03  0.21983690934E+03  0.79634725473E+02 0.  0.
          5    1    3    3  501    0  0.81267665939E+01  0.29207378819E+02  0.42671604814E+02  0.52555410475E+02  0.47000000000E+01 0. -1.
        -13    1    4    4    0    0 -0.25312412301E+02 -0.18512573811E+02 -0.42417444043E+02  0.52751048945E+02  0.00000000000E+00 0.  1.
         14    1    4    4    0    0  0.68788228780E+02 -0.24132862263E+02 -0.19001844206E+02  0.75334491057E+02  0.00000000000E+00 0. -1.
         -5    1    5    5    0  502 -0.11632027095E+02  0.70710553757E+02  0.13671139327E+03  0.15442597423E+03  0.47000000000E+01 0.  1.
         13    1    6    6    0    0 -0.79405171441E+01 -0.29984011396E+02  0.16849283968E+03  0.17132404903E+03  0.00000000000E+00 0. -1.
        -14    1    6    6    0    0 -0.32030038833E+02 -0.27288485106E+02  0.24143587315E+02  0.48512860310E+02  0.00000000000E+00 0.  1.
</event>
<event>
12    1  0.8684423E-002  0.1806990E+03  0.7818608E-02  0.1167468E+00
         21   -1    0    0  503  502  0.00000000000E+00  0.00000000000E+00  0.14108028010E+03  0.14108028010E+03  0.00000000000E+00 0.  1.
         21   -1    0    0  501  503 -0.00000000000E+00 -0.00000000000E+00 -0.83756644489E+03  0.83756644489E+03  0.00000000000E+00 0.  1.
          6    2    1    2  501    0 -0.61213782582E+02 -0.15608935246E+02 -0.76474753731E+03  0.78548422741E+03  0.16779722776E+03 0.  0.
         24    2    3    3    0    0 -0.10478724698E+03 -0.26197827579E+02 -0.60733511483E+03  0.62174195373E+03  0.77720151916E+02 0.  0.
         -6    2    1    2    0  502  0.61213782582E+02  0.15608935246E+02  0.68261372517E+02  0.19316249758E+03  0.16929669062E+03 0.  0.
        -24    2    5    5    0    0  0.75847460210E+02  0.14822724638E+02  0.10596648342E+03  0.15243746797E+03  0.77689997088E+02 0.  0.
          5    1    3    3  501    0  0.43573464395E+02  0.10588892333E+02 -0.15741242248E+03  0.16374227368E+03  0.47000000000E+01 0. -1.
        -11    1    4    4    0    0  0.12043722251E+02  0.14473669066E+01 -0.79887890108E+02  0.80803595851E+02  0.00000000000E+00 0.  1.
         12    1    4    4    0    0 -0.11683096923E+03 -0.27645194486E+02 -0.52744722473E+03  0.54093835787E+03  0.00000000000E+00 0. -1.
         -5    1    5    5    0  502 -0.14633677628E+02  0.78621060861E+00 -0.37705110904E+02  0.40725029605E+02  0.47000000000E+01 0.  1.
         11    1    6    6    0    0  0.37631212941E+02  0.37285394290E+02  0.91641952575E+02  0.10585157668E+03  0.00000000000E+00 0. -1.
        -12    1    6    6    0    0  0.38216247268E+02 -0.22462669653E+02  0.14324530846E+02  0.46585891289E+02  0.00000000000E+00 0.  1.
</event>
<event>
12    1  0.8684423E-002  0.2131528E+03  0.7818608E-02  0.1139141E+00
         21   -1    0    0  503  502  0.00000000000E+00  0.00000000000E+00  0.42601009339E+03  0.42601009339E+03  0.00000000000E+00 0. -1.
         21   -1    0    0  501  503 -0.00000000000E+00 -0.00000000000E+00 -0.42710538866E+03  0.42710538866E+03  0.00000000000E+00 0. -1.
          6    2    1    2  501    0 -0.19253763554E+02  0.12165783102E+03 -0.37010085606E+03  0.42697088333E+03  0.17366103851E+03 0.  0.
         24    2    3    3    0    0 -0.41827360598E+02  0.14295090046E+01 -0.15370578602E+03  0.17834801022E+03  0.80193344499E+02 0.  0.
         -6    2    1    2    0  502  0.19253763554E+02 -0.12165783102E+03  0.36900556079E+03  0.42614459872E+03  0.17396200696E+03 0.  0.
        -24    2    5    5    0    0  0.39024749540E+02 -0.65971262203E+00  0.19197311227E+03  0.21075190068E+03  0.77713071655E+02 0.  0.
          5    1    3    3  501    0  0.22573597044E+02  0.12022832202E+03 -0.21639507004E+03  0.24862287311E+03  0.47000000000E+01 0. -1.
        -11    1    4    4    0    0  0.19080851775E+02 -0.99440083066E+01 -0.14418374794E+02  0.25900805728E+02  0.00000000000E+00 0.  1.
         12    1    4    4    0    0 -0.60908212374E+02  0.11373517311E+02 -0.13928741123E+03  0.15244720449E+03  0.00000000000E+00 0. -1.
         -5    1    5    5    0  502 -0.19770985986E+02 -0.12099811840E+03  0.17703244852E+03  0.21539269805E+03  0.47000000000E+01 0.  1.
         13    1    6    6    0    0 -0.32236749953E+01 -0.12742668397E+02  0.14801306437E+03  0.14859554133E+03  0.00000000000E+00 0. -1.
        -14    1    6    6    0    0  0.42248424535E+02  0.12082955775E+02  0.43960047903E+02  0.62156359350E+02  0.00000000000E+00 0.  1.
</event>
<event>
12    1  0.8684423E-002  0.1907280E+03  0.7818608E-02  0.1157813E+00
         21   -1    0    0  503  502  0.00000000000E+00  0.00000000000E+00  0.78159593857E+02  0.78159593857E+02  0.00000000000E+00 0. -1.
         21   -1    0    0  501  503 -0.00000000000E+00 -0.00000000000E+00 -0.62683307165E+03  0.62683307165E+03  0.00000000000E+00 0. -1.
          6    2    1    2  501    0 -0.33458372439E+02  0.74490077469E+02 -0.45323300876E+03  0.49171806798E+03  0.17233184215E+03 0.  0.
         24    2    3    3    0    0 -0.79241089654E+02  0.40208444715E+02 -0.38068581738E+03  0.39921686519E+03  0.80972492763E+02 0.  0.
         -6    2    1    2    0  502  0.33458372439E+02 -0.74490077469E+02 -0.95440469038E+02  0.21327459753E+03  0.17236280485E+03 0.  0.
        -24    2    5    5    0    0  0.53229313673E+02 -0.80390363970E+02 -0.97521671367E+01  0.12501204273E+03  0.78974271819E+02 0.  0.
          5    1    3    3  501    0  0.45782717215E+02  0.34281632754E+02 -0.72547191379E+02  0.92501202786E+02  0.47000000000E+01 0. -1.
        -11    1    4    4    0    0 -0.43794716385E+02 -0.13612665538E+01 -0.29041991903E+03  0.29370658760E+03  0.00000000000E+00 0.  1.
         12    1    4    4    0    0 -0.35446373269E+02  0.41569711269E+02 -0.90265898347E+02  0.10551027759E+03  0.00000000000E+00 0. -1.
         -5    1    5    5    0  502 -0.19770941234E+02  0.59002865012E+01 -0.85688301901E+02  0.88262554805E+02  0.47000000000E+01 0.  1.
         11    1    6    6    0    0  0.54974453742E+02 -0.61675838698E+02 -0.38113738614E+02  0.90987673420E+02  0.00000000000E+00 0. -1.
        -12    1    6    6    0    0 -0.17451400683E+01 -0.18714525271E+02  0.28361571477E+02  0.34024369306E+02  0.00000000000E+00 0.  1.
</event>
<event>
12    1  0.8684423E-002  0.1832745E+03  0.7818608E-02  0.1164783E+00
         21   -1    0    0  503  502  0.00000000000E+00  0.00000000000E+00  0.64769276531E+03  0.64769276531E+03  0.00000000000E+00 0. -1.
         21   -1    0    0  501  503 -0.00000000000E+00 -0.00000000000E+00 -0.79014241071E+02  0.79014241071E+02  0.00000000000E+00 0. -1.
          6    2    1    2  501    0  0.61365990407E+02 -0.15688955688E+02  0.71048540562E+02  0.19656410171E+03  0.17198146079E+03 0.  0.
         24    2    3    3    0    0 -0.19759480481E+02  0.18063272920E+02  0.33650886291E+00  0.83679929263E+02  0.79281135371E+02 0.  0.
         -6    2    1    2    0  502 -0.61365990407E+02  0.15688955688E+02  0.49762998368E+03  0.53014290467E+03  0.17147586013E+03 0.  0.
        -24    2    5    5    0    0 -0.27775814915E+02  0.61763881224E+02  0.18660302721E+03  0.21389765758E+03  0.79657047639E+02 0.  0.
          5    1    3    3  501    0  0.81125470888E+02 -0.33752228608E+02  0.70712031699E+02  0.11288417245E+03  0.47000000000E+01 0. -1.
        -11    1    4    4    0    0  0.29252287942E+02  0.17255793923E+02 -0.51674485288E+01  0.34353475779E+02  0.00000000000E+00 0.  1.
         12    1    4    4    0    0 -0.49011768423E+02  0.80747899645E+00  0.55039573917E+01  0.49326453484E+02  0.00000000000E+00 0. -1.
         -5    1    5    5    0  502 -0.33590175492E+02 -0.46074925536E+02  0.31102695647E+03  0.31624524708E+03  0.47000000000E+01 0.  1.
         13    1    6    6    0    0 -0.44312856215E+02  0.32116373074E+02  0.16455877895E+03  0.17342053620E+03  0.00000000000E+00 0. -1.
        -14    1    6    6    0    0  0.16537041300E+02  0.29647508150E+02  0.22044248257E+02  0.40477121385E+02  0.00000000000E+00 0.  1.
</event>
<event>
12    1  0.8684423E-002  0.2253662E+03  0.7818608E-02  0.1130329E+00
         21   -1    0    0  501  502  0.00000000000E+00  0.00000000000E+00  0.10730888910E+03  0.10730888910E+03  0.00000000000E+00 0. -1.
         21   -1    0    0  502  503 -0.00000000000E+00 -0.00000000000E+00 -0.51840663666E+03  0.51840663666E+03  0.00000000000E+00 0.  1.
         -6    2    1    2    0  503  0.92238275690E+02  0.10835409211E+03 -0.10796506263E+03  0.24798634775E+03  0.17202402489E+03 0.  0.
        -24    2    3    3    0    0  0.92689361928E+02  0.14327420997E+03 -0.86489754269E+02  0.20672017541E+03  0.78319450157E+02 0.  0.
          6    2    1    2  501    0 -0.92238275690E+02 -0.10835409211E+03 -0.30313268493E+03  0.37772917801E+03  0.17476097524E+03 0.  0.
         24    2    5    5    0    0  0.10018111820E+02 -0.24876229818E+02 -0.68867062404E+02  0.10879164962E+03  0.79835840121E+02 0.  0.
          5    1    5    5  501    0 -0.10225638751E+03 -0.83477862293E+02 -0.23426562252E+03  0.26893752839E+03  0.47000000000E+01 0. -1.
        -11    1    6    6    0    0 -0.12439254529E+02 -0.25119734359E+02 -0.79240996964E+02  0.84052791194E+02  0.00000000000E+00 0.  1.
         12    1    6    6    0    0  0.22457366349E+02  0.24350454158E+00  0.10373934561E+02  0.24738858423E+02  0.00000000000E+00 0. -1.
         -5    1    3    3    0  503 -0.45108623811E+00 -0.34920117856E+02 -0.21475308360E+02  0.41266172333E+02  0.47000000000E+01 0.  1.
         13    1    4    4    0    0  0.98587110693E+02  0.11249767591E+03 -0.48018837740E+02  0.15710173219E+03  0.00000000000E+00 0. -1.
        -14    1    4    4    0    0 -0.58977487650E+01  0.30776534060E+02 -0.38470916529E+02  0.49618443223E+02  0.00000000000E+00 0.  1.
</event>
<event>
12    1  0.8684423E-002  0.1979375E+03  0.7818608E-02  0.1152640E+00
         21   -1    0    0  501  502  0.00000000000E+00  0.00000000000E+00  0.14676508264E+03  0.14676508264E+03  0.00000000000E+00 0. -1.
         21   -1    0    0  502  503 -0.00000000000E+00 -0.00000000000E+00 -0.41112130830E+03  0.41112130830E+03  0.00000000000E+00 0. -1.
         -6    2    1    2    0  503  0.90101801839E+02 -0.83508415438E+01 -0.30250200649E+03  0.36150619256E+03  0.17604315403E+03 0.  0.
        -24    2    3    3    0    0  0.71135665626E+02 -0.94271701623E+01 -0.69809091766E+02  0.12799183461E+03  0.79746134528E+02 0.  0.
          6    2    1    2  501    0 -0.90101801839E+02  0.83508415438E+01  0.38145780830E+02  0.19638019838E+03  0.17006472436E+03 0.  0.
         24    2    5    5    0    0 -0.60694351512E+02 -0.13992503218E+02  0.87845150346E+02  0.13428236815E+03  0.80220879475E+02 0.  0.
          5    1    5    5  501    0 -0.29407450327E+02  0.22343344762E+02 -0.49699369516E+02  0.62097830237E+02  0.47000000000E+01 0. -1.
        -11    1    6    6    0    0  0.58184050417E+01 -0.21520244257E+02  0.55762560956E+02  0.60053625657E+02  0.00000000000E+00 0.  1.
         12    1    6    6    0    0 -0.66512756554E+02  0.75277410389E+01  0.32082589390E+02  0.74228742489E+02  0.00000000000E+00 0. -1.
         -5    1    3    3    0  503  0.18966136212E+02  0.10763286185E+01 -0.23269291472E+03  0.23351435795E+03  0.47000000000E+01 0.  1.
         13    1    4    4    0    0 -0.68921586259E+01 -0.18805014116E+02 -0.38495244222E+02  0.43393711919E+02  0.00000000000E+00 0. -1.
        -14    1    4    4    0    0  0.78027824252E+02  0.93778439532E+01 -0.31313847544E+02  0.84598122691E+02  0.00000000000E+00 0.  1.
</event>
<event>
12    1  0.8684423E-002  0.2131017E+03  0.7818608E-02  0.1139403E+00
         21   -1    0    0  501  502  0.00000000000E+00  0.00000000000E+00  0.63613759506E+03  0.63613759506E+03  0.00000000000E+00 0.  1.
         21   -1    0    0  502  503 -0.00000000000E+00 -0.00000000000E+00 -0.92436958271E+02  0.92436958271E+02  0.00000000000E+00 0. -1.
         -6    2    1    2    0  503 -0.12489241918E+03  0.17053999938E+02  0.96792446890E+02  0.23405364562E+03  0.17182367698E+03 0.  0.
        -24    2    3    3    0    0 -0.15299571797E+03  0.18337712164E+02  0.53860655072E+02  0.18251073079E+03  0.81640892230E+02 0.  0.
          6    2    1    2  501    0  0.12489241918E+03 -0.17053999938E+02  0.44690818990E+03  0.49452090771E+03  0.17010303548E+03 0.  0.
         24    2    5    5    0    0  0.11058842945E+03 -0.29257091076E+02  0.21409200106E+03  0.26089944607E+03  0.95641821044E+02 0.  0.
          5    1    5    5  501    0  0.14303989724E+02  0.12203091138E+02  0.23281618883E+03  0.23362146164E+03  0.47000000000E+01 0. -1.
        -13    1    6    6    0    0  0.86347552298E+02 -0.34054833058E+02  0.21699955793E+03  0.23601787979E+03  0.00000000000E+00 0.  1.
         14    1    6    6    0    0  0.24240877154E+02  0.47977419829E+01 -0.29075568626E+01  0.24881566274E+02  0.00000000000E+00 0. -1.
         -5    1    3    3    0  503  0.28103298797E+02 -0.12837122259E+01  0.42931791818E+02  0.51542914829E+02  0.47000000000E+01 0.  1.
         11    1    4    4    0    0 -0.84379204138E+02  0.19338060494E+02  0.70794167698E+02  0.11182855116E+03  0.00000000000E+00 0. -1.
        -12    1    4    4    0    0 -0.68616513835E+02 -0.10003483307E+01 -0.16933512626E+02  0.70682179632E+02  0.00000000000E+00 0.  1.
</event>
<event>
12    1  0.8684423E-002  0.1789450E+03  0.7818608E-02  0.1168942E+00
         21   -1    0    0  501  502  0.00000000000E+00  0.00000000000E+00  0.10558295105E+03  0.10558295105E+03  0.00000000000E+00 0.  1.
         21   -1    0    0  502  503 -0.00000000000E+00 -0.00000000000E+00 -0.30425644326E+03  0.30425644326E+03  0.00000000000E+00 0.  1.
         -6    2    1    2    0  503 -0.37440562814E+02 -0.27465565375E+02 -0.83603290313E+02  0.19708959539E+03  0.17233294936E+03 0.  0.
        -24    2    3    3    0    0  0.48486707119E+01 -0.78552033458E+02 -0.45817616805E+02  0.12061702766E+03  0.79090339383E+02 0.  0.
          6    2    1    2  501    0  0.37440562814E+02  0.27465565375E+02 -0.11507020190E+03  0.21274979891E+03  0.17281542913E+03 0.  0.
         24    2    5    5    0    0  0.81826261426E+02 -0.26671682720E+01 -0.10889362995E+03  0.15854360075E+03  0.81090072442E+02 0.  0.
          5    1    5    5  501    0 -0.44385698612E+02  0.30132733647E+02 -0.61765719477E+01  0.54206198163E+02  0.47000000000E+01 0. -1.
        -11    1    6    6    0    0  0.10066179688E+02 -0.32463621683E+02 -0.52474876015E+02  0.62520615153E+02  0.00000000000E+00 0.  1.
         12    1    6    6    0    0  0.71760081738E+02  0.29796453411E+02 -0.56418753937E+02  0.96022985596E+02  0.00000000000E+00 0. -1.
         -5    1    3    3    0  503 -0.42289233526E+02  0.51086468083E+02 -0.37785673508E+02  0.76472567734E+02  0.47000000000E+01 0.  1.
         11    1    4    4    0    0  0.30000798967E+02 -0.70881734670E+02 -0.12189564166E+02  0.77928516751E+02  0.00000000000E+00 0. -1.
        -12    1    4    4    0    0 -0.25152128255E+02 -0.76702987877E+01 -0.33628052639E+02  0.42688510908E+02  0.00000000000E+00 0.  1.
</event>
<event>
12    1  0.8684423E-002  0.1868076E+03  0.7818608E-02  0.1161679E+00
         21   -1    0    0  501  502  0.00000000000E+00  0.00000000000E+00  0.51709917971E+03  0.51709917971E+03  0.00000000000E+00 0.  1.
         21   -1    0    0  502  503 -0.00000000000E+00 -0.00000000000E+00 -0.12957644383E+03  0.12957644383E+03  0.00000000000E+00 0.  1.
         -6    2    1    2    0  503 -0.64324243383E+02  0.24767697431E+02 -0.31277545146E+02  0.18810094348E+03  0.17219939891E+03 0.  0.
        -24    2    3    3    0    0 -0.92070198167E+02  0.34703566236E+02  0.20337730373E+02  0.12847891598E+03  0.80074650640E+02 0.  0.
          6    2    1    2  501    0  0.64324243383E+02 -0.24767697431E+02  0.41880028103E+03  0.45857468007E+03  0.17362607720E+03 0.  0.
         24    2    5    5    0    0  0.11034162252E+02  0.45418639341E+02  0.16039711780E+03  0.18551747107E+03  0.80652905330E+02 0.  0.
          5    1    5    5  501    0  0.53290081131E+02 -0.70186336772E+02  0.25840316323E+03  0.27305720899E+03  0.47000000000E+01 0. -1.
        -13    1    6    6    0    0  0.16253304028E+02 -0.19941835939E+02  0.63571448649E+02  0.68579703964E+02  0.00000000000E+00 0.  1.
         14    1    6    6    0    0 -0.52191417762E+01  0.65360475280E+02  0.96825669154E+02  0.11693776711E+03  0.00000000000E+00 0. -1.
         -5    1    3    3    0  503  0.27745954784E+02 -0.99358688055E+01 -0.51615275518E+02  0.59622027495E+02  0.47000000000E+01 0.  1.
         13    1    4    4    0    0 -0.25079391164E+02 -0.11266676182E+02 -0.23492418886E+02  0.36163622585E+02  0.00000000000E+00 0. -1.
        -14    1    4    4    0    0 -0.66990807003E+02  0.45970242419E+02  0.43830149258E+02  0.92315293397E+02  0.00000000000E+00 0.  1.
</event>
<event>
12    1  0.8684423E-002  0.2146110E+03  0.7818608E-02  0.1138245E+00
         21   -1    0    0  503  502  0.00000000000E+00  0.00000000000E+00  0.26627530489E+03  0.26627530489E+03  0.00000000000E+00 0. -1.
         21   -1    0    0  501  503 -0.00000000000E+00 -0.00000000000E+00 -0.48443195926E+03  0.48443195926E+03  0.00000000000E+00 0. -1.
          6    2    1    2  501    0  0.82875739497E+02  0.96321895209E+02 -0.41048115283E+03  0.46252920705E+03  0.17114962710E+03 0.  0.
         24    2    3    3    0    0  0.32997140269E+02  0.97337519772E+02 -0.15642505982E+03  0.20357845006E+03  0.80074852279E+02 0.  0.
         -6    2    1    2    0  502 -0.82875739497E+02 -0.96321895209E+02  0.19232449846E+03  0.28817805710E+03  0.17294965798E+03 0.  0.
        -24    2    5    5    0    0 -0.82326066325E+01  0.54464644005E+01  0.36527736397E+02  0.87621039348E+02  0.79029938782E+02 0.  0.
          5    1    3    3  501    0  0.49878599228E+02 -0.10156245633E+01 -0.25405609300E+03  0.25895075699E+03  0.47000000000E+01 0. -1.
        -11    1    4    4    0    0 -0.70365092996E+01  0.10693952217E+02 -0.80790426830E+02  0.81798326050E+02  0.00000000000E+00 0.  1.
         12    1    4    4    0    0  0.40033649568E+02  0.86643567555E+02 -0.75634632994E+02  0.12178012401E+03  0.00000000000E+00 0. -1.
         -5    1    5    5    0  502 -0.74643132864E+02 -0.10176835961E+03  0.15579676206E+03  0.20055701775E+03  0.47000000000E+01 0.  1.
         11    1    6    6    0    0 -0.36460001405E+02 -0.90157115594E+01  0.40986800085E+02  0.55592558302E+02  0.00000000000E+00 0. -1.
        -12    1    6    6    0    0  0.28227394773E+02  0.14462175960E+02 -0.44590636881E+01  0.32028481046E+02  0.00000000000E+00 0.  1.
</event>
<event>
12    1  0.8684423E-002  0.2016702E+03  0.7818608E-02  0.1151361E+00
         21   -1    0    0  501  502  0.00000000000E+00  0.00000000000E+00  0.84129221783E+02  0.84129221783E+02  0.00000000000E+00 0. -1.
         21   -1    0    0  502  503 -0.00000000000E+00 -0.00000000000E+00 -0.64388356425E+03  0.64388356425E+03  0.00000000000E+00 0. -1.
         -6    2    1    2    0  503 -0.75039143846E+02 -0.21681706659E+02 -0.48624962271E+03  0.52641197664E+03  0.18592983637E+03 0.  0.
        -24    2    3    3    0    0 -0.10115120140E+03 -0.64183773622E+02 -0.29126786431E+03  0.32509570469E+03  0.80617157494E+02 0.  0.
          6    2    1    2  501    0  0.75039143846E+02  0.21681706659E+02 -0.73504719761E+02  0.20160080940E+03  0.17070141478E+03 0.  0.
         24    2    5    5    0    0  0.11610311383E+03  0.27930338289E+02 -0.43160471295E+02  0.14994658940E+03  0.79756608213E+02 0.  0.
          5    1    5    5  501    0 -0.41063969984E+02 -0.62486316294E+01 -0.30344248466E+02  0.51654219992E+02  0.47000000000E+01 0. -1.
        -11    1    6    6    0    0  0.47840661738E+02  0.52369026812E+02 -0.17760333095E+02  0.73120949915E+02  0.00000000000E+00 0.  1.
         12    1    6    6    0    0  0.68262452092E+02 -0.24438688524E+02 -0.25400138200E+02  0.76825639490E+02  0.00000000000E+00 0. -1.
         -5    1    3    3    0  503  0.26112057558E+02  0.42502066962E+02 -0.19498175840E+03  0.20131627195E+03  0.47000000000E+01 0.  1.
         13    1    4    4    0    0 -0.25558249708E+02  0.19110531873E+02 -0.64886889337E+02  0.72310061295E+02  0.00000000000E+00 0. -1.
        -14    1    4    4    0    0 -0.75592951696E+02 -0.83294305494E+02 -0.22638097498E+03  0.25278564339E+03  0.00000000000E+00 0.  1.
</event>
<event>
12    1  0.8684423E-002  0.2488091E+03  0.7818608E-02  0.1114062E+00
         21   -1    0    0  501  502  0.00000000000E+00  0.00000000000E+00  0.25551607188E+03  0.25551607188E+03  0.00000000000E+00 0. -1.
         21   -1    0    0  502  503 -0.00000000000E+00 -0.00000000000E+00 -0.25537823200E+03  0.25537823200E+03  0.00000000000E+00 0.  1.
         -6    2    1    2    0  503  0.17455226893E+03 -0.41019189943E+02  0.57960920454E+02  0.25547099679E+03  0.17249606769E+03 0.  0.
        -24    2    3    3    0    0  0.13591153342E+03 -0.87409397249E+02  0.70466426122E+02  0.19363544515E+03  0.80105060787E+02 0.  0.
          6    2    1    2  501    0 -0.17455226893E+03  0.41019189943E+02 -0.57823080575E+02  0.25542330710E+03  0.17247170385E+03 0.  0.
         24    2    5    5    0    0 -0.31356701791E+02  0.33873745180E+02 -0.62996584222E+02  0.11187929654E+03  0.80110760887E+02 0.  0.
          5    1    5    5  501    0 -0.14319556714E+03  0.71454447631E+01  0.51735036473E+01  0.14354401056E+03  0.47000000000E+01 0. -1.
        -13    1    6    6    0    0 -0.31794940074E+02  0.12838668000E+02 -0.78554606660E+02  0.85712168552E+02  0.00000000000E+00 0.  1.
         14    1    6    6    0    0  0.43823828285E+00  0.21035077180E+02  0.15558022438E+02  0.26167127984E+02  0.00000000000E+00 0. -1.
         -5    1    3    3    0  503  0.38640735511E+02  0.46390207306E+02 -0.12505505667E+02  0.61835551641E+02  0.47000000000E+01 0.  1.
         13    1    4    4    0    0  0.79915561911E+02 -0.54580587782E+02  0.83039699206E+02  0.12751913285E+03  0.00000000000E+00 0. -1.
        -14    1    4    4    0    0  0.55995971506E+02 -0.32828809467E+02 -0.12573273084E+02  0.66116312298E+02  0.00000000000E+00 0.  1.
</event>
<event>
12    1  0.8684423E-002  0.2174114E+03  0.7818608E-02  0.1136583E+00
         21   -1    0    0  501  502  0.00000000000E+00  0.00000000000E+00  0.45783300085E+03  0.45783300085E+03  0.00000000000E+00 0.  1.
         21   -1    0    0  502  503 -0.00000000000E+00 -0.00000000000E+00 -0.14201896987E+03  0.14201896987E+03  0.00000000000E+00 0.  1.
         -6    2    1    2    0  503 -0.12843952168E+03 -0.18964430945E+02 -0.35735275661E+01  0.21348928678E+03  0.16943596165E+03 0.  0.
        -24    2    3    3    0    0 -0.49310932836E+02 -0.56164765321E+02  0.37779483865E+02  0.11665251688E+03  0.81206350317E+02 0.  0.
          6    2    1    2  501    0  0.12843952168E+03  0.18964430945E+02  0.31938755855E+03  0.38636268394E+03  0.17438850482E+03 0.  0.
         24    2    5    5    0    0  0.32496477288E+02  0.63558723896E+02  0.12320954849E+03  0.16342408171E+03  0.80194172013E+02 0.  0.
          5    1    5    5  501    0  0.95943044394E+02 -0.44594292951E+02  0.19617801005E+03  0.22293860222E+03  0.47000000000E+01 0. -1.
        -11    1    6    6    0    0  0.35096301212E+02  0.35272736199E+02  0.15626999041E+02  0.52154763702E+02  0.00000000000E+00 0.  1.
         12    1    6    6    0    0 -0.25998239239E+01  0.28285987697E+02  0.10758254945E+03  0.11126931801E+03  0.00000000000E+00 0. -1.
         -5    1    3    3    0  503 -0.79128588846E+02  0.37200334376E+02 -0.41353011432E+02  0.96836769901E+02  0.47000000000E+01 0.  1.
         11    1    4    4    0    0 -0.19131934122E+02  0.11268009091E+02  0.36548428405E+02  0.42764313989E+02  0.00000000000E+00 0. -1.
        -12    1    4    4    0    0 -0.30178998714E+02 -0.67432774412E+02  0.12310554606E+01  0.73888202887E+02  0.00000000000E+00 0.  1.
</event>
<event>
12    1  0.8684423E-002  0.2076245E+03  0.7818608E-02  0.1143552E+00
         21   -1    0    0  501  502  0.00000000000E+00  0.00000000000E+00  0.10713245522E+03  0.10713245522E+03  0.00000000000E+00 0. -1.
         21   -1    0    0  502  503 -0.00000000000E+00 -0.00000000000E+00 -0.55617737205E+03  0.55617737205E+03  0.00000000000E+00 0.  1.
         -6    2    1    2    0  503 -0.74927349333E+02 -0.88005543931E+02 -0.39959690817E+03  0.45031726176E+03  0.17247858933E+03 0.  0.
        -24    2    3    3    0    0 -0.29924211069E+02 -0.10416543062E+03 -0.17124875937E+03  0.21696904246E+03  0.77482465465E+02 0.  0.
          6    2    1    2  501    0  0.74927349333E+02  0.88005543931E+02 -0.49448008666E+02  0.21299256552E+03  0.17193499924E+03 0.  0.
         24    2    5    5    0    0 -0.27253698576E+02  0.39969879570E+02 -0.98725953180E+01  0.93256627119E+02  0.79113684053E+02 0.  0.
          5    1    5    5  501    0  0.10218104791E+03  0.48035664362E+02 -0.39575413348E+02  0.11973593840E+03  0.47000000000E+01 0. -1.
        -13    1    6    6    0    0 -0.33893360082E+02 -0.14586468128E+02 -0.10251407452E+02  0.38296426267E+02  0.00000000000E+00 0.  1.
         14    1    6    6    0    0  0.66396615056E+01  0.54556347698E+02  0.37881213374E+00  0.54960200852E+02  0.00000000000E+00 0. -1.
         -5    1    3    3    0  503 -0.45003138264E+02  0.16159886690E+02 -0.22834814879E+03  0.23334821930E+03  0.47000000000E+01 0.  1.
         11    1    4    4    0    0  0.25243262222E+02 -0.48073532222E+02 -0.63406256132E+02  0.83478381061E+02  0.00000000000E+00 0. -1.
        -12    1    4    4    0    0 -0.55167473291E+02 -0.56091898399E+02 -0.10784250324E+03  0.13349066140E+03  0.00000000000E+00 0.  1.
</event>
<event>
12    1  0.8684423E-002  0.1773548E+03  0.7818608E-02  0.1171309E+00
         21   -1    0    0  503  502  0.00000000000E+00  0.00000000000E+00  0.48783104471E+03  0.48783104471E+03  0.00000000000E+00 0. -1.
         21   -1    0    0  501  503 -0.00000000000E+00 -0.00000000000E+00 -0.78654726203E+02  0.78654726203E+02  0.00000000000E+00 0. -1.
          6    2    1    2  501    0 -0.38196888376E+02  0.22277730628E+02  0.77082489582E+02  0.19000064409E+03  0.16793818800E+03 0.  0.
         24    2    3    3    0    0 -0.17757370039E+02  0.87606452404E+01  0.11786400781E+03  0.14219156821E+03  0.77035346679E+02 0.  0.
         -6    2    1    2    0  502  0.38196888376E+02 -0.22277730628E+02  0.33209382892E+03  0.37648512683E+03  0.17175400999E+03 0.  0.
        -24    2    5    5    0    0 -0.99763001487E+01  0.46631300221E+02  0.18713150538E+03  0.20883884481E+03  0.79507597579E+02 0.  0.
          5    1    3    3  501    0 -0.20439518337E+02  0.13517085388E+02 -0.40781518226E+02  0.47809075875E+02  0.47000000000E+01 0. -1.
        -13    1    4    4    0    0 -0.26082157277E+02 -0.66517398645E+01  0.42684335943E+01  0.27253331848E+02  0.00000000000E+00 0.  1.
         14    1    4    4    0    0  0.83247872387E+01  0.15412385105E+02  0.11359557421E+03  0.11493823636E+03  0.00000000000E+00 0. -1.
         -5    1    5    5    0  502  0.48173188524E+02 -0.68909030849E+02  0.14496232354E+03  0.16764628201E+03  0.47000000000E+01 0.  1.
         13    1    6    6    0    0 -0.28644790838E+01 -0.21519550108E+02  0.68300820406E+02  0.71667972940E+02  0.00000000000E+00 0. -1.
        -14    1    6    6    0    0 -0.71118210649E+01  0.68150850329E+02  0.11883068497E+03  0.13717087187E+03  0.00000000000E+00 0.  1.
</event>
<event>
12    1  0.8684423E-002  0.1928571E+03  0.7818608E-02  0.1155940E+00
         21   -1    0    0  503  502  0.00000000000E+00  0.00000000000E+00  0.99085590582E+02  0.99085590582E+02  0.00000000000E+00 0. -1.
         21   -1    0    0  501  503 -0.00000000000E+00 -0.00000000000E+00 -0.40801925400E+03  0.40801925400E+03  0.00000000000E+00 0. -1.
          6    2    1    2  501    0  0.51490442258E+02 -0.70406454804E+02 -0.22653208492E+03  0.29750739254E+03  0.17200444354E+03 0.  0.
         24    2    3    3    0    0  0.41493159386E+02  0.12146179077E+02 -0.63052173259E+02  0.11403354006E+03  0.84610045296E+02 0.  0.
         -6    2    1    2    0  502 -0.51490442258E+02  0.70406454804E+02 -0.82401578496E+02  0.20959745204E+03  0.17185091574E+03 0.  0.
        -24    2    5    5    0    0  0.42575899151E+01  0.95942080638E+02 -0.35671143914E+02  0.13235928276E+03  0.83806558901E+02 0.  0.
          5    1    3    3  501    0  0.99972828723E+01 -0.82552633881E+02 -0.16347991167E+03  0.18347385248E+03  0.47000000000E+01 0. -1.
        -13    1    4    4    0    0  0.23706386526E+02  0.37910633958E+02 -0.12224718504E+01  0.44729222737E+02  0.00000000000E+00 0.  1.
         14    1    4    4    0    0  0.17786772859E+02 -0.25764454880E+02 -0.61829701408E+02  0.69304317328E+02  0.00000000000E+00 0. -1.
         -5    1    5    5    0  502 -0.55748032173E+02 -0.25535625834E+02 -0.46730434582E+02  0.77238169282E+02  0.47000000000E+01 0.  1.
         11    1    6    6    0    0  0.25403678613E+02  0.92155667808E+02 -0.48649982319E+02  0.10726059284E+03  0.00000000000E+00 0. -1.
        -12    1    6    6    0    0 -0.21146088698E+02  0.37864128307E+01  0.12978838405E+02  0.25098689920E+02  0.00000000000E+00 0.  1.
</event>
<event>
12    1  0.8684423E-002  0.2251238E+03  0.7818608E-02  0.1130280E+00
         21   -1    0    0  501  502  0.00000000000E+00  0.00000000000E+00  0.64116231806E+03  0.64116231806E+03  0.00000000000E+00 0. -1.
         21   -1    0    0  502  503 -0.00000000000E+00 -0.00000000000E+00 -0.20112704862E+03  0.20112704862E+03  0.00000000000E+00 0. -1.
         -6    2    1    2    0  503 -0.13888196556E+03 -0.39939015868E+02 -0.10868010944E+03  0.24918796683E+03  0.17146413992E+03 0.  0.
        -24    2    3    3    0    0 -0.13500978091E+03 -0.17861928906E+02 -0.22498944070E+02  0.16001580275E+03  0.80945445823E+02 0.  0.
          6    2    1    2  501    0  0.13888196556E+03  0.39939015868E+02  0.54871537888E+03  0.59310139985E+03  0.17261917084E+03 0.  0.
         24    2    5    5    0    0  0.99230303820E+01  0.37551476266E+02  0.18621763284E+03  0.20831208972E+03  0.84901943684E+02 0.  0.
          5    1    5    5  501    0  0.12895893518E+03  0.23875396021E+01  0.36249774604E+03  0.38478931013E+03  0.47000000000E+01 0. -1.
        -11    1    6    6    0    0  0.16527609768E+02  0.21388042991E+02  0.65685573247E+01  0.27816473769E+02  0.00000000000E+00 0.  1.
         12    1    6    6    0    0 -0.66045793858E+01  0.16163433275E+02  0.17964907551E+03  0.18049561595E+03  0.00000000000E+00 0. -1.
         -5    1    3    3    0  503 -0.38721846579E+01 -0.22077086962E+02 -0.86181165371E+02  0.89172164084E+02  0.47000000000E+01 0.  1.
         11    1    4    4    0    0  0.11617922366E+01 -0.20108807289E+02 -0.11943833360E+02  0.23417280950E+02  0.00000000000E+00 0. -1.
        -12    1    4    4    0    0 -0.13617157314E+03  0.22468783828E+01 -0.10555110710E+02  0.13659852180E+03  0.00000000000E+00 0.  1.
</event>
<event>
12    1  0.8684423E-002  0.2389016E+03  0.7818608E-02  0.1120755E+00
         21   -1    0    0  503  502  0.00000000000E+00  0.00000000000E+00  0.10233406845E+03  0.10233406845E+03  0.00000000000E+00 0.  1.
         21   -1    0    0  501  503 -0.00000000000E+00 -0.00000000000E+00 -0.83575373829E+03  0.83575373829E+03  0.00000000000E+00 0.  1.
          6    2    1    2  501    0 -0.43293917560E+01  0.16523164418E+03 -0.63808616084E+03  0.68086714753E+03  0.17060446666E+03 0.  0.
         24    2    3    3    0    0 -0.63162156523E+02  0.63753076800E+02 -0.31388708783E+03  0.33606818756E+03  0.79767223638E+02 0.  0.
         -6    2    1    2    0  502  0.43293917560E+01 -0.16523164418E+03 -0.95333509002E+02  0.25722065922E+03  0.17249275265E+03 0.  0.
        -24    2    5    5    0    0 -0.53056172050E+02 -0.14394814047E+03 -0.92575815228E+02  0.19577323991E+03  0.78872399263E+02 0.  0.
          5    1    3    3  501    0  0.58832764767E+02  0.10147856738E+03 -0.32419907302E+03  0.34479895997E+03  0.47000000000E+01 0. -1.
        -13    1    4    4    0    0 -0.45316380750E+02  0.45483599325E+02 -0.30040351940E+03  0.30718822673E+03  0.00000000000E+00 0.  1.
         14    1    4    4    0    0 -0.17845775773E+02  0.18269477475E+02 -0.13483568427E+02  0.28879960832E+02  0.00000000000E+00 0. -1.
         -5    1    5    5    0  502  0.57385563806E+02 -0.21283503719E+02 -0.27576937734E+01  0.61447419302E+02  0.47000000000E+01 0.  1.
         11    1    6    6    0    0 -0.17595900841E+02 -0.47494267193E+02 -0.76515418775E+02  0.91760179016E+02  0.00000000000E+00 0. -1.
        -12    1    6    6    0    0 -0.35460271209E+02 -0.96453873272E+02 -0.16060396453E+02  0.10401306090E+03  0.00000000000E+00 0.  1.
</event>
<event>
12    1  0.8684423E-002  0.1801356E+03  0.7818608E-02  0.1168616E+00
         21   -1    0    0  501  502  0.00000000000E+00  0.00000000000E+00  0.68999856900E+02  0.68999856900E+02  0.00000000000E+00 0. -1.
         21   -1    0    0  502  503 -0.00000000000E+00 -0.00000000000E+00 -0.65248744050E+03  0.65248744050E+03  0.00000000000E+00 0. -1.
         -6    2    1    2    0  503  0.39992033787E+01 -0.52856642623E+02 -0.48977712750E+03  0.52185290340E+03  0.17215980911E+03 0.  0.
        -24    2    3    3    0    0  0.63745853911E+02 -0.78133435382E+01 -0.32681255802E+03  0.34247034587E+03  0.79717673654E+02 0.  0.
          6    2    1    2  501    0 -0.39992033787E+01  0.52856642623E+02 -0.93710456105E+02  0.19963439400E+03  0.16811431642E+03 0.  0.
         24    2    5    5    0    0  0.23102293859E+01  0.96257207755E+02 -0.43172810336E+02  0.13255562213E+03  0.80226642715E+02 0.  0.
          5    1    5    5  501    0 -0.63094327646E+01 -0.43400565132E+02 -0.50537645768E+02  0.67078771869E+02  0.47000000000E+01 0. -1.
        -13    1    6    6    0    0  0.23305885651E+02  0.51357817180E+02 -0.57919908498E+02  0.80842473317E+02  0.00000000000E+00 0.  1.
         14    1    6    6    0    0 -0.20995656265E+02  0.44899390575E+02  0.14747098162E+02  0.51713148814E+02  0.00000000000E+00 0. -1.
         -5    1    3    3    0  503 -0.59746650533E+02 -0.45043299085E+02 -0.16296456948E+03  0.17938255753E+03  0.47000000000E+01 0.  1.
         11    1    4    4    0    0  0.17845665587E+02 -0.24975536093E+02 -0.24638574075E+03  0.24829051216E+03  0.00000000000E+00 0. -1.
        -12    1    4    4    0    0  0.45900188325E+02  0.17162192555E+02 -0.80426817265E+02  0.94179833706E+02  0.00000000000E+00 0.  1.
</event>
<event>
12    1  0.8684423E-002  0.2462873E+03  0.7818608E-02  0.1115832E+00
         21   -1    0    0  503  502  0.00000000000E+00  0.00000000000E+00  0.23626339204E+03  0.23626339204E+03  0.00000000000E+00 0.  1.
         21   -1    0    0  501  503 -0.00000000000E+00 -0.00000000000E+00 -0.26878874406E+03  0.26878874406E+03  0.00000000000E+00 0. -1.
          6    2    1    2  501    0  0.14435562818E+03  0.99463147467E+02  0.39397997182E+02  0.24941862285E+03  0.17299127768E+03 0.  0.
         24    2    3    3    0    0  0.70876700582E+02  0.12033153720E+03  0.57839660781E+02  0.17069869242E+03  0.79305937385E+02 0.  0.
         -6    2    1    2    0  502 -0.14435562818E+03 -0.99463147467E+02 -0.71923349200E+02  0.25563351325E+03  0.17159271500E+03 0.  0.
        -24    2    5    5    0    0 -0.17307037209E+03 -0.70498740684E+02 -0.51699632094E+02  0.20986712699E+03  0.80299021778E+02 0.  0.
          5    1    3    3  501    0  0.73478927600E+02 -0.20868389730E+02 -0.18441663599E+02  0.78719930434E+02  0.47000000000E+01 0. -1.
        -13    1    4    4    0    0 -0.10435505845E+02  0.43097183283E+02  0.34418013506E+02  0.56132580939E+02  0.00000000000E+00 0.  1.
         14    1    4    4    0    0  0.81312206427E+02  0.77234353915E+02  0.23421647275E+02  0.11456611148E+03  0.00000000000E+00 0. -1.
         -5    1    5    5    0  502  0.28714743904E+02 -0.28964406783E+02 -0.20223717106E+02  0.45766386260E+02  0.47000000000E+01 0.  1.
         13    1    6    6    0    0 -0.16458042122E+03 -0.82929051955E+02 -0.58491956404E+02  0.19335266140E+03  0.00000000000E+00 0. -1.
        -14    1    6    6    0    0 -0.84899508646E+01  0.12430311270E+02  0.67923243099E+01  0.16514465583E+02  0.00000000000E+00 0.  1.
</event>
<event>
12    1  0.8684423E-002  0.2422588E+03  0.7818608E-02  0.1118326E+00
         21   -1    0    0  501  502  0.00000000000E+00  0.00000000000E+00  0.18574363297E+03  0.18574363297E+03  0.00000000000E+00 0. -1.
         21   -1    0    0  502  503 -0.00000000000E+00 -0.00000000000E+00 -0.39866413184E+03  0.39866413184E+03  0.00000000000E+00 0.  1.
         -6    2    1    2    0  503 -0.64711381226E+02  0.15766476567E+03  0.26777998884E+02  0.24373423237E+03  0.17217309200E+03 0.  0.
        -24    2    3    3    0    0 -0.69015903041E+02  0.18531628948E+03  0.18701926186E+02  0.21423086600E+03  0.80248239136E+02 0.  0.
          6    2    1    2  501    0  0.64711381226E+02 -0.15766476567E+03 -0.23969849776E+03  0.34067353244E+03  0.17192249615E+03 0.  0.
         24    2    5    5    0    0 -0.24972631863E+02 -0.11513909904E+03 -0.15087604923E+03  0.20739498245E+03  0.79802581677E+02 0.  0.
          5    1    5    5  501    0  0.89684013088E+02 -0.42525666635E+02 -0.88822448529E+02  0.13327855000E+03  0.47000000000E+01 0. -1.
        -11    1    6    6    0    0  0.88128925059E+01 -0.33470102046E+01 -0.56392140750E+02  0.57174671753E+02  0.00000000000E+00 0.  1.
         12    1    6    6    0    0 -0.33785524369E+02 -0.11179208883E+03 -0.94483908480E+02  0.15022031069E+03  0.00000000000E+00 0. -1.
         -5    1    3    3    0  503  0.43045218151E+01 -0.27651523808E+02  0.80760726987E+01  0.29503366370E+02  0.47000000000E+01 0.  1.
         13    1    4    4    0    0 -0.55571933951E+02  0.45470886978E+02 -0.40131304439E+01  0.71916247271E+02  0.00000000000E+00 0. -1.
        -14    1    4    4    0    0 -0.13443969090E+02  0.13984540250E+03  0.22715056629E+02  0.14231461873E+03  0.00000000000E+00 0.  1.
</event>
<event>
12    1  0.8684423E-002  0.1980523E+03  0.7818608E-02  0.1151416E+00
         21   -1    0    0  503  502  0.00000000000E+00  0.00000000000E+00  0.39118388756E+02  0.39118388756E+02  0.00000000000E+00 0.  1.
         21   -1    0    0  501  503 -0.00000000000E+00 -0.00000000000E+00 -0.16603034706E+04  0.16603034706E+04  0.00000000000E+00 0.  1.
          6    2    1    2  501    0  0.72167487136E+02  0.71040057714E+02 -0.13454345136E+04  0.13599176827E+04  0.17008009105E+03 0.  0.
         24    2    3    3    0    0  0.40292314348E+02  0.84559467520E+01 -0.38445745214E+03  0.39636602337E+03  0.87198155597E+02 0.  0.
         -6    2    1    2    0  502 -0.72167487136E+02 -0.71040057714E+02 -0.27575056829E+03  0.33950417669E+03  0.17020538792E+03 0.  0.
        -24    2    5    5    0    0 -0.34901600212E+02 -0.27088918085E+02 -0.26317593995E+03  0.28033779873E+03  0.85882331401E+02 0.  0.
          5    1    3    3  501    0  0.31875172788E+02  0.62584110962E+02 -0.96097706141E+03  0.96355165930E+03  0.47000000000E+01 0. -1.
        -13    1    4    4    0    0  0.24191484442E+02  0.15117564405E+02 -0.37585080708E+03  0.37693182123E+03  0.00000000000E+00 0.  1.
         14    1    4    4    0    0  0.16100829906E+02 -0.66616176532E+01 -0.86066450638E+01  0.19434202137E+02  0.00000000000E+00 0. -1.
         -5    1    5    5    0  502 -0.37265886923E+02 -0.43951139629E+02 -0.12574628337E+02  0.59166377958E+02  0.47000000000E+01 0.  1.
         13    1    6    6    0    0 -0.28647582251E+02  0.18441949077E+02 -0.40296383954E+02  0.52769195695E+02  0.00000000000E+00 0. -1.
        -14    1    6    6    0    0 -0.62540179619E+01 -0.45530867162E+02 -0.22287955600E+03  0.22756860304E+03  0.00000000000E+00 0.  1.
</event>
<event>
12    1  0.8684423E-002  0.2751479E+03  0.7818608E-02  0.1098428E+00
         21   -1    0    0  501  502  0.00000000000E+00  0.00000000000E+00  0.50045161645E+03  0.50045161645E+03  0.00000000000E+00 0.  1.
         21   -1    0    0  502  503 -0.00000000000E+00 -0.00000000000E+00 -0.30408362609E+03  0.30408362609E+03  0.00000000000E+00 0. -1.
         -6    2    1    2    0  503 -0.11501980985E+03 -0.17938431634E+03 -0.18715511729E+03  0.33276625368E+03  0.17406335642E+03 0.  0.
        -24    2    3    3    0    0 -0.65646834341E+02 -0.17292557469E+03 -0.19639110716E+03  0.28190566419E+03  0.81783710406E+02 0.  0.
          6    2    1    2  501    0  0.11501980985E+03  0.17938431634E+03  0.38352310765E+03  0.47176898886E+03  0.17340044734E+03 0.  0.
         24    2    5    5    0    0  0.81538513329E+02  0.79570018357E+02  0.32016743656E+03  0.34880589538E+03  0.78603105779E+02 0.  0.
          5    1    5    5  501    0  0.33481296521E+02  0.99814297986E+02  0.63355671088E+02  0.12296309348E+03  0.47000000000E+01 0. -1.
        -11    1    6    6    0    0  0.11145749453E+02  0.38305985356E+02  0.19743325952E+03  0.20142360391E+03  0.00000000000E+00 0.  1.
         12    1    6    6    0    0  0.70392763876E+02  0.41264033002E+02  0.12273417704E+03  0.14738229147E+03  0.00000000000E+00 0. -1.
         -5    1    3    3    0  503 -0.49372975509E+02 -0.64587416504E+01  0.92359898665E+01  0.50860589489E+02  0.47000000000E+01 0.  1.
         11    1    4    4    0    0  0.88662693370E+01  0.42095320672E+01 -0.66982796120E+01  0.11882669815E+02  0.00000000000E+00 0. -1.
        -12    1    4    4    0    0 -0.74513103678E+02 -0.17713510676E+03 -0.18969282755E+03  0.27002299437E+03  0.00000000000E+00 0.  1.
</event>
<event>
12    1  0.8684423E-002  0.2044142E+03  0.7818608E-02  0.1146993E+00
         21   -1    0    0  503  502  0.00000000000E+00  0.00000000000E+00  0.39779259623E+03  0.39779259623E+03  0.00000000000E+00 0. -1.
         21   -1    0    0  501  503 -0.00000000000E+00 -0.00000000000E+00 -0.11971172359E+03  0.11971172359E+03  0.00000000000E+00 0.  1.
          6    2    1    2  501    0  0.16465566632E+02 -0.10767803301E+03  0.23508086751E+03  0.30861642587E+03  0.16767650512E+03 0.  0.
         24    2    3    3    0    0  0.73559143870E+02 -0.86186442471E+02  0.17684488866E+03  0.22414699792E+03  0.78286087641E+02 0.  0.
         -6    2    1    2    0  502 -0.16465566632E+02  0.10767803301E+03  0.43000005133E+02  0.20888789396E+03  0.17297247794E+03 0.  0.
        -24    2    5    5    0    0 -0.28279487280E+02  0.12079310304E+03 -0.14697236388E+02  0.14836818261E+03  0.80040025671E+02 0.  0.
          5    1    3    3  501    0 -0.57093577238E+02 -0.21491590538E+02  0.58235978850E+02  0.84469427951E+02  0.47000000000E+01 0. -1.
        -11    1    4    4    0    0  0.19841214252E+02 -0.57818297209E+02  0.36444082997E+02  0.71167411507E+02  0.00000000000E+00 0.  1.
         12    1    4    4    0    0  0.53717929618E+02 -0.28368145262E+02  0.14040080566E+03  0.15297958641E+03  0.00000000000E+00 0. -1.
         -5    1    5    5    0  502  0.11813920648E+02 -0.13115070031E+02  0.57697241522E+02  0.60519711353E+02  0.47000000000E+01 0.  1.
         13    1    6    6    0    0 -0.14486382901E+02  0.76956816992E+02  0.30380631413E+02  0.83995176863E+02  0.00000000000E+00 0. -1.
        -14    1    6    6    0    0 -0.13793104378E+02  0.43836286048E+02 -0.45077867802E+02  0.64373005743E+02  0.00000000000E+00 0.  1.
</event>
<event>
12    1  0.8684423E-002  0.1747606E+03  0.7818608E-02  0.1173129E+00
         21   -1    0    0  501  502  0.00000000000E+00  0.00000000000E+00  0.20772118403E+04  0.20772118403E+04  0.00000000000E+00 0.  1.
         21   -1    0    0  502  503 -0.00000000000E+00 -0.00000000000E+00 -0.19891228705E+02  0.19891228705E+02  0.00000000000E+00 0.  1.
         -6    2    1    2    0  503  0.23201550324E+02  0.20047703467E+02  0.15682062922E+04  0.15779138921E+04  0.17204956659E+03 0.  0.
        -24    2    3    3    0    0 -0.43124451764E+02  0.23199924257E+02  0.57241995042E+03  0.57990507266E+03  0.78913489489E+02 0.  0.
          6    2    1    2  501    0 -0.23201550324E+02 -0.20047703467E+02  0.48911431939E+03  0.51918917699E+03  0.17141867376E+03 0.  0.
         24    2    5    5    0    0 -0.58454044639E+02  0.36810629947E+02  0.32813545148E+03  0.34479911320E+03  0.80259928561E+02 0.  0.
          5    1    5    5  501    0  0.35252494315E+02 -0.56858333414E+02  0.16097886791E+03  0.17439006379E+03  0.47000000000E+01 0. -1.
        -11    1    6    6    0    0 -0.38040995268E+02  0.60601885023E+02  0.26225202049E+03  0.27183787087E+03  0.00000000000E+00 0.  1.
         12    1    6    6    0    0 -0.20413049371E+02 -0.23791255077E+02  0.65883430994E+02  0.72961242330E+02  0.00000000000E+00 0. -1.
         -5    1    3    3    0  503  0.66326002088E+02 -0.31522207902E+01  0.99578634182E+03  0.99800881940E+03  0.47000000000E+01 0.  1.
         13    1    4    4    0    0 -0.54360055010E+00  0.36270002560E+02  0.40634167030E+03  0.40795754878E+03  0.00000000000E+00 0. -1.
        -14    1    4    4    0    0 -0.42580851214E+02 -0.13070078304E+02  0.16607828012E+03  0.17194752387E+03  0.00000000000E+00 0.  1.
</event>
<event>
12    1  0.8684423E-002  0.2310018E+03  0.7818608E-02  0.1126120E+00
         21   -1    0    0  503  502  0.00000000000E+00  0.00000000000E+00  0.88356463483E+03  0.88356463483E+03  0.00000000000E+00 0.  1.
         21   -1    0    0  501  503 -0.00000000000E+00 -0.00000000000E+00 -0.66518796786E+02  0.66518796786E+02  0.00000000000E+00 0.  1.
          6    2    1    2  501    0  0.13645926274E+03 -0.69522112845E+02  0.26035642187E+03  0.34736880071E+03  0.17153764233E+03 0.  0.
         24    2    3    3    0    0  0.20775546717E+02  0.15643137706E+02  0.12026497146E+03  0.14666118618E+03  0.79809204179E+02 0.  0.
         -6    2    1    2    0  502 -0.13645926274E+03  0.69522112845E+02  0.55668941618E+03  0.60271463091E+03  0.17293746171E+03 0.  0.
        -24    2    5    5    0    0 -0.11701894217E+03  0.93729954022E+02  0.30966251897E+03  0.35369992535E+03  0.82061101826E+02 0.  0.
          5    1    3    3  501    0  0.11568371602E+03 -0.85165250550E+02  0.14009145041E+03  0.20070761453E+03  0.47000000000E+01 0. -1.
        -11    1    4    4    0    0  0.44743741909E+02  0.25721798207E+02  0.10369636688E+03  0.11582983142E+03  0.00000000000E+00 0.  1.
         12    1    4    4    0    0 -0.23968195192E+02 -0.10078660501E+02  0.16568604578E+02  0.30831354753E+02  0.00000000000E+00 0. -1.
         -5    1    5    5    0  502 -0.19440320576E+02 -0.24207841178E+02  0.24702689721E+03  0.24901470556E+03  0.47000000000E+01 0.  1.
         11    1    6    6    0    0 -0.33440246194E+02 -0.11996155661E+02  0.53011105624E+02  0.63814850432E+02  0.00000000000E+00 0. -1.
        -12    1    6    6    0    0 -0.83578695971E+02  0.10572610968E+03  0.25665141334E+03  0.28988507492E+03  0.00000000000E+00 0.  1.
</event>
<event>
12    1  0.8684423E-002  0.2047311E+03  0.7818608E-02  0.1145851E+00
         21   -1    0    0  503  502  0.00000000000E+00  0.00000000000E+00  0.15954539668E+03  0.15954539668E+03  0.00000000000E+00 0.  1.
         21   -1    0    0  501  503 -0.00000000000E+00 -0.00000000000E+00 -0.54307888445E+03  0.54307888445E+03  0.00000000000E+00 0.  1.
          6    2    1    2  501    0 -0.83201992154E+02 -0.72657950774E+02 -0.44435680279E+03  0.48925226933E+03  0.17237478222E+03 0.  0.
         24    2    3    3    0    0 -0.57900796027E+02  0.15532764860E+02 -0.31733806865E+03  0.33249257529E+03  0.79082829032E+02 0.  0.
         -6    2    1    2    0  502  0.83201992154E+02  0.72657950774E+02  0.60823315019E+02  0.21337201180E+03  0.17212318397E+03 0.  0.
        -24    2    5    5    0    0  0.58137840303E+02  0.11311249381E+03  0.61520624454E+02  0.16554568014E+03  0.86291020678E+02 0.  0.
          5    1    3    3  501    0 -0.25301196127E+02 -0.88190715634E+02 -0.12701873414E+03  0.15675969403E+03  0.47000000000E+01 0. -1.
        -13    1    4    4    0    0  0.13252196575E+02 -0.13711213655E+01 -0.14047596542E+03  0.14110633419E+03  0.00000000000E+00 0.  1.
         14    1    4    4    0    0 -0.71152992602E+02  0.16903886225E+02 -0.17686210322E+03  0.19138624110E+03  0.00000000000E+00 0. -1.
         -5    1    5    5    0  502  0.25064151852E+02 -0.40454543031E+02 -0.69730943580E+00  0.47826331663E+02  0.47000000000E+01 0.  1.
         11    1    6    6    0    0 -0.19772094722E+02  0.23601068082E+02 -0.21707305250E+01  0.30865161839E+02  0.00000000000E+00 0. -1.
        -12    1    6    6    0    0  0.77909935025E+02  0.89511425723E+02  0.63691354979E+02  0.13468051830E+03  0.00000000000E+00 0.  1.
</event>
<event>
12    1  0.8684423E-002  0.1829104E+03  0.7818608E-02  0.1165333E+00
         21   -1    0    0  503  502  0.00000000000E+00  0.00000000000E+00  0.20774101861E+03  0.20774101861E+03  0.00000000000E+00 0.  1.
         21   -1    0    0  501  503 -0.00000000000E+00 -0.00000000000E+00 -0.28465838714E+03  0.28465838714E+03  0.00000000000E+00 0.  1.
          6    2    1    2  501    0 -0.27090690666E+02 -0.50229087101E+02 -0.20138406914E+03  0.27115709829E+03  0.17237680220E+03 0.  0.
         24    2    3    3    0    0 -0.33741047919E+02 -0.99199170846E+02 -0.16068599853E+03  0.20696426921E+03  0.77687095418E+02 0.  0.
         -6    2    1    2    0  502  0.27090690666E+02  0.50229087101E+02  0.12446670061E+03  0.22124230747E+03  0.17377955099E+03 0.  0.
        -24    2    5    5    0    0 -0.15705761542E+02  0.24832115595E+02 -0.29867445135E+01  0.84337182811E+02  0.78997055965E+02 0.  0.
          5    1    3    3  501    0  0.66503572529E+01  0.48970083745E+02 -0.40698070611E+02  0.64192829078E+02  0.47000000000E+01 0. -1.
        -13    1    4    4    0    0 -0.43337475833E+02 -0.16002816144E+02 -0.48694435861E+02  0.67122090402E+02  0.00000000000E+00 0.  1.
         14    1    4    4    0    0  0.95964279140E+01 -0.83196354702E+02 -0.11199156267E+03  0.13984217881E+03  0.00000000000E+00 0. -1.
         -5    1    5    5    0  502  0.42796452209E+02  0.25396971507E+02  0.12745344513E+03  0.13690512466E+03  0.47000000000E+01 0.  1.
         13    1    6    6    0    0 -0.83616652882E+01  0.50946902842E+02 -0.16270484552E+02  0.54131626829E+02  0.00000000000E+00 0. -1.
        -14    1    6    6    0    0 -0.73440962542E+01 -0.26114787247E+02  0.13283740038E+02  0.30205555982E+02  0.00000000000E+00 0.  1.
</event>
<event>
12    1  0.8684423E-002  0.1990867E+03  0.7818608E-02  0.1151860E+00
         21   -1    0    0  503  502  0.00000000000E+00  0.00000000000E+00  0.17921949496E+03  0.17921949496E+03  0.00000000000E+00 0. -1.
         21   -1    0    0  501  503 -0.00000000000E+00 -0.00000000000E+00 -0.24729286822E+03  0.24729286822E+03  0.00000000000E+00 0. -1.
          6    2    1    2  501    0 -0.49764109926E+02  0.90577563730E+02 -0.11148663435E+03  0.22274722195E+03  0.16280753533E+03 0.  0.
         24    2    3    3    0    0 -0.82733750656E+01  0.99650955348E+02 -0.33281946652E+02  0.13363004801E+03  0.82161670627E+02 0.  0.
         -6    2    1    2    0  502  0.49764109926E+02 -0.90577563730E+02  0.43413261082E+02  0.20376514123E+03  0.17016098217E+03 0.  0.
        -24    2    5    5    0    0  0.88990676408E+02 -0.82841589448E+02  0.87970076658E+00  0.14520096643E+03  0.79375546295E+02 0.  0.
          5    1    3    3  501    0 -0.41490734860E+02 -0.90733916172E+01 -0.78204687694E+02  0.89117173946E+02  0.47000000000E+01 0. -1.
        -13    1    4    4    0    0  0.36682142081E+02  0.41986955813E+02 -0.83309484590E+01  0.56372765662E+02  0.00000000000E+00 0.  1.
         14    1    4    4    0    0 -0.44955517147E+02  0.57663999535E+02 -0.24950998193E+02  0.77257282344E+02  0.00000000000E+00 0. -1.
         -5    1    5    5    0  502 -0.39226566482E+02 -0.77359742830E+01  0.42533560316E+02  0.58564174793E+02  0.47000000000E+01 0.  1.
         11    1    6    6    0    0 -0.11806644695E+02 -0.25287314076E+02 -0.72840517680E+01  0.28842720439E+02  0.00000000000E+00 0. -1.
        -12    1    6    6    0    0  0.10079732110E+03 -0.57554275371E+02  0.81637525346E+01  0.11635824599E+03  0.00000000000E+00 0.  1.
</event>
<event>
12    1  0.8684423E-002  0.3189734E+03  0.7818608E-02  0.1076947E+00
         21   -1    0    0  503  502  0.00000000000E+00  0.00000000000E+00  0.16133021151E+03  0.16133021151E+03  0.00000000000E+00 0.  1.
         21   -1    0    0  501  503 -0.00000000000E+00 -0.00000000000E+00 -0.11258684430E+04  0.11258684430E+04  0.00000000000E+00 0. -1.
          6    2    1    2  501    0  0.11126050642E+03 -0.23935448357E+03 -0.91207576492E+03  0.96393975539E+03  0.16621727334E+03 0.  0.
         24    2    3    3    0    0  0.44980814734E+02 -0.16276125634E+03 -0.39485133408E+03  0.43686981520E+03  0.80206976924E+02 0.  0.
         -6    2    1    2    0  502 -0.11126050642E+03  0.23935448357E+03 -0.52462466531E+02  0.32325889909E+03  0.17909365246E+03 0.  0.
        -24    2    5    5    0    0 -0.13776957175E+03  0.20274073656E+03 -0.80457362133E+02  0.26988192658E+03  0.79237655241E+02 0.  0.
          5    1    3    3  501    0  0.66279691688E+02 -0.76593227229E+02 -0.51722443084E+03  0.52706994018E+03  0.47000000000E+01 0. -1.
        -13    1    4    4    0    0  0.40427058044E+01 -0.15340717761E+02 -0.29163910052E+01  0.16130295352E+02  0.00000000000E+00 0.  1.
         14    1    4    4    0    0  0.40938108930E+02 -0.14742053858E+03 -0.39193494308E+03  0.42073951985E+03  0.00000000000E+00 0. -1.
         -5    1    5    5    0  502  0.26509065331E+02  0.36613747006E+02  0.27994895603E+02  0.53376972510E+02  0.47000000000E+01 0.  1.
         11    1    6    6    0    0 -0.61406048667E+02  0.29717273050E+02 -0.26774239805E+02  0.73284916918E+02  0.00000000000E+00 0. -1.
        -12    1    6    6    0    0 -0.76363523087E+02  0.17302346351E+03 -0.53683122328E+02  0.19659700966E+03  0.00000000000E+00 0.  1.
</event>
<event>
12    1  0.8684423E-002  0.1838490E+03  0.7818608E-02  0.1164911E+00
         21   -1    0    0  501  502  0.00000000000E+00  0.00000000000E+00  0.13226204568E+03  0.13226204568E+03  0.00000000000E+00 0.  1.
         21   -1    0    0  502  503 -0.00000000000E+00 -0.00000000000E+00 -0.25618913994E+03  0.25618913994E+03  0.00000000000E+00 0. -1.
         -6    2    1    2    0  503  0.44596305923E+02 -0.29048808856E+02 -0.33777670473E+02  0.18368942436E+03  0.17253466260E+03 0.  0.
        -24    2    3    3    0    0  0.54441003163E+02 -0.71357247888E+02 -0.59971189845E+02  0.13274717731E+03  0.77263120700E+02 0.  0.
          6    2    1    2  501    0 -0.44596305923E+02  0.29048808856E+02 -0.90149423785E+02  0.20476176126E+03  0.17597669297E+03 0.  0.
         24    2    5    5    0    0 -0.25140616623E-01 -0.47611833576E+02 -0.60647030826E+02  0.11118866649E+03  0.80112233016E+02 0.  0.
          5    1    5    5  501    0 -0.44571165307E+02  0.76660642431E+02 -0.29502392959E+02  0.93573094771E+02  0.47000000000E+01 0. -1.
        -11    1    6    6    0    0 -0.18741724658E+02 -0.12368121203E+02  0.14058740855E+02  0.26492845443E+02  0.00000000000E+00 0.  1.
         12    1    6    6    0    0  0.18716584041E+02 -0.35243712373E+02 -0.74705771681E+02  0.84695821045E+02  0.00000000000E+00 0. -1.
         -5    1    3    3    0  503 -0.98446972398E+01  0.42308439032E+02  0.26193519373E+02  0.50942247047E+02  0.47000000000E+01 0.  1.
         11    1    4    4    0    0 -0.11492267168E+02 -0.38522726642E+02 -0.43226048446E+01  0.40432135552E+02  0.00000000000E+00 0. -1.
        -12    1    4    4    0    0  0.65933270331E+02 -0.32834521246E+02 -0.55648585001E+02  0.92315041757E+02  0.00000000000E+00 0.  1.
</event>
<event>
12    1  0.8684423E-002  0.2043782E+03  0.7818608E-02  0.1146508E+00
         21   -1    0    0  501  502  0.00000000000E+00  0.00000000000E+00  0.10586646375E+03  0.10586646375E+03  0.00000000000E+00 0. -1.
         21   -1    0    0  502  503 -0.00000000000E+00 -0.00000000000E+00 -0.47504760304E+03  0.47504760304E+03  0.00000000000E+00 0.  1.
         -6    2    1    2    0  503 -0.96427084566E+02 -0.46280725088E+02 -0.30622406180E+03  0.36705884041E+03  0.17181073351E+03 0.  0.
        -24    2    3    3    0    0 -0.10322260487E+03 -0.84854292828E+02 -0.27731789418E+03  0.31815326046E+03  0.80381126759E+02 0.  0.
          6    2    1    2  501    0  0.96427084566E+02  0.46280725088E+02 -0.62957077485E+02  0.21385522638E+03  0.17415618304E+03 0.  0.
         24    2    5    5    0    0  0.21681420138E+01 -0.48556055022E+02 -0.28388580312E+02  0.75667549250E+02  0.50569508583E+02 0.  0.
          5    1    5    5  501    0  0.94258942552E+02  0.94836780110E+02 -0.34568497173E+02  0.13818767713E+03  0.47000000000E+01 0. -1.
        -13    1    6    6    0    0  0.26069113269E+02 -0.26723211767E+02 -0.10991030239E+02  0.38916981634E+02  0.00000000000E+00 0.  1.
         14    1    6    6    0    0 -0.23900971256E+02 -0.21832843255E+02 -0.17397550073E+02  0.36750567616E+02  0.00000000000E+00 0. -1.
         -5    1    3    3    0  503  0.67955203033E+01  0.38573567740E+02 -0.28906167617E+02  0.48905579955E+02  0.47000000000E+01 0.  1.
         11    1    4    4    0    0  0.95048949481E+01 -0.27254083974E+02 -0.61766248645E+02  0.68177691314E+02  0.00000000000E+00 0. -1.
        -12    1    4    4    0    0 -0.11272749982E+03 -0.57600208854E+02 -0.21555164554E+03  0.24997556915E+03  0.00000000000E+00 0.  1.
</event>
<event>
12    1  0.8684423E-002  0.2178473E+03  0.7818608E-02  0.1135959E+00
         21   -1    0    0  501  502  0.00000000000E+00  0.00000000000E+00  0.20211855918E+03  0.20211855918E+03  0.00000000000E+00 0.  1.
         21   -1    0    0  502  503 -0.00000000000E+00 -0.00000000000E+00 -0.32143022270E+03  0.32143022270E+03  0.00000000000E+00 0. -1.
         -6    2    1    2    0  503 -0.37147436606E+02  0.12933844072E+03 -0.19734469791E+03  0.29214735092E+03  0.16821646936E+03 0.  0.
        -24    2    3    3    0    0 -0.92560690510E+02  0.88359183449E+02 -0.13531216442E+03  0.19930310799E+03  0.70975490745E+02 0.  0.
          6    2    1    2  501    0  0.37147436606E+02 -0.12933844072E+03  0.78033034393E+02  0.23140143096E+03  0.17131580049E+03 0.  0.
         24    2    5    5    0    0  0.13223964950E+02 -0.18607043100E+02  0.10020548959E+03  0.11587012488E+03  0.53513086186E+02 0.  0.
          5    1    5    5  501    0  0.23923471656E+02 -0.11073139762E+03 -0.22172455200E+02  0.11553130608E+03  0.47000000000E+01 0. -1.
        -13    1    6    6    0    0 -0.54477820929E+01 -0.25381480479E+02  0.89739367518E+02  0.93418691725E+02  0.00000000000E+00 0.  1.
         14    1    6    6    0    0  0.18671747043E+02  0.67744373784E+01  0.10466122076E+02  0.22451433155E+02  0.00000000000E+00 0. -1.
         -5    1    3    3    0  503  0.55413253904E+02  0.40979257268E+02 -0.62032533497E+02  0.92844242937E+02  0.47000000000E+01 0.  1.
         13    1    4    4    0    0 -0.69513610456E+02  0.23988314005E+02 -0.94266495462E+02  0.11955648629E+03  0.00000000000E+00 0. -1.
        -14    1    4    4    0    0 -0.23047080054E+02  0.64370869444E+02 -0.41045668954E+02  0.79746621696E+02  0.00000000000E+00 0.  1.
</event>
<event>
12    1  0.8684423E-002  0.2390019E+03  0.7818608E-02  0.1120859E+00
         21   -1    0    0  501  502  0.00000000000E+00  0.00000000000E+00  0.67930682490E+03  0.67930682490E+03  0.00000000000E+00 0. -1.
         21   -1    0    0  502  503 -0.00000000000E+00 -0.00000000000E+00 -0.90211936458E+02  0.90211936458E+02  0.00000000000E+00 0. -1.
         -6    2    1    2    0  503 -0.22737788348E+02 -0.16280993749E+03  0.40003304005E+03  0.46477904127E+03  0.17020294154E+03 0.  0.
        -24    2    3    3    0    0 -0.59377189145E+02 -0.51625704052E+02  0.12675896545E+03  0.16744893969E+03  0.76029258659E+02 0.  0.
          6    2    1    2  501    0  0.22737788348E+02  0.16280993749E+03  0.18906184840E+03  0.30473972010E+03  0.17348726674E+03 0.  0.
         24    2    5    5    0    0 -0.17494968210E+02  0.19472989986E+02  0.97647548264E+02  0.12997467929E+03  0.81689058770E+02 0.  0.
          5    1    5    5  501    0  0.40232756558E+02  0.14333694750E+03  0.91414300134E+02  0.17476504081E+03  0.47000000000E+01 0. -1.
        -13    1    6    6    0    0 -0.64731260797E+01 -0.26147166786E+02  0.68954322549E+01  0.27805083675E+02  0.00000000000E+00 0.  1.
         14    1    6    6    0    0 -0.11021842130E+02  0.45620156772E+02  0.90752116009E+02  0.10216959561E+03  0.00000000000E+00 0. -1.
         -5    1    3    3    0  503  0.36639400797E+02 -0.11118423343E+03  0.27327407460E+03  0.29733010158E+03  0.47000000000E+01 0.  1.
         13    1    4    4    0    0 -0.40673141145E+02  0.63008071259E+01  0.82471885383E+02  0.92171668422E+02  0.00000000000E+00 0. -1.
        -14    1    4    4    0    0 -0.18704048000E+02 -0.57926511178E+02  0.44287080063E+02  0.75277271267E+02  0.00000000000E+00 0.  1.
</event>
<event>
12    1  0.8684423E-002  0.2456096E+03  0.7818608E-02  0.1116250E+00
         21   -1    0    0  501  502  0.00000000000E+00  0.00000000000E+00  0.16493251726E+04  0.16493251726E+04  0.00000000000E+00 0.  1.
         21   -1    0    0  502  503 -0.00000000000E+00 -0.00000000000E+00 -0.42384021643E+02  0.42384021643E+02  0.00000000000E+00 0.  1.
         -6    2    1    2    0  503 -0.79255027273E+02 -0.15623189223E+03  0.11188174307E+04  0.11452763408E+04  0.17092597857E+03 0.  0.
        -24    2    3    3    0    0 -0.91590228584E+01 -0.87008672421E+02  0.33711891727E+03  0.35738043408E+03  0.80107512148E+02 0.  0.
          6    2    1    2  501    0  0.79255027273E+02  0.15623189223E+03  0.48812372030E+03  0.54643285345E+03  0.17214625615E+03 0.  0.
         24    2    5    5    0    0  0.92904127042E+02  0.16422884342E+03  0.33477219320E+03  0.39219592526E+03  0.78376862762E+02 0.  0.
          5    1    5    5  501    0 -0.13649099769E+02 -0.79969511906E+01  0.15335152710E+03  0.15423692818E+03  0.47000000000E+01 0. -1.
        -13    1    6    6    0    0  0.83063833901E+01  0.17322857533E+02  0.27597802497E+01  0.19408600804E+02  0.00000000000E+00 0.  1.
         14    1    6    6    0    0  0.84597743652E+02  0.14690598589E+03  0.33201241295E+03  0.37278732446E+03  0.00000000000E+00 0. -1.
         -5    1    3    3    0  503 -0.70096004414E+02 -0.69223219813E+02  0.78169851344E+03  0.78789590677E+03  0.47000000000E+01 0.  1.
         13    1    4    4    0    0  0.25734975752E+02 -0.41095610931E+02  0.77382599403E+02  0.91319247178E+02  0.00000000000E+00 0. -1.
        -14    1    4    4    0    0 -0.34893998610E+02 -0.45913061490E+02  0.25973631787E+03  0.26606118690E+03  0.00000000000E+00 0.  1.
</event>
<event>
12    1  0.8684423E-002  0.1757921E+03  0.7818608E-02  0.1172103E+00
         21   -1    0    0  501  502  0.00000000000E+00  0.00000000000E+00  0.56246328854E+02  0.56246328854E+02  0.00000000000E+00 0. -1.
         21   -1    0    0  502  503 -0.00000000000E+00 -0.00000000000E+00 -0.95423007548E+03  0.95423007548E+03  0.00000000000E+00 0. -1.
         -6    2    1    2    0  503  0.24340854411E+02  0.24006619130E+02 -0.77841839829E+03  0.79787644724E+03  0.17176387078E+03 0.  0.
        -24    2    3    3    0    0  0.18341341295E+02  0.82394413941E+02 -0.50736890674E+03  0.52050477310E+03  0.79854662050E+02 0.  0.
          6    2    1    2  501    0 -0.24340854411E+02 -0.24006619130E+02 -0.11956534833E+03  0.21259995709E+03  0.17243571057E+03 0.  0.
         24    2    5    5    0    0  0.18503623574E+00  0.29810400723E+02 -0.12718045692E+03  0.15278465122E+03  0.79243843896E+02 0.  0.
          5    1    5    5  501    0 -0.24525890646E+02 -0.53817019854E+02  0.76151085905E+01  0.59815305874E+02  0.47000000000E+01 0. -1.
        -13    1    6    6    0    0  0.49114312946E+01 -0.23219718458E+02 -0.73262229096E+02  0.77010594691E+02  0.00000000000E+00 0.  1.
         14    1    6    6    0    0 -0.47263950589E+01  0.53030119182E+02 -0.53918227827E+02  0.75774056528E+02  0.00000000000E+00 0. -1.
         -5    1    3    3    0  503  0.59995131151E+01 -0.58387794811E+02 -0.27104949155E+03  0.27737167413E+03  0.47000000000E+01 0.  1.
         13    1    4    4    0    0 -0.13734096212E+02  0.29828914269E+02 -0.34968266884E+03  0.35122123856E+03  0.00000000000E+00 0. -1.
        -14    1    4    4    0    0  0.32075437508E+02  0.52565499673E+02 -0.15768623790E+03  0.16928353455E+03  0.00000000000E+00 0.  1.
</event>
<event>
12    1  0.8684423E-002  0.1913854E+03  0.7818608E-02  0.1157370E+00
         21   -1    0    0  501  502  0.00000000000E+00  0.00000000000E+00  0.11140219471E+03  0.11140219471E+03  0.00000000000E+00 0.  1.
         21   -1    0    0  502  503 -0.00000000000E+00 -0.00000000000E+00 -0.43512889473E+03  0.43512889473E+03  0.00000000000E+00 0.  1.
         -6    2    1    2    0  503 -0.66829003937E+02 -0.50548262690E+02 -0.25821745191E+02  0.19244674782E+03  0.17131183729E+03 0.  0.
        -24    2    3    3    0    0 -0.39639825143E+02 -0.47343372176E+02 -0.73539232253E+02  0.13723287875E+03  0.98041489701E+02 0.  0.
          6    2    1    2  501    0  0.66829003937E+02  0.50548262690E+02 -0.29790495482E+03  0.35408434162E+03  0.17206718525E+03 0.  0.
         24    2    5    5    0    0  0.15952351319E+02  0.89779740083E+02 -0.15827369892E+03  0.20031009077E+03  0.82211248925E+02 0.  0.
          5    1    5    5  501    0  0.50876652618E+02 -0.39231477393E+02 -0.13963125590E+03  0.15377425085E+03  0.47000000000E+01 0. -1.
        -13    1    6    6    0    0  0.43898144746E+02  0.77299146769E+02 -0.13592674194E+03  0.16241392914E+03  0.00000000000E+00 0.  1.
         14    1    6    6    0    0 -0.27945793427E+02  0.12480593314E+02 -0.22346956982E+02  0.37896161628E+02  0.00000000000E+00 0. -1.
         -5    1    3    3    0  503 -0.27189178794E+02 -0.32048905141E+01  0.47717487062E+02  0.55213869075E+02  0.47000000000E+01 0.  1.
         11    1    4    4    0    0  0.24788826414E+02  0.99085036366E+01 -0.51084243458E+01  0.27180146405E+02  0.00000000000E+00 0. -1.
        -12    1    4    4    0    0 -0.64428651557E+02 -0.57251875812E+02 -0.68430807907E+02  0.11005273234E+03  0.00000000000E+00 0.  1.
</event>
<event>
12    1  0.8684423E-002  0.2143834E+03  0.7818608E-02  0.1138224E+00
         21   -1    0    0  503  502  0.00000000000E+00  0.00000000000E+00  0.68208968296E+02  0.68208968296E+02  0.00000000000E+00 0. -1.
         21   -1    0    0  501  503 -0.00000000000E+00 -0.00000000000E+00 -0.10919365747E+04  0.10919365747E+04  0.00000000000E+00 0. -1.
          6    2    1    2  501    0  0.74509007930E+02  0.10366267586E+03 -0.87107727461E+03  0.89696811450E+03  0.17169344035E+03 0.  0.
         24    2    3    3    0    0  0.90429473509E+02  0.43711572519E+02 -0.35812847465E+03  0.38026108204E+03  0.79084100207E+02 0.  0.
         -6    2    1    2    0  502 -0.74509007930E+02 -0.10366267586E+03 -0.15265033175E+03  0.26317742845E+03  0.17222860515E+03 0.  0.
        -24    2    5    5    0    0  0.10556950338E+02 -0.46780273430E+02 -0.17468439563E+02  0.93565934332E+02  0.78419350316E+02 0.  0.
          5    1    3    3  501    0 -0.15920465579E+02  0.59951103344E+02 -0.51294879996E+03  0.51670703247E+03  0.47000000000E+01 0. -1.
        -13    1    4    4    0    0 -0.35753793826E+01 -0.14774463551E+02 -0.25453219877E+02  0.29646829730E+02  0.00000000000E+00 0.  1.
         14    1    4    4    0    0  0.94004852891E+02  0.58486036070E+02 -0.33267525477E+03  0.35061425231E+03  0.00000000000E+00 0. -1.
         -5    1    5    5    0  502 -0.85065958268E+02 -0.56882402434E+02 -0.13518189218E+03  0.16961149412E+03  0.47000000000E+01 0.  1.
         13    1    6    6    0    0 -0.26974241229E+02 -0.66369764312E+00  0.90528524283E+01  0.28460574863E+02  0.00000000000E+00 0. -1.
        -14    1    6    6    0    0  0.37531191567E+02 -0.46116575786E+02 -0.26521291991E+02  0.65105359469E+02  0.00000000000E+00 0.  1.
</event>
<event>
12    1  0.8684423E-002  0.2187119E+03  0.7818608E-02  0.1135516E+00
         21   -1    0    0  503  502  0.00000000000E+00  0.00000000000E+00  0.17798887889E+03  0.17798887889E+03  0.00000000000E+00 0.  1.
         21   -1    0    0  501  503 -0.00000000000E+00 -0.00000000000E+00 -0.26443165744E+03  0.26443165744E+03  0.00000000000E+00 0.  1.
          6    2    1    2  501    0  0.68046718791E+02 -0.11323408941E+03 -0.43269380203E+02  0.22295096888E+03  0.17430599622E+03 0.  0.
         24    2    3    3    0    0  0.55087957928E+02 -0.13450779014E+03 -0.75009998818E+02  0.18233007898E+03  0.80565061056E+02 0.  0.
         -6    2    1    2    0  502 -0.68046718791E+02  0.11323408941E+03 -0.43173398346E+02  0.21946956746E+03  0.16985474316E+03 0.  0.
        -24    2    5    5    0    0 -0.32929626817E+02 -0.20220814273E+01  0.73881776875E+01  0.88718819714E+02  0.82024354105E+02 0.  0.
          5    1    3    3  501    0  0.12958760863E+02  0.21273700730E+02  0.31740618615E+02  0.40620889896E+02  0.47000000000E+01 0. -1.
        -13    1    4    4    0    0  0.75027424434E+02 -0.11913263897E+03 -0.66911011038E+02  0.15588067065E+03  0.00000000000E+00 0.  1.
         14    1    4    4    0    0 -0.19939466507E+02 -0.15375151174E+02 -0.80989877807E+01  0.26449408335E+02  0.00000000000E+00 0. -1.
         -5    1    5    5    0  502 -0.35117091974E+02  0.11525617084E+03 -0.50561576034E+02  0.13075074774E+03  0.47000000000E+01 0.  1.
         13    1    6    6    0    0  0.17910507388E+02 -0.66390216408E+01 -0.22538633289E+02  0.29544083566E+02  0.00000000000E+00 0. -1.
        -14    1    6    6    0    0 -0.50840134204E+02  0.46169402135E+01  0.29926810977E+02  0.59174736147E+02  0.00000000000E+00 0.  1.
</event>
<event>
12    1  0.8684423E-002  0.2739160E+03  0.7818608E-02  0.1099226E+00
         21   -1    0    0  503  502  0.00000000000E+00  0.00000000000E+00  0.69096198015E+03  0.69096198015E+03  0.00000000000E+00 0. -1.
         21   -1    0    0  501  503 -0.00000000000E+00 -0.00000000000E+00 -0.16849313473E+03  0.16849313473E+03  0.00000000000E+00 0.  1.
          6    2    1    2  501    0 -0.20473699258E+03  0.58712194366E+02  0.43615958648E+01  0.27395075237E+03  0.17223714265E+03 0.  0.
         24    2    3    3    0    0 -0.18379585121E+03  0.98087523686E+02 -0.18734150045E+02  0.22350819652E+03  0.78758290434E+02 0.  0.
         -6    2    1    2    0  502  0.20473699258E+03 -0.58712194366E+02  0.51810724956E+03  0.58550436251E+03  0.17034047839E+03 0.  0.
        -24    2    5    5    0    0  0.18490985388E+03 -0.75331033555E+02  0.31936977459E+03  0.38503497532E+03  0.79927846323E+02 0.  0.
          5    1    3    3  501    0 -0.20941141369E+02 -0.39375329320E+02  0.23095745910E+02  0.50442555843E+02  0.47000000000E+01 0. -1.
        -11    1    4    4    0    0 -0.75152800985E+02  0.10423387510E+02 -0.33871161976E+02  0.83089386306E+02  0.00000000000E+00 0.  1.
         12    1    4    4    0    0 -0.10864305022E+03  0.87664136176E+02  0.15137011931E+02  0.14041881022E+03  0.00000000000E+00 0. -1.
         -5    1    5    5    0  502  0.19827138696E+02  0.16618839189E+02  0.19873747497E+03  0.20046938720E+03  0.47000000000E+01 0.  1.
         11    1    6    6    0    0  0.41840228435E+02  0.16080223793E+02  0.56794153080E+02  0.72351600790E+02  0.00000000000E+00 0. -1.
        -12    1    6    6    0    0  0.14306962544E+03 -0.91411257348E+02  0.26257562151E+03  0.31268337453E+03  0.00000000000E+00 0.  1.
</event>
<event>
12    1  0.8684423E-002  0.1886723E+03  0.7818608E-02  0.1160555E+00
         21   -1    0    0  501  502  0.00000000000E+00  0.00000000000E+00  0.42543743466E+03  0.42543743466E+03  0.00000000000E+00 0.  1.
         21   -1    0    0  502  503 -0.00000000000E+00 -0.00000000000E+00 -0.19703764088E+03  0.19703764088E+03  0.00000000000E+00 0.  1.
         -6    2    1    2    0  503  0.75886497708E+02  0.24299783135E+02 -0.12413898103E+03  0.22262409621E+03  0.16673860264E+03 0.  0.
        -24    2    3    3    0    0  0.65639341689E+02 -0.37738052215E+02 -0.34292600195E+02  0.11285998837E+03  0.76345993900E+02 0.  0.
          6    2    1    2  501    0 -0.75886497708E+02 -0.24299783135E+02  0.35253877480E+03  0.39985097933E+03  0.17102040210E+03 0.  0.
         24    2    5    5    0    0 -0.26530438091E+02  0.14358216549E+02  0.31571155189E+03  0.32698949493E+03  0.79613587248E+02 0.  0.
          5    1    5    5  501    0 -0.49356059617E+02 -0.38657999684E+02  0.36827222919E+02  0.72861484396E+02  0.47000000000E+01 0. -1.
        -13    1    6    6    0    0 -0.11719264307E+02 -0.12665005933E+02  0.27687539844E+03  0.27741256243E+03  0.00000000000E+00 0.  1.
         14    1    6    6    0    0 -0.14811173784E+02  0.27023222482E+02  0.38836153445E+02  0.49576932505E+02  0.00000000000E+00 0. -1.
         -5    1    3    3    0  503  0.10247156018E+02  0.62037835351E+02 -0.89846380832E+02  0.10976410784E+03  0.47000000000E+01 0.  1.
         11    1    4    4    0    0 -0.16349276221E+02 -0.15381632454E+02 -0.91055190090E+01  0.24224036128E+02  0.00000000000E+00 0. -1.
        -12    1    4    4    0    0  0.81988617911E+02 -0.22356419762E+02 -0.25187081186E+02  0.88635952244E+02  0.00000000000E+00 0.  1.
</event>
<event>
12    1  0.8684423E-002  0.1870574E+03  0.7818608E-02  0.1161443E+00
         21   -1    0    0  503  502  0.00000000000E+00  0.00000000000E+00  0.86140209606E+02  0.86140209606E+02  0.00000000000E+00 0. -1.
         21   -1    0    0  501  503 -0.00000000000E+00 -0.00000000000E+00 -0.17160260864E+04  0.17160260864E+04  0.00000000000E+00 0. -1.
          6    2    1    2  501    0 -0.55037561291E+02  0.39297256176E+02 -0.16037018791E+04  0.16145743008E+04  0.17440484036E+03 0.  0.
         24    2    3    3    0    0 -0.59609078440E+02  0.60678754881E+02 -0.64830679139E+03  0.65891749481E+03  0.81458060837E+02 0.  0.
         -6    2    1    2    0  502  0.55037561291E+02 -0.39297256176E+02 -0.26183997766E+02  0.18759199526E+03  0.17300794043E+03 0.  0.
        -24    2    5    5    0    0 -0.67600540576E+01 -0.35894531553E+00 -0.65980688053E+02  0.10427930791E+03  0.80466736542E+02 0.  0.
          5    1    3    3  501    0  0.45715171492E+01 -0.21381498704E+02 -0.95539508767E+03  0.95565680597E+03  0.47000000000E+01 0. -1.
        -11    1    4    4    0    0 -0.77169402948E+02  0.42391481365E+02 -0.56559916886E+03  0.57241119334E+03  0.00000000000E+00 0.  1.
         12    1    4    4    0    0  0.17560324507E+02  0.18287273516E+02 -0.82707622528E+02  0.86506301468E+02  0.00000000000E+00 0. -1.
         -5    1    5    5    0  502  0.61797615349E+02 -0.38938310861E+02  0.39796690287E+02  0.83312687349E+02  0.47000000000E+01 0.  1.
         13    1    6    6    0    0  0.17205929291E+02 -0.33452600564E+02 -0.19430079190E+02  0.42339679553E+02  0.00000000000E+00 0. -1.
        -14    1    6    6    0    0 -0.23965983348E+02  0.33093655249E+02 -0.46550608863E+02  0.61939628358E+02  0.00000000000E+00 0.  1.
</event>
<event>
12    1  0.8684423E-002  0.2861666E+03  0.7818608E-02  0.1092485E+00
         21   -1    0    0  503  502  0.00000000000E+00  0.00000000000E+00  0.21647593204E+03  0.21647593204E+03  0.00000000000E+00 0.  1.
         21   -1    0    0  501  503 -0.00000000000E+00 -0.00000000000E+00 -0.62614411495E+03  0.62614411495E+03  0.00000000000E+00 0. -1.
          6    2    1    2  501    0  0.18591724143E+03  0.13146430773E+03 -0.47033559545E+03  0.55009340314E+03  0.17186941255E+03 0.  0.
         24    2    3    3    0    0  0.41284128386E+02  0.23500352388E+02 -0.97072020922E+02  0.13545773281E+03  0.81665012793E+02 0.  0.
         -6    2    1    2    0  502 -0.18591724143E+03 -0.13146430773E+03  0.60667412543E+02  0.29252664385E+03  0.17332979418E+03 0.  0.
        -24    2    5    5    0    0 -0.26869968779E+02 -0.73714246664E+02  0.56956969727E+02  0.12321343741E+03  0.76037289365E+02 0.  0.
          5    1    3    3  501    0  0.14463311304E+03  0.10796395534E+03 -0.37326357453E+03  0.41463567033E+03  0.47000000000E+01 0. -1.
        -11    1    4    4    0    0 -0.81848396585E+01  0.31581746079E+02 -0.85457326100E+01  0.33725773993E+02  0.00000000000E+00 0.  1.
         12    1    4    4    0    0  0.49468968044E+02 -0.80813936902E+01 -0.88526288312E+02  0.10173195882E+03  0.00000000000E+00 0. -1.
         -5    1    5    5    0  502 -0.15904727265E+03 -0.57750061063E+02  0.37104428165E+01  0.16931320644E+03  0.47000000000E+01 0.  1.
         11    1    6    6    0    0  0.26470232337E+02 -0.18717909716E+02  0.20593174702E+02  0.38407189280E+02  0.00000000000E+00 0. -1.
        -12    1    6    6    0    0 -0.53340201116E+02 -0.54996336948E+02  0.36363795025E+02  0.84806248127E+02  0.00000000000E+00 0.  1.
</event>
<event>
12    1  0.8684423E-002  0.2370857E+03  0.7818608E-02  0.1123407E+00
         21   -1    0    0  501  502  0.00000000000E+00  0.00000000000E+00  0.13880767099E+04  0.13880767099E+04  0.00000000000E+00 0. -1.
         21   -1    0    0  502  503 -0.00000000000E+00 -0.00000000000E+00 -0.15873703212E+03  0.15873703212E+03  0.00000000000E+00 0. -1.
         -6    2    1    2    0  503 -0.35528489947E+02 -0.14583103684E+03 -0.60462260824E+02  0.23540279040E+03  0.17096731804E+03 0.  0.
        -24    2    3    3    0    0 -0.14483515786E+02 -0.46714073559E+02  0.31052326405E+02  0.98786272276E+02  0.80015646701E+02 0.  0.
          6    2    1    2  501    0  0.35528489947E+02  0.14583103684E+03  0.12898019386E+04  0.13114109516E+04  0.18352296395E+03 0.  0.
         24    2    5    5    0    0  0.68367006931E+02  0.93744462316E+02  0.51635698640E+03  0.53550466634E+03  0.81722936912E+02 0.  0.
          5    1    5    5  501    0 -0.32838516985E+02  0.52086574525E+02  0.77344495220E+03  0.77590628527E+03  0.47000000000E+01 0. -1.
        -11    1    6    6    0    0  0.41871625369E+02  0.17631933071E+01  0.10279745962E+03  0.11101197938E+03  0.00000000000E+00 0.  1.
         12    1    6    6    0    0  0.26495381562E+02  0.91981269009E+02  0.41355952678E+03  0.42449268696E+03  0.00000000000E+00 0. -1.
         -5    1    3    3    0  503 -0.21044974161E+02 -0.99116963282E+02 -0.91514587230E+02  0.13661651812E+03  0.47000000000E+01 0.  1.
         13    1    4    4    0    0  0.38385559035E+01 -0.62241942153E+02  0.38211116347E+01  0.62477153973E+02  0.00000000000E+00 0. -1.
        -14    1    4    4    0    0 -0.18322071690E+02  0.15527868594E+02  0.27231214770E+02  0.36309118303E+02  0.00000000000E+00 0.  1.
</event>
<event>
12    1  0.8684423E-002  0.1838562E+03  0.7818608E-02  0.1164441E+00
         21   -1    0    0  501  502  0.00000000000E+00  0.00000000000E+00  0.23237298105E+03  0.23237298105E+03  0.00000000000E+00 0.  1.
         21   -1    0    0  502  503 -0.00000000000E+00 -0.00000000000E+00 -0.22387734286E+03  0.22387734286E+03  0.00000000000E+00 0.  1.
         -6    2    1    2    0  503  0.49853215840E+02 -0.40302412438E+02 -0.13165932463E+03  0.22613554194E+03  0.17231795608E+03 0.  0.
        -24    2    3    3    0    0  0.83842661753E+00 -0.17859829112E+02 -0.14855182593E+03  0.16944722119E+03  0.79530115849E+02 0.  0.
          6    2    1    2  501    0 -0.49853215840E+02  0.40302412438E+02  0.14015496283E+03  0.23011478197E+03  0.17087940689E+03 0.  0.
         24    2    5    5    0    0 -0.21179545677E+02  0.92665940719E+02  0.10294609529E+03  0.15961153185E+03  0.76435546954E+02 0.  0.
          5    1    5    5  501    0 -0.28673670163E+02 -0.52363528281E+02  0.37208867538E+02  0.70503250124E+02  0.47000000000E+01 0. -1.
        -13    1    6    6    0    0  0.35845453402E+01  0.57202517344E+02  0.10122301794E+03  0.11632315469E+03  0.00000000000E+00 0.  1.
         14    1    6    6    0    0 -0.24764091017E+02  0.35463423375E+02  0.17230773505E+01  0.43288377157E+02  0.00000000000E+00 0. -1.
         -5    1    3    3    0  503  0.49014789223E+02 -0.22442583326E+02  0.16892501302E+02  0.56688320747E+02  0.47000000000E+01 0.  1.
         11    1    4    4    0    0  0.92299130221E+01 -0.24244085221E+02 -0.61566089489E+01  0.26662160385E+02  0.00000000000E+00 0. -1.
        -12    1    4    4    0    0 -0.83914864045E+01  0.63842561094E+01 -0.14239521698E+03  0.14278506081E+03  0.00000000000E+00 0.  1.
</event>
<event>
12    1  0.8684423E-002  0.2313190E+03  0.7818608E-02  0.1126101E+00
         21   -1    0    0  503  502  0.00000000000E+00  0.00000000000E+00  0.13625355611E+03  0.13625355611E+03  0.00000000000E+00 0. -1.
         21   -1    0    0  501  503 -0.00000000000E+00 -0.00000000000E+00 -0.47986041173E+03  0.47986041173E+03  0.00000000000E+00 0.  1.
          6    2    1    2  501    0 -0.11936995048E+03 -0.94328315351E+02 -0.30652868661E+03  0.38401600606E+03  0.17424534727E+03 0.  0.
         24    2    3    3    0    0 -0.25132410530E+02 -0.13886614947E+02 -0.48877925473E+02  0.98083171618E+02  0.80042368920E+02 0.  0.
         -6    2    1    2    0  502  0.11936995048E+03  0.94328315351E+02 -0.37078169007E+02  0.23209796178E+03  0.17131157898E+03 0.  0.
        -24    2    5    5    0    0  0.67387614762E+02  0.44947233434E+02  0.45559990243E+02  0.12259083945E+03  0.79946587099E+02 0.  0.
          5    1    3    3  501    0 -0.94237539948E+02 -0.80441700403E+02 -0.25765076114E+03  0.28593283445E+03  0.47000000000E+01 0. -1.
        -11    1    4    4    0    0  0.17300038974E+02  0.29232003830E+01 -0.49416920793E+02  0.52439188682E+02  0.00000000000E+00 0.  1.
         12    1    4    4    0    0 -0.42432449503E+02 -0.16809815330E+02  0.53899531956E+00  0.45643982936E+02  0.00000000000E+00 0. -1.
         -5    1    5    5    0  502  0.51982335716E+02  0.49381081917E+02 -0.82638159250E+02  0.10950712233E+03  0.47000000000E+01 0.  1.
         11    1    6    6    0    0  0.74370504400E+02  0.55991870163E+02  0.53431791371E+02  0.10733600411E+03  0.00000000000E+00 0. -1.
        -12    1    6    6    0    0 -0.69828896388E+01 -0.11044636729E+02 -0.78718011279E+01  0.15254835337E+02  0.00000000000E+00 0.  1.
</event>
<event>
12    1  0.8684423E-002  0.2128287E+03  0.7818608E-02  0.1139400E+00
         21   -1    0    0  501  502  0.00000000000E+00  0.00000000000E+00  0.11019054051E+03  0.11019054051E+03  0.00000000000E+00 0.  1.
         21   -1    0    0  502  503 -0.00000000000E+00 -0.00000000000E+00 -0.66332708183E+03  0.66332708183E+03  0.00000000000E+00 0.  1.
         -6    2    1    2    0  503 -0.11956814160E+03  0.30630878178E+02 -0.51521753188E+03  0.55733740279E+03  0.17303492194E+03 0.  0.
        -24    2    3    3    0    0 -0.44926834270E+02  0.19366763361E+02 -0.11378055356E+03  0.14883777904E+03  0.82541978052E+02 0.  0.
          6    2    1    2  501    0  0.11956814160E+03 -0.30630878178E+02 -0.37919009446E+02  0.21618021955E+03  0.17338178931E+03 0.  0.
         24    2    5    5    0    0  0.31834583247E+02  0.30108331440E+02  0.21167507662E+02  0.94115747447E+02  0.80559035647E+02 0.  0.
          5    1    5    5  501    0  0.87733558350E+02 -0.60739209618E+02 -0.59086517108E+02  0.12206447210E+03  0.47000000000E+01 0. -1.
        -13    1    6    6    0    0 -0.25736251121E+02 -0.19323152698E+01  0.65676595498E+01  0.26631233844E+02  0.00000000000E+00 0.  1.
         14    1    6    6    0    0  0.57570834368E+02  0.32040646710E+02  0.14599848112E+02  0.67484513604E+02  0.00000000000E+00 0. -1.
         -5    1    3    3    0  503 -0.74641307327E+02  0.11264114818E+02 -0.40143697831E+03  0.40849962374E+03  0.47000000000E+01 0.  1.
         13    1    4    4    0    0 -0.52633859994E+02 -0.11654186916E+02 -0.10085645280E+03  0.11435981532E+03  0.00000000000E+00 0. -1.
        -14    1    4    4    0    0  0.77070257237E+01  0.31020950276E+02 -0.12924100768E+02  0.34477963719E+02  0.00000000000E+00 0.  1.
</event>
<event>
12    1  0.8684423E-002  0.1891557E+03  0.7818608E-02  0.1159339E+00
         21   -1    0    0  501  502  0.00000000000E+00  0.00000000000E+00  0.14186254486E+03  0.14186254486E+03  0.00000000000E+00 0.  1.
         21   -1    0    0  502  503 -0.00000000000E+00 -0.00000000000E+00 -0.28207038672E+03  0.28207038672E+03  0.00000000000E+00 0.  1.
         -6    2    1    2    0  503  0.77654552571E+02  0.10729575743E+02 -0.13975002831E+03  0.23477664461E+03  0.17159443205E+03 0.  0.
        -24    2    3    3    0    0 -0.23492904425E+02  0.25208382285E+02 -0.50815656751E+02  0.99233823555E+02  0.77959872182E+02 0.  0.
          6    2    1    2  501    0 -0.77654552571E+02 -0.10729575743E+02 -0.45781355429E+00  0.18915628696E+03  0.17214685003E+03 0.  0.
         24    2    5    5    0    0 -0.51064616177E+02  0.55992121051E+02  0.13673234404E+02  0.11580380877E+03  0.86491919517E+02 0.  0.
          5    1    5    5  501    0 -0.26589936393E+02 -0.66721696795E+02 -0.14131047959E+02  0.73352478193E+02  0.47000000000E+01 0. -1.
        -11    1    6    6    0    0 -0.37446855764E+02 -0.75415738505E+01  0.30273134627E+02  0.48740178733E+02  0.00000000000E+00 0.  1.
         12    1    6    6    0    0 -0.13617760413E+02  0.63533694902E+02 -0.16599900223E+02  0.67063630039E+02  0.00000000000E+00 0. -1.
         -5    1    3    3    0  503  0.10114745700E+03 -0.14478806541E+02 -0.88934371559E+02  0.13554282106E+03  0.47000000000E+01 0.  1.
         11    1    4    4    0    0 -0.22474077096E+02  0.43591929556E+02 -0.43303676693E+01  0.49235074366E+02  0.00000000000E+00 0. -1.
        -12    1    4    4    0    0 -0.10188273287E+01 -0.18383547271E+02 -0.46485289082E+02  0.49998749189E+02  0.00000000000E+00 0.  1.
</event>
<event>
12    1  0.8684423E-002  0.1718724E+03  0.7818608E-02  0.1176159E+00
         21   -1    0    0  501  502  0.00000000000E+00  0.00000000000E+00  0.12320284469E+03  0.12320284469E+03  0.00000000000E+00 0.  1.
         21   -1    0    0  502  503 -0.00000000000E+00 -0.00000000000E+00 -0.46548365918E+03  0.46548365918E+03  0.00000000000E+00 0.  1.
         -6    2    1    2    0  503  0.16663463308E+02  0.65347893723E+01 -0.37647052767E+03  0.41344654603E+03  0.16996356593E+03 0.  0.
        -24    2    3    3    0    0  0.43495398329E+02  0.61239859514E+01 -0.96357130570E+02  0.13201142610E+03  0.78822377092E+02 0.  0.
          6    2    1    2  501    0 -0.16663463308E+02 -0.65347893723E+01  0.34189713183E+02  0.17523995783E+03  0.17093780112E+03 0.  0.
         24    2    5    5    0    0  0.45080703833E+02  0.99168450039E+01 -0.17779205974E+02  0.92742339637E+02  0.78450160760E+02 0.  0.
          5    1    5    5  501    0 -0.61744167141E+02 -0.16451634376E+02  0.51968919156E+02  0.82497618195E+02  0.47000000000E+01 0. -1.
        -11    1    6    6    0    0  0.21750246445E+02 -0.33624660173E+02 -0.16543654740E+02  0.43328783786E+02  0.00000000000E+00 0.  1.
         12    1    6    6    0    0  0.23330457388E+02  0.43541505177E+02 -0.12355512333E+01  0.49413555851E+02  0.00000000000E+00 0. -1.
         -5    1    3    3    0  503 -0.26831935021E+02  0.41080342091E+00 -0.28011339710E+03  0.28143511993E+03  0.47000000000E+01 0.  1.
         13    1    4    4    0    0  0.17570901353E+02 -0.36286441072E+02 -0.47670673625E+02  0.62433448599E+02  0.00000000000E+00 0. -1.
        -14    1    4    4    0    0  0.25924496976E+02  0.42410427024E+02 -0.48686456945E+02  0.69577977504E+02  0.00000000000E+00 0.  1.
</event>
<event>
12    1  0.8684423E-002  0.3790721E+03  0.7818608E-02  0.1051306E+00
         21   -1    0    0  501  502  0.00000000000E+00  0.00000000000E+00  0.59858056862E+03  0.59858056862E+03  0.00000000000E+00 0. -1.
         21   -1    0    0  502  503 -0.00000000000E+00 -0.00000000000E+00 -0.24027094907E+03  0.24027094907E+03  0.00000000000E+00 0. -1.
         -6    2    1    2    0  503 -0.37891486985E+02  0.33565484148E+03  0.19631309509E+03  0.42661548676E+03  0.17135345005E+03 0.  0.
        -24    2    3    3    0    0  0.23607123165E+02  0.12209941311E+03  0.36343835318E+02  0.15275374407E+03  0.80915196444E+02 0.  0.
          6    2    1    2  501    0  0.37891486985E+02 -0.33565484148E+03  0.16199652446E+03  0.41223603093E+03  0.17203410670E+03 0.  0.
         24    2    5    5    0    0  0.48333554495E+02 -0.34655066746E+03  0.15942160956E+03  0.39622116332E+03  0.95616228017E+02 0.  0.
          5    1    5    5  501    0 -0.10442067510E+02  0.10895825987E+02  0.25749148990E+01  0.16014867610E+02  0.47000000000E+01 0. -1.
        -11    1    6    6    0    0 -0.14952922388E+02 -0.11991288382E+02 -0.22441819996E+01  0.19298114878E+02  0.00000000000E+00 0.  1.
         12    1    6    6    0    0  0.63286476884E+02 -0.33455937908E+03  0.16166579156E+03  0.37692304844E+03  0.00000000000E+00 0. -1.
         -5    1    3    3    0  503 -0.61498610151E+02  0.21355542837E+03  0.15996925978E+03  0.27386174269E+03  0.47000000000E+01 0.  1.
         13    1    4    4    0    0 -0.52143706583E+01  0.12593543669E+02 -0.21610145014E+02  0.25549664793E+02  0.00000000000E+00 0. -1.
        -14    1    4    4    0    0  0.28821493824E+02  0.10950586944E+03  0.57953980332E+02  0.12720407927E+03  0.00000000000E+00 0.  1.
</event>
<event>
12    1  0.8684423E-002  0.2378743E+03  0.7818608E-02  0.1121319E+00
         21   -1    0    0  501  502  0.00000000000E+00  0.00000000000E+00  0.17715377191E+03  0.17715377191E+03  0.00000000000E+00 0. -1.
         21   -1    0    0  502  503 -0.00000000000E+00 -0.00000000000E+00 -0.56119831278E+03  0.56119831278E+03  0.00000000000E+00 0.  1.
         -6    2    1    2    0  503  0.98313233958E+01  0.16309970029E+03 -0.43461175303E+03  0.49516239768E+03  0.17204725237E+03 0.  0.
        -24    2    3    3    0    0  0.97171861154E+00  0.16058281083E+03 -0.44514010576E+03  0.48040558432E+03  0.82776979414E+02 0.  0.
          6    2    1    2  501    0 -0.98313233958E+01 -0.16309970029E+03  0.50567212161E+02  0.24318968701E+03  0.17287571769E+03 0.  0.
         24    2    5    5    0    0  0.60709596731E+02 -0.70215694908E+02  0.37937885358E+02  0.12577993544E+03  0.75930297427E+02 0.  0.
          5    1    5    5  501    0 -0.70540920127E+02 -0.92884005386E+02  0.12629326803E+02  0.11740975157E+03  0.47000000000E+01 0. -1.
        -13    1    6    6    0    0 -0.60176403016E+01 -0.49712918911E+02  0.17455498412E+02  0.53030941216E+02  0.00000000000E+00 0.  1.
         14    1    6    6    0    0  0.66727237033E+02 -0.20502775997E+02  0.20482386946E+02  0.72748994224E+02  0.00000000000E+00 0. -1.
         -5    1    3    3    0  503  0.88596047842E+01  0.25168894601E+01  0.10528352723E+02  0.14756813360E+02  0.47000000000E+01 0.  1.
         13    1    4    4    0    0  0.34670612680E+00  0.77640763673E+02 -0.10675513549E+03  0.13200328535E+03  0.00000000000E+00 0. -1.
        -14    1    4    4    0    0  0.62501248474E+00  0.82942047160E+02 -0.33838497027E+03  0.34840229897E+03  0.00000000000E+00 0.  1.
</event>
<event>
12    1  0.8684423E-002  0.2158043E+03  0.7818608E-02  0.1137090E+00
         21   -1    0    0  501  502  0.00000000000E+00  0.00000000000E+00  0.24005848061E+03  0.24005848061E+03  0.00000000000E+00 0. -1.
         21   -1    0    0  502  503 -0.00000000000E+00 -0.00000000000E+00 -0.20073761142E+03  0.20073761142E+03  0.00000000000E+00 0.  1.
         -6    2    1    2    0  503 -0.12835937159E+03  0.15148357974E+02 -0.21285905947E+02  0.21664284739E+03  0.17255559253E+03 0.  0.
        -24    2    3    3    0    0 -0.11377626418E+03 -0.34280752170E+02  0.27306962398E+02  0.14565509630E+03  0.79683929520E+02 0.  0.
          6    2    1    2  501    0  0.12835937159E+03 -0.15148357974E+02  0.60606775133E+02  0.22415324464E+03  0.17281751898E+03 0.  0.
         24    2    5    5    0    0  0.15664581434E+03 -0.35993491421E+02  0.49305301885E+02  0.18694496962E+03  0.81755527629E+02 0.  0.
          5    1    5    5  501    0 -0.28286442756E+02  0.20845133446E+02  0.11301473248E+02  0.37208275018E+02  0.47000000000E+01 0. -1.
        -11    1    6    6    0    0  0.11005844603E+03 -0.23704339579E+02 -0.70478927450E+01  0.11280261544E+03  0.00000000000E+00 0.  1.
         12    1    6    6    0    0  0.46587368313E+02 -0.12289151842E+02  0.56353194630E+02  0.74142354187E+02  0.00000000000E+00 0. -1.
         -5    1    3    3    0  503 -0.14583107408E+02  0.49429110144E+02 -0.48592868345E+02  0.70987751093E+02  0.47000000000E+01 0.  1.
         11    1    4    4    0    0 -0.10030584436E+03 -0.43706273666E+02 -0.48685474083E+01  0.10952261650E+03  0.00000000000E+00 0. -1.
        -12    1    4    4    0    0 -0.13470419818E+02  0.94255214960E+01  0.32175509807E+02  0.36132479805E+02  0.00000000000E+00 0.  1.
</event>
<event>
12    1  0.8684423E-002  0.2239380E+03  0.7818608E-02  0.1133899E+00
         21   -1    0    0  501  502  0.00000000000E+00  0.00000000000E+00  0.32624275522E+03  0.32624275522E+03  0.00000000000E+00 0. -1.
         21   -1    0    0  502  503 -0.00000000000E+00 -0.00000000000E+00 -0.15111049606E+03  0.15111049606E+03  0.00000000000E+00 0.  1.
         -6    2    1    2    0  503  0.11828399377E+03  0.28005778836E+02  0.36335835303E+02  0.22686675390E+03  0.18807659149E+03 0.  0.
        -24    2    3    3    0    0  0.64612238892E+02  0.28074286059E+02  0.98401108314E+02  0.14467885894E+03  0.79286109458E+02 0.  0.
          6    2    1    2  501    0 -0.11828399377E+03 -0.28005778836E+02  0.13879642386E+03  0.25048649739E+03  0.16942140145E+03 0.  0.
         24    2    5    5    0    0 -0.12853919521E+03 -0.18890362567E+02  0.16248590139E+03  0.22270986483E+03  0.79491164522E+02 0.  0.
          5    1    5    5  501    0  0.10255201446E+02 -0.91154162686E+01 -0.23689477533E+02  0.27776632558E+02  0.47000000000E+01 0. -1.
        -13    1    6    6    0    0 -0.20205423058E+02  0.19526923638E+02  0.63167718390E+01  0.28800372813E+02  0.00000000000E+00 0.  1.
         14    1    6    6    0    0 -0.10833377216E+03 -0.38417286205E+02  0.15616912955E+03  0.19390949202E+03  0.00000000000E+00 0. -1.
         -5    1    3    3    0  503  0.53671754877E+02 -0.68507223738E-01 -0.62065273012E+02  0.82187894965E+02  0.47000000000E+01 0.  1.
         13    1    4    4    0    0  0.75051602806E+02  0.31394380093E+01  0.53331256665E+02  0.92123949612E+02  0.00000000000E+00 0. -1.
        -14    1    4    4    0    0 -0.10439363914E+02  0.24934848050E+02  0.45069851650E+02  0.52554909323E+02  0.00000000000E+00 0.  1.
</event>
<event>
12    1  0.8684423E-002  0.2043890E+03  0.7818608E-02  0.1146989E+00
         21   -1    0    0  503  502  0.00000000000E+00  0.00000000000E+00  0.24563930597E+03  0.24563930597E+03  0.00000000000E+00 0.  1.
         21   -1    0    0  501  503 -0.00000000000E+00 -0.00000000000E+00 -0.17690387543E+03  0.17690387543E+03  0.00000000000E+00 0.  1.
          6    2    1    2  501    0 -0.10163985478E+03 -0.37227959331E+01 -0.17285630366E+02  0.20079001682E+03  0.17225945126E+03 0.  0.
         24    2    3    3    0    0 -0.11721854887E+03 -0.39381999311E+02  0.17483863221E+02  0.14839457637E+03  0.80150700273E+02 0.  0.
         -6    2    1    2    0  502  0.10163985478E+03  0.37227959331E+01  0.86021060907E+02  0.22175316458E+03  0.17728599434E+03 0.  0.
        -24    2    5    5    0    0  0.39097431252E+02  0.58568639658E+02  0.89247391033E+02  0.13837378750E+03  0.78887981213E+02 0.  0.
          5    1    3    3  501    0  0.15578694090E+02  0.35659203377E+02 -0.34769493587E+02  0.52395440444E+02  0.47000000000E+01 0. -1.
        -13    1    4    4    0    0 -0.11678310741E+03 -0.56212143930E+02  0.10068175842E+02  0.12999795178E+03  0.00000000000E+00 0.  1.
         14    1    4    4    0    0 -0.43544146235E+00  0.16830144620E+02  0.74156873794E+01  0.18396624595E+02  0.00000000000E+00 0. -1.
         -5    1    5    5    0  502  0.62542423533E+02 -0.54845843724E+02 -0.32263301267E+01  0.83379377074E+02  0.47000000000E+01 0.  1.
         11    1    6    6    0    0 -0.56470628143E+01 -0.14478164857E+02  0.31322761805E+02  0.34966011827E+02  0.00000000000E+00 0. -1.
        -12    1    6    6    0    0  0.44744494066E+02  0.73046804514E+02  0.57924629229E+02  0.10340777568E+03  0.00000000000E+00 0.  1.
</event>
<event>
12    1  0.8684423E-002  0.2110830E+03  0.7818608E-02  0.1140840E+00
         21   -1    0    0  503  502  0.00000000000E+00  0.00000000000E+00  0.17065758762E+04  0.17065758762E+04  0.00000000000E+00 0.  1.
         21   -1    0    0  501  503 -0.00000000000E+00 -0.00000000000E+00 -0.28569886064E+02  0.28569886064E+02  0.00000000000E+00 0.  1.
          6    2    1    2  501    0 -0.48003597863E+02 -0.11129372342E+03  0.58138154544E+03  0.61851479732E+03  0.17281613018E+03 0.  0.
         24    2    3    3    0    0 -0.63604752930E+01 -0.12688410235E+03  0.39055274369E+03  0.42251752401E+03  0.99245057358E+02 0.  0.
         -6    2    1    2    0  502  0.48003597863E+02  0.11129372342E+03  0.10966244447E+04  0.11166309649E+04  0.17201424616E+03 0.  0.
        -24    2    5    5    0    0  0.11886811529E+02  0.36346983519E+01  0.67446289638E+03  0.67943838631E+03  0.81128385157E+02 0.  0.
          5    1    3    3  501    0 -0.41643122570E+02  0.15590378928E+02  0.19082880175E+03  0.19599727332E+03  0.47000000000E+01 0. -1.
        -13    1    4    4    0    0  0.26833400697E+01 -0.25356424400E+02  0.23603594794E+03  0.23740917693E+03  0.00000000000E+00 0.  1.
         14    1    4    4    0    0 -0.90438153627E+01 -0.10152767795E+03  0.15451679576E+03  0.18510834707E+03  0.00000000000E+00 0. -1.
         -5    1    5    5    0  502  0.36116786334E+02  0.10765902507E+03  0.42216154830E+03  0.43719257861E+03  0.47000000000E+01 0.  1.
         11    1    6    6    0    0 -0.21415296143E+02 -0.12330370378E+02  0.77724312812E+02  0.81558088162E+02  0.00000000000E+00 0. -1.
        -12    1    6    6    0    0  0.33302107672E+02  0.15965068730E+02  0.59673858357E+03  0.59788029815E+03  0.00000000000E+00 0.  1.
</event>
<event>
12    1  0.8684423E-002  0.1759995E+03  0.7818608E-02  0.1172350E+00
         21   -1    0    0  503  502  0.00000000000E+00  0.00000000000E+00  0.18870563198E+02  0.18870563198E+02  0.00000000000E+00 0. -1.
         21   -1    0    0  501  503 -0.00000000000E+00 -0.00000000000E+00 -0.16210744568E+04  0.16210744568E+04  0.00000000000E+00 0. -1.
          6    2    1    2  501    0  0.35245921583E+02  0.83586941194E+01 -0.82757310517E+03  0.84557187199E+03  0.16971270888E+03 0.  0.
         24    2    3    3    0    0 -0.43159579076E+02 -0.14872595443E+02 -0.47224743515E+03  0.48092747382E+03  0.78674339557E+02 0.  0.
         -6    2    1    2    0  502 -0.35245921583E+02 -0.83586941194E+01 -0.77463078847E+03  0.79437314804E+03  0.17223152187E+03 0.  0.
        -24    2    5    5    0    0  0.93973692175E+01  0.20832798941E+02 -0.18929598167E+03  0.20659419917E+03  0.79535390834E+02 0.  0.
          5    1    3    3  501    0  0.78405500659E+02  0.23231289563E+02 -0.35532567001E+03  0.36464439817E+03  0.47000000000E+01 0. -1.
        -13    1    4    4    0    0  0.11561033801E+02 -0.31337930878E+02 -0.15268385246E+03  0.15629485665E+03  0.00000000000E+00 0.  1.
         14    1    4    4    0    0 -0.54720612878E+02  0.16465335435E+02 -0.31956358269E+03  0.32463261717E+03  0.00000000000E+00 0. -1.
         -5    1    5    5    0  502 -0.44643290800E+02 -0.29191493061E+02 -0.58533480679E+03  0.58777894886E+03  0.47000000000E+01 0.  1.
         11    1    6    6    0    0 -0.24573558087E+02 -0.11571389259E+02 -0.29749594709E+02  0.40283932179E+02  0.00000000000E+00 0. -1.
        -12    1    6    6    0    0  0.33970927305E+02  0.32404188201E+02 -0.15954638696E+03  0.16631026699E+03  0.00000000000E+00 0.  1.
</event>
<event>
12    1  0.8684423E-002  0.1878739E+03  0.7818608E-02  0.1160554E+00
         21   -1    0    0  501  502  0.00000000000E+00  0.00000000000E+00  0.16284677809E+03  0.16284677809E+03  0.00000000000E+00 0.  1.
         21   -1    0    0  502  503 -0.00000000000E+00 -0.00000000000E+00 -0.28891479935E+03  0.28891479935E+03  0.00000000000E+00 0.  1.
         -6    2    1    2    0  503 -0.62365714310E+02 -0.37963890725E+02 -0.17664724761E+03  0.25787759700E+03  0.17310651526E+03 0.  0.
        -24    2    3    3    0    0 -0.99313680264E+02 -0.53476945460E+02 -0.16538260582E+03  0.21598739277E+03  0.81093506201E+02 0.  0.
          6    2    1    2  501    0  0.62365714310E+02  0.37963890725E+02  0.50579226351E+02  0.19388398044E+03  0.17234268308E+03 0.  0.
         24    2    5    5    0    0  0.11580711428E+02  0.85575964657E+02  0.28045772911E+02  0.12056363793E+03  0.79320027789E+02 0.  0.
          5    1    5    5  501    0  0.50785002882E+02 -0.47612073932E+02  0.22533453441E+02  0.73320342510E+02  0.47000000000E+01 0. -1.
        -11    1    6    6    0    0  0.13994526796E+02  0.50338067405E+02  0.55204672970E+02  0.76008708238E+02  0.00000000000E+00 0.  1.
         12    1    6    6    0    0 -0.24138153684E+01  0.35237897252E+02 -0.27158900059E+02  0.44554929691E+02  0.00000000000E+00 0. -1.
         -5    1    3    3    0  503  0.36947965954E+02  0.15513054735E+02 -0.11264641795E+02  0.41890204227E+02  0.47000000000E+01 0.  1.
         13    1    4    4    0    0 -0.30834817030E+02 -0.11461398594E+02 -0.87259167569E+00  0.32907613333E+02  0.00000000000E+00 0. -1.
        -14    1    4    4    0    0 -0.68478863233E+02 -0.42015546866E+02 -0.16451001414E+03  0.18307977944E+03  0.00000000000E+00 0.  1.
</event>
<event>
12    1  0.8684423E-002  0.2020563E+03  0.7818608E-02  0.1148453E+00
         21   -1    0    0  503  502  0.00000000000E+00  0.00000000000E+00  0.56212910746E+03  0.56212910746E+03  0.00000000000E+00 0. -1.
         21   -1    0    0  501  503 -0.00000000000E+00 -0.00000000000E+00 -0.78567883087E+02  0.78567883087E+02  0.00000000000E+00 0.  1.
          6    2    1    2  501    0  0.59018925346E+02  0.87450517216E+02  0.14716633237E+03  0.24828361184E+03  0.16987052721E+03 0.  0.
         24    2    3    3    0    0  0.70976280077E+02  0.31020890331E+02  0.15295265714E+03  0.19012131583E+03  0.82168555034E+02 0.  0.
         -6    2    1    2    0  502 -0.59018925346E+02 -0.87450517216E+02  0.33639489201E+03  0.39241337871E+03  0.17232501244E+03 0.  0.
        -24    2    5    5    0    0 -0.70595250956E+02 -0.12346291656E+03  0.28442008961E+03  0.32795894282E+03  0.80221565557E+02 0.  0.
          5    1    3    3  501    0 -0.11957354731E+02  0.56429626885E+02 -0.57863247747E+01  0.58162296008E+02  0.47000000000E+01 0. -1.
        -13    1    4    4    0    0  0.25505567218E+02 -0.25672738936E+02  0.28752101685E+02  0.46220199425E+02  0.00000000000E+00 0.  1.
         14    1    4    4    0    0  0.45470712859E+02  0.56693629267E+02  0.12420055546E+03  0.14390111641E+03  0.00000000000E+00 0. -1.
         -5    1    5    5    0  502  0.11576325610E+02  0.36012399345E+02  0.51974802400E+02  0.64454435889E+02  0.47000000000E+01 0.  1.
         13    1    6    6    0    0 -0.86343465244E+02 -0.11040383861E+03  0.26484080009E+03  0.29964120371E+03  0.00000000000E+00 0. -1.
        -14    1    6    6    0    0  0.15748214288E+02 -0.13059077954E+02  0.19579289520E+02  0.28317739111E+02  0.00000000000E+00 0.  1.
</event>
<event>
12    1  0.8684423E-002  0.2020688E+03  0.7818608E-02  0.1148092E+00
         21   -1    0    0  503  502  0.00000000000E+00  0.00000000000E+00  0.44951786648E+03  0.44951786648E+03  0.00000000000E+00 0. -1.
         21   -1    0    0  501  503 -0.00000000000E+00 -0.00000000000E+00 -0.21401529474E+03  0.21401529474E+03  0.00000000000E+00 0.  1.
          6    2    1    2  501    0  0.76633610624E+02  0.71562219033E+02 -0.13408798146E+03  0.24251058435E+03  0.17273660665E+03 0.  0.
         24    2    3    3    0    0  0.71639494140E+02 -0.17457946058E+01 -0.12790075329E+03  0.16862298149E+03  0.83305715740E+02 0.  0.
         -6    2    1    2    0  502 -0.76633610624E+02 -0.71562219033E+02  0.36959055320E+03  0.42102257688E+03  0.17224683380E+03 0.  0.
        -24    2    5    5    0    0 -0.74814327689E+02 -0.68386007153E+02  0.14024116789E+03  0.19159583769E+03  0.82265121691E+02 0.  0.
          5    1    3    3  501    0  0.49941164837E+01  0.73308013638E+02 -0.61872281659E+01  0.73887602854E+02  0.47000000000E+01 0. -1.
        -13    1    4    4    0    0  0.24900168287E+02  0.39157222275E+02 -0.68075569595E+02  0.82386829121E+02  0.00000000000E+00 0.  1.
         14    1    4    4    0    0  0.46739325854E+02 -0.40903016881E+02 -0.59825183699E+02  0.86236152371E+02  0.00000000000E+00 0. -1.
         -5    1    5    5    0  502 -0.18192829350E+01 -0.31762118800E+01  0.22934938531E+03  0.22942673919E+03  0.47000000000E+01 0.  1.
         11    1    6    6    0    0 -0.12367858227E+02 -0.25388547750E+02  0.10361523587E+03  0.10739487594E+03  0.00000000000E+00 0. -1.
        -12    1    6    6    0    0 -0.62446469462E+02 -0.42997459403E+02  0.36625932024E+02  0.84200961752E+02  0.00000000000E+00 0.  1.
</event>
<event>
12    1  0.8684423E-002  0.2170356E+03  0.7818608E-02  0.1136512E+00
         21   -1    0    0  501  502  0.00000000000E+00  0.00000000000E+00  0.28767022620E+03  0.28767022620E+03  0.00000000000E+00 0. -1.
         21   -1    0    0  502  503 -0.00000000000E+00 -0.00000000000E+00 -0.22273764693E+03  0.22273764693E+03  0.00000000000E+00 0.  1.
         -6    2    1    2    0  503 -0.90773860198E+02  0.97539139637E+02 -0.10050102620E+03  0.23917546334E+03  0.17132036814E+03 0.  0.
        -24    2    3    3    0    0  0.11685361079E+02  0.74230890150E+01 -0.33556292016E+02  0.87114679313E+02  0.79191493886E+02 0.  0.
          6    2    1    2  501    0  0.90773860198E+02 -0.97539139637E+02  0.16543360547E+03  0.27123240979E+03  0.16865635133E+03 0.  0.
         24    2    5    5    0    0  0.64156951173E+02  0.67309361184E+01  0.53313212735E+02  0.11575321178E+03  0.79969290988E+02 0.  0.
          5    1    5    5  501    0  0.26616909025E+02 -0.10427007576E+03  0.11212039274E+03  0.15547919800E+03  0.47000000000E+01 0. -1.
        -11    1    6    6    0    0  0.32614933550E+02 -0.34263563420E+02  0.10141967338E+02  0.48379594564E+02  0.00000000000E+00 0.  1.
         12    1    6    6    0    0  0.31542017623E+02  0.40994499538E+02  0.43171245397E+02  0.67373617219E+02  0.00000000000E+00 0. -1.
         -5    1    3    3    0  503 -0.10245922128E+03  0.90116050622E+02 -0.66944734183E+02  0.15206078403E+03  0.47000000000E+01 0.  1.
         13    1    4    4    0    0 -0.10058533556E+02  0.38445688119E+02 -0.28481813040E+02  0.48892317457E+02  0.00000000000E+00 0. -1.
        -14    1    4    4    0    0  0.21743894635E+02 -0.31022599104E+02 -0.50744789763E+01  0.38222361857E+02  0.00000000000E+00 0.  1.
</event>
<event>
12    1  0.8684423E-002  0.2128807E+03  0.7818608E-02  0.1139391E+00
         21   -1    0    0  501  502  0.00000000000E+00  0.00000000000E+00  0.40894731298E+03  0.40894731298E+03  0.00000000000E+00 0. -1.
         21   -1    0    0  502  503 -0.00000000000E+00 -0.00000000000E+00 -0.11623903770E+03  0.11623903770E+03  0.00000000000E+00 0. -1.
         -6    2    1    2    0  503 -0.12224140182E+03  0.20479354222E+02  0.20411872749E+03  0.29460812834E+03  0.17253153365E+03 0.  0.
        -24    2    3    3    0    0 -0.10014993592E+03 -0.37785637633E+02  0.18712115727E+03  0.22984819061E+03  0.79737689651E+02 0.  0.
          6    2    1    2  501    0  0.12224140182E+03 -0.20479354222E+02  0.88589547785E+02  0.23057822234E+03  0.17307756749E+03 0.  0.
         24    2    5    5    0    0  0.10987498543E+03  0.20944087154E+02  0.67513909329E+01  0.13790458171E+03  0.80379880365E+02 0.  0.
          5    1    5    5  501    0  0.12366416396E+02 -0.41423441377E+02  0.81838156853E+02  0.92673640627E+02  0.47000000000E+01 0. -1.
        -13    1    6    6    0    0  0.99522428303E+02  0.46667833928E+02  0.33940762682E+01  0.10997327045E+03  0.00000000000E+00 0.  1.
         14    1    6    6    0    0  0.10352557123E+02 -0.25723746774E+02  0.33573146647E+01  0.27931311262E+02  0.00000000000E+00 0. -1.
         -5    1    3    3    0  503 -0.22091465900E+02  0.58264991855E+02  0.16997570217E+02  0.64759937730E+02  0.47000000000E+01 0.  1.
         13    1    4    4    0    0 -0.57023576062E+02 -0.30697157055E+02  0.39416968493E+02  0.75813594317E+02  0.00000000000E+00 0. -1.
        -14    1    4    4    0    0 -0.43126359861E+02 -0.70884805778E+01  0.14770418878E+03  0.15403459629E+03  0.00000000000E+00 0.  1.
</event>
<event>
12    1  0.8684423E-002  0.1863178E+03  0.7818608E-02  0.1161916E+00
         21   -1    0    0  503  502  0.00000000000E+00  0.00000000000E+00  0.12961002227E+03  0.12961002227E+03  0.00000000000E+00 0. -1.
         21   -1    0    0  501  503 -0.00000000000E+00 -0.00000000000E+00 -0.27458205913E+03  0.27458205913E+03  0.00000000000E+00 0. -1.
          6    2    1    2  501    0  0.66527977758E+02 -0.24259126433E+02 -0.10539239756E+03  0.21371673763E+03  0.17190930585E+03 0.  0.
         24    2    3    3    0    0  0.22703694238E+02 -0.70817761632E+02 -0.22286938424E+02  0.10875540343E+03  0.76160469119E+02 0.  0.
         -6    2    1    2    0  502 -0.66527977758E+02  0.24259126433E+02 -0.39579639297E+02  0.19047534377E+03  0.17233639110E+03 0.  0.
        -24    2    5    5    0    0  0.26125617674E+02 -0.11470283841E+02 -0.33815567820E+02  0.90893246858E+02  0.79397571670E+02 0.  0.
          5    1    3    3  501    0  0.43824283520E+02  0.46558635199E+02 -0.83105459140E+02  0.10496133420E+03  0.47000000000E+01 0. -1.
        -11    1    4    4    0    0  0.49378143535E+02 -0.58515853703E+02 -0.11308216797E+02  0.77396265806E+02  0.00000000000E+00 0.  1.
         12    1    4    4    0    0 -0.26674449298E+02 -0.12301907930E+02 -0.10978721627E+02  0.31359137625E+02  0.00000000000E+00 0. -1.
         -5    1    5    5    0  502 -0.92653595432E+02  0.35729410274E+02 -0.57640714766E+01  0.99582096910E+02  0.47000000000E+01 0.  1.
         13    1    6    6    0    0  0.34012828064E+02 -0.18336527399E+02 -0.55030071955E+02  0.67241427181E+02  0.00000000000E+00 0. -1.
        -14    1    6    6    0    0 -0.78872103897E+01  0.68662435578E+01  0.21214504135E+02  0.23651819677E+02  0.00000000000E+00 0.  1.
</event>
<event>
12    1  0.8684423E-002  0.1756615E+03  0.7818608E-02  0.1172671E+00
         21   -1    0    0  503  502  0.00000000000E+00  0.00000000000E+00  0.25350141239E+03  0.25350141239E+03  0.00000000000E+00 0. -1.
         21   -1    0    0  501  503 -0.00000000000E+00 -0.00000000000E+00 -0.14582698376E+03  0.14582698376E+03  0.00000000000E+00 0. -1.
          6    2    1    2  501    0 -0.20237087938E+02 -0.41642408029E+01  0.13804978391E+03  0.22341601562E+03  0.17444223275E+03 0.  0.
         24    2    3    3    0    0  0.47715684672E+01  0.59860392784E+02  0.11164682931E+03  0.14963395402E+03  0.79493843864E+02 0.  0.
         -6    2    1    2    0  502  0.20237087938E+02  0.41642408029E+01 -0.30375355275E+02  0.17591238054E+03  0.17203378386E+03 0.  0.
        -24    2    5    5    0    0  0.70599857438E+02 -0.79052889128E+01  0.13423066992E+02  0.10792360284E+03  0.80127971770E+02 0.  0.
          5    1    3    3  501    0 -0.25008656405E+02 -0.64024633587E+02  0.26402954599E+02  0.73782061591E+02  0.47000000000E+01 0. -1.
        -13    1    4    4    0    0  0.38656845636E+02  0.25902435723E+02  0.31382776481E+02  0.56126344532E+02  0.00000000000E+00 0.  1.
         14    1    4    4    0    0 -0.33885277169E+02  0.33957957061E+02  0.80264052828E+02  0.93507609492E+02  0.00000000000E+00 0. -1.
         -5    1    5    5    0  502 -0.50362769500E+02  0.12069529716E+02 -0.43798422267E+02  0.67988777694E+02  0.47000000000E+01 0.  1.
         13    1    6    6    0    0  0.64617297487E+01  0.31182528781E+02  0.64375151751E+01  0.32489162103E+02  0.00000000000E+00 0. -1.
        -14    1    6    6    0    0  0.64138127689E+02 -0.39087817694E+02  0.69855518165E+01  0.75434440739E+02  0.00000000000E+00 0.  1.
</event>
<event>
12    1  0.8684423E-002  0.2307655E+03  0.7818608E-02  0.1126565E+00
         21   -1    0    0  501  502  0.00000000000E+00  0.00000000000E+00  0.59452434538E+02  0.59452434538E+02  0.00000000000E+00 0. -1.
         21   -1    0    0  502  503 -0.00000000000E+00 -0.00000000000E+00 -0.14729426767E+04  0.14729426767E+04  0.00000000000E+00 0. -1.
         -6    2    1    2    0  503  0.11503466392E+03 -0.10370239375E+03 -0.11930163792E+04  0.12151299494E+04  0.17107177568E+03 0.  0.
        -24    2    3    3    0    0  0.13515811049E+03 -0.44825979001E+02 -0.94230980369E+03  0.95677503395E+03  0.84815188688E+02 0.  0.
          6    2    1    2  501    0 -0.11503466392E+03  0.10370239375E+03 -0.22047386293E+03  0.31726516184E+03  0.16751506890E+03 0.  0.
         24    2    5    5    0    0 -0.12732258623E+03  0.12382612584E+03 -0.21905737370E+03  0.29318085014E+03  0.80155645531E+02 0.  0.
          5    1    5    5  501    0  0.12287922317E+02 -0.20123732090E+02 -0.14164892244E+01  0.24084311695E+02  0.47000000000E+01 0. -1.
        -11    1    6    6    0    0 -0.72218431534E+02  0.36720104847E+02 -0.14555924498E+03  0.16658739974E+03  0.00000000000E+00 0.  1.
         12    1    6    6    0    0 -0.55104154698E+02  0.87106020997E+02 -0.73498128722E+02  0.12659345040E+03  0.00000000000E+00 0. -1.
         -5    1    3    3    0  503 -0.20123446574E+02 -0.58876414753E+02 -0.25070657552E+03  0.25835491543E+03  0.47000000000E+01 0.  1.
         11    1    4    4    0    0  0.17250194925E+02 -0.44377055145E+02 -0.29401676539E+03  0.29784685759E+03  0.00000000000E+00 0. -1.
        -12    1    4    4    0    0  0.11790791556E+03 -0.44892385558E+00 -0.64829303831E+03  0.65892817636E+03  0.00000000000E+00 0.  1.
</event>
<event>
12    1  0.8684423E-002  0.1919894E+03  0.7818608E-02  0.1156793E+00
         21   -1    0    0  503  502  0.00000000000E+00  0.00000000000E+00  0.29152552838E+03  0.29152552838E+03  0.00000000000E+00 0.  1.
         21   -1    0    0  501  503 -0.00000000000E+00 -0.00000000000E+00 -0.14728239815E+03  0.14728239815E+03  0.00000000000E+00 0.  1.
          6    2    1    2  501    0 -0.83863993086E+02  0.64350896264E+01 -0.11166504430E+02  0.19180164687E+03  0.17201337508E+03 0.  0.
         24    2    3    3    0    0 -0.55209019301E+02 -0.44232799231E+02 -0.53259402801E+02  0.11981383834E+03  0.80710690313E+02 0.  0.
         -6    2    1    2    0  502  0.83863993086E+02 -0.64350896264E+01  0.15540963465E+03  0.24700627966E+03  0.17258437917E+03 0.  0.
        -24    2    5    5    0    0  0.65788265996E+02  0.46235623275E+02  0.15418345183E+03  0.19110878927E+03  0.79272969648E+02 0.  0.
          5    1    3    3  501    0 -0.28654973785E+02  0.50667888858E+02  0.42092898372E+02  0.71987808532E+02  0.47000000000E+01 0. -1.
        -13    1    4    4    0    0 -0.95172237792E+01  0.21531143878E+02  0.17968273048E+00  0.23541452611E+02  0.00000000000E+00 0.  1.
         14    1    4    4    0    0 -0.45691795522E+02 -0.65763943109E+02 -0.53439085532E+02  0.96272385728E+02  0.00000000000E+00 0. -1.
         -5    1    5    5    0  502  0.18075727090E+02 -0.52670712902E+02  0.12261828235E+01  0.55897490388E+02  0.47000000000E+01 0.  1.
         11    1    6    6    0    0 -0.15610164788E+02  0.19501242271E+01  0.70793508160E+01  0.17251012642E+02  0.00000000000E+00 0. -1.
        -12    1    6    6    0    0  0.81398430784E+02  0.44285499048E+02  0.14710410102E+03  0.17385777663E+03  0.00000000000E+00 0.  1.
</event>
<event>
12    1  0.8684423E-002  0.2100130E+03  0.7818608E-02  0.1141754E+00
         21   -1    0    0  501  502  0.00000000000E+00  0.00000000000E+00  0.14752983925E+03  0.14752983925E+03  0.00000000000E+00 0. -1.
         21   -1    0    0  502  503 -0.00000000000E+00 -0.00000000000E+00 -0.29928300123E+03  0.29928300123E+03  0.00000000000E+00 0. -1.
         -6    2    1    2    0  503  0.51752063077E+02  0.10823285443E+03 -0.59000118638E+02  0.21814325523E+03  0.17237412507E+03 0.  0.
        -24    2    3    3    0    0  0.62021344750E+02  0.14193616478E+03 -0.44965168644E+02  0.17992753732E+03  0.79746662736E+02 0.  0.
          6    2    1    2  501    0 -0.51752063077E+02 -0.10823285443E+03 -0.92753043348E+02  0.22866958525E+03  0.17115497467E+03 0.  0.
         24    2    5    5    0    0 -0.86381193447E+02 -0.49777902543E+02 -0.95292661433E+02  0.16051756597E+03  0.82131890887E+02 0.  0.
          5    1    5    5  501    0  0.34629130370E+02 -0.58454951890E+02  0.25396180845E+01  0.68152019270E+02  0.47000000000E+01 0. -1.
        -11    1    6    6    0    0 -0.71648836497E+02 -0.45610901309E+02 -0.24943535206E+02  0.88521692472E+02  0.00000000000E+00 0.  1.
         12    1    6    6    0    0 -0.14732356950E+02 -0.41670012345E+01 -0.70349126227E+02  0.71995873503E+02  0.00000000000E+00 0. -1.
         -5    1    3    3    0  503 -0.10269281674E+02 -0.33703310347E+02 -0.14034949994E+02  0.38215717915E+02  0.47000000000E+01 0.  1.
         13    1    4    4    0    0  0.18492380406E+02  0.12240354063E+03 -0.17914695800E+02  0.12508209791E+03  0.00000000000E+00 0. -1.
        -14    1    4    4    0    0  0.43528964344E+02  0.19532624151E+02 -0.27050472844E+02  0.54845439411E+02  0.00000000000E+00 0.  1.
</event>
<event>
12    1  0.8684423E-002  0.2428278E+03  0.7818608E-02  0.1118080E+00
         21   -1    0    0  501  502  0.00000000000E+00  0.00000000000E+00  0.66391795032E+02  0.66391795032E+02  0.00000000000E+00 0. -1.
         21   -1    0    0  502  503 -0.00000000000E+00 -0.00000000000E+00 -0.10414804831E+04  0.10414804831E+04  0.00000000000E+00 0.  1.
         -6    2    1    2    0  503 -0.74659359609E+01  0.16981504213E+03 -0.27340397621E+03  0.36567075049E+03  0.17341417134E+03 0.  0.
        -24    2    3    3    0    0  0.16653388579E+02  0.16087710764E+03 -0.13257044956E+03  0.22243039054E+03  0.75773184093E+02 0.  0.
          6    2    1    2  501    0  0.74659359609E+01 -0.16981504213E+03 -0.70168471187E+03  0.74220152766E+03  0.17207203158E+03 0.  0.
         24    2    5    5    0    0  0.49363544296E+02 -0.17252328145E+03 -0.53900224545E+03  0.57412291800E+03  0.83022058642E+02 0.  0.
          5    1    5    5  501    0 -0.41897608335E+02  0.27082393230E+01 -0.16268246642E+03  0.16807860966E+03  0.47000000000E+01 0. -1.
        -11    1    6    6    0    0 -0.71632034345E+01 -0.10962181329E+03 -0.25161822344E+03  0.27455415458E+03  0.00000000000E+00 0.  1.
         12    1    6    6    0    0  0.56526747731E+02 -0.62901468162E+02 -0.28738402201E+03  0.29956876342E+03  0.00000000000E+00 0. -1.
         -5    1    3    3    0  503 -0.24119324539E+02  0.89379344958E+01 -0.14083352665E+03  0.14324035994E+03  0.47000000000E+01 0.  1.
         13    1    4    4    0    0  0.25606894437E+02  0.18225719652E+02 -0.70607903255E+01  0.32214044446E+02  0.00000000000E+00 0. -1.
        -14    1    4    4    0    0 -0.89535058584E+01  0.14265138798E+03 -0.12550965924E+03  0.19021634610E+03  0.00000000000E+00 0.  1.
</event>
<event>
12    1  0.8684423E-002  0.1825265E+03  0.7818608E-02  0.1165415E+00
         21   -1    0    0  501  502  0.00000000000E+00  0.00000000000E+00  0.38001245189E+03  0.38001245189E+03  0.00000000000E+00 0.  1.
         21   -1    0    0  502  503 -0.00000000000E+00 -0.00000000000E+00 -0.13503464136E+03  0.13503464136E+03  0.00000000000E+00 0.  1.
         -6    2    1    2    0  503  0.54633267080E+02  0.27886057424E+02 -0.30172178951E+02  0.18486013240E+03  0.17175704381E+03 0.  0.
        -24    2    3    3    0    0  0.61984166677E+02  0.68984302240E+02  0.14992641794E+02  0.12317502493E+03  0.79664525249E+02 0.  0.
          6    2    1    2  501    0 -0.54633267080E+02 -0.27886057424E+02  0.27514998948E+03  0.33018696085E+03  0.17191127460E+03 0.  0.
         24    2    5    5    0    0 -0.44134252800E+02  0.23139390639E+02  0.65410153325E+02  0.11402333180E+03  0.78990938522E+02 0.  0.
          5    1    5    5  501    0 -0.10499014280E+02 -0.51025448063E+02  0.20973983616E+03  0.21616362905E+03  0.47000000000E+01 0. -1.
        -13    1    6    6    0    0 -0.43454324765E+02  0.50143408312E+02  0.47811398543E+02  0.81783675441E+02  0.00000000000E+00 0.  1.
         14    1    6    6    0    0 -0.67992803427E+00 -0.27004017673E+02  0.17598754782E+02  0.32239656364E+02  0.00000000000E+00 0. -1.
         -5    1    3    3    0  503 -0.73508995977E+01 -0.41098244816E+02 -0.45164820745E+02  0.61685107480E+02  0.47000000000E+01 0.  1.
         13    1    4    4    0    0  0.12270649580E+02  0.63368197376E+02  0.29668130358E+02  0.71037280626E+02  0.00000000000E+00 0. -1.
        -14    1    4    4    0    0  0.49713517097E+02  0.56161048636E+01 -0.14675488564E+02  0.52137744299E+02  0.00000000000E+00 0.  1.
</event>
<event>
12    1  0.8684423E-002  0.1825047E+03  0.7818608E-02  0.1165414E+00
         21   -1    0    0  501  502  0.00000000000E+00  0.00000000000E+00  0.50599329296E+02  0.50599329296E+02  0.00000000000E+00 0.  1.
         21   -1    0    0  502  503 -0.00000000000E+00 -0.00000000000E+00 -0.87224164445E+03  0.87224164445E+03  0.00000000000E+00 0.  1.
         -6    2    1    2    0  503 -0.47004269347E+02 -0.44696677829E+02 -0.18213265737E+03  0.25779919588E+03  0.17053130554E+03 0.  0.
        -24    2    3    3    0    0  0.22964474895E+02  0.21660664331E+02 -0.92133971290E+02  0.12581141036E+03  0.79644779016E+02 0.  0.
          6    2    1    2  501    0  0.47004269347E+02  0.44696677829E+02 -0.63950965779E+03  0.66504177787E+03  0.17058947672E+03 0.  0.
         24    2    5    5    0    0  0.96620613254E+02  0.31166638027E+02 -0.43583064760E+03  0.45491783171E+03  0.81822845163E+02 0.  0.
          5    1    5    5  501    0 -0.49616343906E+02  0.13530039802E+02 -0.20367901019E+03  0.21012394616E+03  0.47000000000E+01 0. -1.
        -11    1    6    6    0    0  0.35819725784E+02 -0.27304791610E+01 -0.30139726022E+03  0.30353058617E+03  0.00000000000E+00 0.  1.
         12    1    6    6    0    0  0.60800887469E+02  0.33897117188E+02 -0.13443338738E+03  0.15138724554E+03  0.00000000000E+00 0. -1.
         -5    1    3    3    0  503 -0.69968744243E+02 -0.66357342160E+02 -0.89998686080E+02  0.13198778552E+03  0.47000000000E+01 0.  1.
         13    1    4    4    0    0  0.10114596445E+02  0.47365913933E+02 -0.82194096982E+02  0.95402853430E+02  0.00000000000E+00 0. -1.
        -14    1    4    4    0    0  0.12849878450E+02 -0.25705249602E+02 -0.99398743082E+01  0.30408556929E+02  0.00000000000E+00 0.  1.
</event>
<event>
12    1  0.8684423E-002  0.2335174E+03  0.7818608E-02  0.1124474E+00
         21   -1    0    0  503  502  0.00000000000E+00  0.00000000000E+00  0.55231254657E+02  0.55231254657E+02  0.00000000000E+00 0. -1.
         21   -1    0    0  501  503 -0.00000000000E+00 -0.00000000000E+00 -0.12740562086E+04  0.12740562086E+04  0.00000000000E+00 0. -1.
          6    2    1    2  501    0 -0.15260304768E+03  0.40643974988E+02 -0.93018347255E+03  0.95904727110E+03  0.17201962894E+03 0.  0.
         24    2    3    3    0    0 -0.77952506415E+02  0.89844407501E+02 -0.60812982858E+03  0.62478087216E+03  0.79878902023E+02 0.  0.
         -6    2    1    2    0  502  0.15260304768E+03 -0.40643974988E+02 -0.28864148135E+03  0.37024019211E+03  0.16977712518E+03 0.  0.
        -24    2    5    5    0    0  0.90475713227E+02  0.42195216211E+02 -0.14886735822E+03  0.19622573070E+03  0.79854593412E+02 0.  0.
          5    1    3    3  501    0 -0.74650541263E+02 -0.49200432513E+02 -0.32205364397E+03  0.33426639894E+03  0.47000000000E+01 0. -1.
        -11    1    4    4    0    0  0.16499155052E+02  0.19048922673E+02 -0.11278376455E+03  0.11556496493E+03  0.00000000000E+00 0.  1.
         12    1    4    4    0    0 -0.94451661467E+02  0.70795484828E+02 -0.49534606403E+03  0.50921590723E+03  0.00000000000E+00 0. -1.
         -5    1    5    5    0  502  0.62127334450E+02 -0.82839191199E+02 -0.13977412313E+03  0.17401446141E+03  0.47000000000E+01 0.  1.
         13    1    6    6    0    0  0.44505049839E+02  0.52110387731E+02 -0.12711567874E+03  0.14441117600E+03  0.00000000000E+00 0. -1.
        -14    1    6    6    0    0  0.45970663388E+02 -0.99151715201E+01 -0.21751679477E+02  0.51814554700E+02  0.00000000000E+00 0.  1.
</event>
<event>
12    1  0.8684423E-002  0.1937710E+03  0.7818608E-02  0.1155432E+00
         21   -1    0    0  503  502  0.00000000000E+00  0.00000000000E+00  0.15187759100E+03  0.15187759100E+03  0.00000000000E+00 0. -1.
         21   -1    0    0  501  503 -0.00000000000E+00 -0.00000000000E+00 -0.38419806537E+03  0.38419806537E+03  0.00000000000E+00 0. -1.
          6    2    1    2  501    0 -0.64272294817E+02  0.65351475210E+02 -0.27759558718E+03  0.33853584098E+03  0.17072042177E+03 0.  0.
         24    2    3    3    0    0 -0.18068794026E+02  0.38691045107E+02 -0.46890438792E+02  0.10169729362E+03  0.79499358433E+02 0.  0.
         -6    2    1    2    0  502  0.64272294817E+02 -0.65351475210E+02  0.45275112805E+02  0.19753981539E+03  0.16902780727E+03 0.  0.
        -24    2    5    5    0    0  0.21987791475E+02  0.77580499124E+01 -0.26722615713E+02  0.86459912626E+02  0.78851556664E+02 0.  0.
          5    1    3    3  501    0 -0.46203500791E+02  0.26660430103E+02 -0.23070514839E+03  0.23683854735E+03  0.47000000000E+01 0. -1.
        -11    1    4    4    0    0  0.68589164701E+00 -0.83838064394E+01 -0.50215383957E+02  0.50915061070E+02  0.00000000000E+00 0.  1.
         12    1    4    4    0    0 -0.18754685673E+02  0.47074851546E+02  0.33249451653E+01  0.50782232554E+02  0.00000000000E+00 0. -1.
         -5    1    5    5    0  502  0.42284503342E+02 -0.73109525123E+02  0.71997728518E+02  0.11107990277E+03  0.47000000000E+01 0.  1.
         13    1    6    6    0    0  0.44415131722E+01 -0.29331340056E+02  0.10091163982E+02  0.31335062458E+02  0.00000000000E+00 0. -1.
        -14    1    6    6    0    0  0.17546278302E+02  0.37089389969E+02 -0.36813779696E+02  0.55124850167E+02  0.00000000000E+00 0.  1.
</event>
<event>
12    1  0.8684423E-002  0.1865369E+03  0.7818608E-02  0.1162165E+00
         21   -1    0    0  501  502  0.00000000000E+00  0.00000000000E+00  0.27328546399E+03  0.27328546399E+03  0.00000000000E+00 0. -1.
         21   -1    0    0  502  503 -0.00000000000E+00 -0.00000000000E+00 -0.12605963549E+03  0.12605963549E+03  0.00000000000E+00 0.  1.
         -6    2    1    2    0  503 -0.69182514354E+02 -0.23777864157E+02  0.63055897440E+02  0.19469764727E+03  0.16905478560E+03 0.  0.
        -24    2    3    3    0    0 -0.20778498502E+02  0.42286747501E+00  0.99140656791E+02  0.12948396758E+03  0.80655459913E+02 0.  0.
          6    2    1    2  501    0  0.69182514354E+02  0.23777864157E+02  0.84169931055E+02  0.20464745220E+03  0.17159369244E+03 0.  0.
         24    2    5    5    0    0  0.91152478016E+02  0.61391799596E+02  0.84952068143E+02  0.16082748893E+03  0.81061088131E+02 0.  0.
          5    1    5    5  501    0 -0.21969963663E+02 -0.37613935439E+02 -0.78213708805E+00  0.43819963270E+02  0.47000000000E+01 0. -1.
        -13    1    6    6    0    0  0.24113293046E+02  0.34026756333E+02 -0.85441596873E+01  0.42570808223E+02  0.00000000000E+00 0.  1.
         14    1    6    6    0    0  0.67039184971E+02  0.27365043264E+02  0.93496227830E+02  0.11825668071E+03  0.00000000000E+00 0. -1.
         -5    1    3    3    0  503 -0.48404015852E+02 -0.24200731632E+02 -0.36084759351E+02  0.65213679696E+02  0.47000000000E+01 0.  1.
         13    1    4    4    0    0 -0.40981981254E+02 -0.10788033850E+02  0.97510254907E+02  0.10632099639E+03  0.00000000000E+00 0. -1.
        -14    1    4    4    0    0  0.20203482752E+02  0.11210901325E+02  0.16304018841E+01  0.23162971185E+02  0.00000000000E+00 0.  1.
</event>
<event>
12    1  0.8684423E-002  0.1854525E+03  0.7818608E-02  0.1162923E+00
         21   -1    0    0  503  502  0.00000000000E+00  0.00000000000E+00  0.53127079638E+03  0.53127079638E+03  0.00000000000E+00 0.  1.
         21   -1    0    0  501  503 -0.00000000000E+00 -0.00000000000E+00 -0.65060995186E+02  0.65060995186E+02  0.00000000000E+00 0.  1.
          6    2    1    2  501    0 -0.56122038342E+02 -0.39440359871E+02  0.20157138936E+03  0.27390449082E+03  0.17230037698E+03 0.  0.
         24    2    3    3    0    0 -0.86020384947E+02 -0.81763874436E+01  0.73201538884E+02  0.13836019691E+03  0.79490369572E+02 0.  0.
         -6    2    1    2    0  502  0.56122038342E+02  0.39440359871E+02  0.26463841183E+03  0.32242730074E+03  0.17094048694E+03 0.  0.
        -24    2    5    5    0    0  0.23555150617E+02 -0.37986750026E+02  0.92533642864E+02  0.13086086051E+03  0.81020068213E+02 0.  0.
          5    1    3    3  501    0  0.29898346605E+02 -0.31263972427E+02  0.12836985048E+03  0.13554429392E+03  0.47000000000E+01 0. -1.
        -11    1    4    4    0    0 -0.10955487657E+02 -0.13904026932E+02  0.59195210296E+02  0.61785253877E+02  0.00000000000E+00 0.  1.
         12    1    4    4    0    0 -0.75064897290E+02  0.57276394883E+01  0.14006328588E+02  0.76574943028E+02  0.00000000000E+00 0. -1.
         -5    1    5    5    0  502  0.32566887725E+02  0.77427109896E+02  0.17210476897E+03  0.19156644024E+03  0.47000000000E+01 0.  1.
         13    1    6    6    0    0 -0.24575345369E+02 -0.63184051632E+01  0.46832369595E+01  0.25803150045E+02  0.00000000000E+00 0. -1.
        -14    1    6    6    0    0  0.48130495987E+02 -0.31668344862E+02  0.87850405904E+02  0.10505771046E+03  0.00000000000E+00 0.  1.
</event>
<event>
12    1  0.8684423E-002  0.1812864E+03  0.7818608E-02  0.1166686E+00
         21   -1    0    0  503  502  0.00000000000E+00  0.00000000000E+00  0.28905246340E+04  0.28905246340E+04  0.00000000000E+00 0. -1.
         21   -1    0    0  501  503 -0.00000000000E+00 -0.00000000000E+00 -0.12628193011E+02  0.12628193011E+02  0.00000000000E+00 0. -1.
          6    2    1    2  501    0 -0.33773893387E+02  0.45598147076E+02  0.97311448176E+03  0.98976340293E+03  0.17163895912E+03 0.  0.
         24    2    3    3    0    0 -0.69232624024E+02 -0.15704729691E+02  0.65192404236E+03  0.66082457482E+03  0.81512986194E+02 0.  0.
         -6    2    1    2    0  502  0.33773893387E+02 -0.45598147076E+02  0.19047819593E+04  0.19133894241E+04  0.17217697021E+03 0.  0.
        -24    2    5    5    0    0 -0.22529598925E+02  0.25758774914E+02  0.81191353191E+03  0.81673752717E+03  0.81764953813E+02 0.  0.
          5    1    3    3  501    0  0.35458730637E+02  0.61302876768E+02  0.32119043939E+03  0.32893882811E+03  0.47000000000E+01 0. -1.
        -13    1    4    4    0    0  0.10747726123E+02  0.15242413777E+02  0.19753573595E+03  0.19841424286E+03  0.00000000000E+00 0.  1.
         14    1    4    4    0    0 -0.79980350146E+02 -0.30947143469E+02  0.45438830641E+03  0.46241033196E+03  0.00000000000E+00 0. -1.
         -5    1    5    5    0  502  0.56303492312E+02 -0.71356921990E+02  0.10928684273E+04  0.10966518969E+04  0.47000000000E+01 0.  1.
         13    1    6    6    0    0  0.91950027864E+01  0.11086154971E+02  0.23589766346E+02  0.27639247177E+02  0.00000000000E+00 0. -1.
        -14    1    6    6    0    0 -0.31724601711E+02  0.14672619943E+02  0.78832376556E+03  0.78909827999E+03  0.00000000000E+00 0.  1.
</event>
<event>
12    1  0.8684423E-002  0.2307736E+03  0.7818608E-02  0.1126171E+00
         21   -1    0    0  503  502  0.00000000000E+00  0.00000000000E+00  0.56622876312E+03  0.56622876312E+03  0.00000000000E+00 0. -1.
         21   -1    0    0  501  503 -0.00000000000E+00 -0.00000000000E+00 -0.31556406773E+03  0.31556406773E+03  0.00000000000E+00 0.  1.
          6    2    1    2  501    0  0.93429198854E+02  0.12226069125E+03 -0.24424009056E+03  0.33572764063E+03  0.17141509567E+03 0.  0.
         24    2    3    3    0    0  0.84386520661E+02  0.11505125603E+03 -0.10183967035E+03  0.19278109236E+03  0.80220662756E+02 0.  0.
         -6    2    1    2    0  502 -0.93429198854E+02 -0.12226069125E+03  0.49490478594E+03  0.54606519022E+03  0.17198765364E+03 0.  0.
        -24    2    5    5    0    0 -0.12616928882E+03 -0.11027534777E+03  0.45685471984E+03  0.49424377110E+03  0.86494673048E+02 0.  0.
          5    1    3    3  501    0  0.90426781932E+01  0.72094352151E+01 -0.14240042021E+03  0.14294654826E+03  0.47000000000E+01 0. -1.
        -11    1    4    4    0    0  0.80258644976E+01 -0.12599640752E+02 -0.91504272275E+01  0.17518440754E+02  0.00000000000E+00 0.  1.
         12    1    4    4    0    0  0.76360656164E+02  0.12765089678E+03 -0.92689243121E+02  0.17526265161E+03  0.00000000000E+00 0. -1.
         -5    1    5    5    0  502  0.32740089968E+02 -0.11985343474E+02  0.38050066100E+02  0.51821419119E+02  0.47000000000E+01 0.  1.
         11    1    6    6    0    0 -0.11493517958E+03 -0.12443316993E+03  0.39467067591E+03  0.42948649770E+03  0.00000000000E+00 0. -1.
        -12    1    6    6    0    0 -0.11234109245E+02  0.14157822163E+02  0.62184043931E+02  0.64757273403E+02  0.00000000000E+00 0.  1.
</event>
<event>
12    1  0.8684423E-002  0.2540485E+03  0.7818608E-02  0.1110850E+00
         21   -1    0    0  503  502  0.00000000000E+00  0.00000000000E+00  0.71069863247E+02  0.71069863247E+02  0.00000000000E+00 0.  1.
         21   -1    0    0  501  503 -0.00000000000E+00 -0.00000000000E+00 -0.10492479753E+04  0.10492479753E+04  0.00000000000E+00 0.  1.
          6    2    1    2  501    0  0.17481718432E+03  0.63726817196E+02 -0.28278164860E+03  0.38013959456E+03  0.17296963725E+03 0.  0.
         24    2    3    3    0    0  0.18740512100E+03  0.80203075656E+02 -0.28408780074E+03  0.35883890734E+03  0.80661454074E+02 0.  0.
         -6    2    1    2    0  502 -0.17481718432E+03 -0.63726817196E+02 -0.69539646347E+03  0.74017824400E+03  0.17223657079E+03 0.  0.
        -24    2    5    5    0    0 -0.24516539429E+02 -0.39081333636E+02 -0.17282838841E+03  0.19584639045E+03  0.79735471828E+02 0.  0.
          5    1    3    3  501    0 -0.12587936681E+02 -0.16476258460E+02  0.13061521399E+01  0.21300687222E+02  0.47000000000E+01 0. -1.
        -13    1    4    4    0    0  0.13358541147E+03  0.78420475728E+02 -0.15576803655E+03  0.21967820644E+03  0.00000000000E+00 0.  1.
         14    1    4    4    0    0  0.53819709525E+02  0.17825999280E+01 -0.12831976419E+03  0.13916070091E+03  0.00000000000E+00 0. -1.
         -5    1    5    5    0  502 -0.15030064489E+03 -0.24645483560E+02 -0.52256807506E+03  0.54433185355E+03  0.47000000000E+01 0.  1.
         13    1    6    6    0    0 -0.53997543358E+01  0.24680013554E+02 -0.54745765244E+02  0.60293940227E+02  0.00000000000E+00 0. -1.
        -14    1    6    6    0    0 -0.19116785093E+02 -0.63761347190E+02 -0.11808262316E+03  0.13555245022E+03  0.00000000000E+00 0.  1.
</event>
<event>
12    1  0.8684423E-002  0.1723689E+03  0.7818608E-02  0.1175741E+00
         21   -1    0    0  501  502  0.00000000000E+00  0.00000000000E+00  0.78734003083E+03  0.78734003083E+03  0.00000000000E+00 0.  1.
         21   -1    0    0  502  503 -0.00000000000E+00 -0.00000000000E+00 -0.51505207460E+02  0.51505207460E+02  0.00000000000E+00 0.  1.
         -6    2    1    2    0  503 -0.35033854021E+01  0.94671817427E+01  0.14774831824E+03  0.22601836014E+03  0.17074200519E+03 0.  0.
        -24    2    3    3    0    0  0.73269025936E+01  0.64437376924E+02  0.13240487846E+03  0.16773861545E+03  0.79995826304E+02 0.  0.
          6    2    1    2  501    0  0.35033854021E+01 -0.94671817427E+01  0.58808650513E+03  0.61282687816E+03  0.17207307703E+03 0.  0.
         24    2    5    5    0    0  0.37111767179E+02  0.50840786997E+02  0.38696466499E+03  0.40013306302E+03  0.80017168666E+02 0.  0.
          5    1    5    5  501    0 -0.33608381777E+02 -0.60307968740E+02  0.20112184013E+03  0.21269381514E+03  0.47000000000E+01 0. -1.
        -11    1    6    6    0    0  0.29931809132E+01  0.56937267237E+02  0.31663043494E+03  0.32172293027E+03  0.00000000000E+00 0.  1.
         12    1    6    6    0    0  0.34118586266E+02 -0.60964802397E+01  0.70334230051E+02  0.78410132744E+02  0.00000000000E+00 0. -1.
         -5    1    3    3    0  503 -0.10830287996E+02 -0.54970195181E+02  0.15343439783E+02  0.58279744686E+02  0.47000000000E+01 0.  1.
         13    1    4    4    0    0 -0.20345415944E+01  0.54134391736E+02  0.14122515124E+03  0.15125876858E+03  0.00000000000E+00 0. -1.
        -14    1    4    4    0    0  0.93614441879E+01  0.10302985188E+02 -0.88202727796E+01  0.16479846873E+02  0.00000000000E+00 0.  1.
</event>
<event>
12    1  0.8684423E-002  0.2167259E+03  0.7818608E-02  0.1137853E+00
         21   -1    0    0  503  502  0.00000000000E+00  0.00000000000E+00  0.20267298139E+03  0.20267298139E+03  0.00000000000E+00 0. -1.
         21   -1    0    0  501  503 -0.00000000000E+00 -0.00000000000E+00 -0.23572591374E+03  0.23572591374E+03  0.00000000000E+00 0.  1.
          6    2    1    2  501    0 -0.11856744399E+03  0.89398294265E+01 -0.66684418234E+02  0.22675297958E+03  0.18119586857E+03 0.  0.
         24    2    3    3    0    0 -0.13486581957E+03 -0.20421447481E+02 -0.72720553568E+01  0.15834508171E+03  0.80090307194E+02 0.  0.
         -6    2    1    2    0  502  0.11856744399E+03 -0.89398294265E+01  0.33631485886E+02  0.21164591556E+03  0.17182769685E+03 0.  0.
        -24    2    5    5    0    0 -0.98848912246E+01  0.21536790017E+02  0.50470117186E+01  0.76486791122E+02  0.72548001282E+02 0.  0.
          5    1    3    3  501    0  0.16298375582E+02  0.29361276908E+02 -0.59412362877E+02  0.68407897869E+02  0.47000000000E+01 0. -1.
        -11    1    4    4    0    0 -0.34479228009E+01  0.14438871536E+02 -0.16344716119E+02  0.22079830794E+02  0.00000000000E+00 0.  1.
         12    1    4    4    0    0 -0.13141789677E+03 -0.34860319017E+02  0.90726607625E+01  0.13626525091E+03  0.00000000000E+00 0. -1.
         -5    1    5    5    0  502  0.12845233521E+03 -0.30476619444E+02  0.28584474168E+02  0.13515912444E+03  0.47000000000E+01 0.  1.
         13    1    6    6    0    0  0.21537579543E+02  0.35672371344E+02  0.44625521210E-01  0.41669982017E+02  0.00000000000E+00 0. -1.
        -14    1    6    6    0    0 -0.31422470768E+02 -0.14135581327E+02  0.50023861974E+01  0.34816809105E+02  0.00000000000E+00 0.  1.
</event>
<event>
12    1  0.8684423E-002  0.2052723E+03  0.7818608E-02  0.1145492E+00
         21   -1    0    0  501  502  0.00000000000E+00  0.00000000000E+00  0.44966892736E+02  0.44966892736E+02  0.00000000000E+00 0.  1.
         21   -1    0    0  502  503 -0.00000000000E+00 -0.00000000000E+00 -0.93525789314E+03  0.93525789314E+03  0.00000000000E+00 0.  1.
         -6    2    1    2    0  503  0.78197233126E+02  0.80710221465E+02 -0.42823918351E+03  0.47462751051E+03  0.17103662862E+03 0.  0.
        -24    2    3    3    0    0  0.37009651986E+02  0.10190120972E+03 -0.38897534959E+03  0.41372419798E+03  0.90068410253E+02 0.  0.
          6    2    1    2  501    0 -0.78197233126E+02 -0.80710221465E+02 -0.46205181690E+03  0.50559727536E+03  0.17177827638E+03 0.  0.
         24    2    5    5    0    0 -0.24589183381E+02 -0.11425578799E+03 -0.32208484427E+03  0.35193540157E+03  0.80379518169E+02 0.  0.
          5    1    5    5  501    0 -0.53608049745E+02  0.33545566524E+02 -0.13996697262E+03  0.15366187379E+03  0.47000000000E+01 0. -1.
        -13    1    6    6    0    0 -0.35503866843E+02 -0.96062536510E+02 -0.31212565157E+03  0.32849803325E+03  0.00000000000E+00 0.  1.
         14    1    6    6    0    0  0.10914683462E+02 -0.18193251479E+02 -0.99591926990E+01  0.23437368318E+02  0.00000000000E+00 0. -1.
         -5    1    3    3    0  503  0.41187581140E+02 -0.21190988254E+02 -0.39263833915E+02  0.60903312530E+02  0.47000000000E+01 0.  1.
         13    1    4    4    0    0 -0.86218386178E+01 -0.81189600029E+01 -0.10660788244E+03  0.10726366678E+03  0.00000000000E+00 0. -1.
        -14    1    4    4    0    0  0.45631490604E+02  0.11002016972E+03 -0.28236746715E+03  0.30646053120E+03  0.00000000000E+00 0.  1.
</event>
<event>
12    1  0.8684423E-002  0.1798753E+03  0.7818608E-02  0.1167940E+00
         21   -1    0    0  501  502  0.00000000000E+00  0.00000000000E+00  0.21124752837E+03  0.21124752837E+03  0.00000000000E+00 0.  1.
         21   -1    0    0  502  503 -0.00000000000E+00 -0.00000000000E+00 -0.17364254218E+03  0.17364254218E+03  0.00000000000E+00 0.  1.
         -6    2    1    2    0  503 -0.51414898487E+02  0.10121272143E+02 -0.47381485249E+02  0.18594834447E+03  0.17200537704E+03 0.  0.
        -24    2    3    3    0    0 -0.74668479373E+02  0.59677863697E+02 -0.28009209943E+02  0.12769064248E+03  0.79897153317E+02 0.  0.
          6    2    1    2  501    0  0.51414898487E+02 -0.10121272143E+02  0.84986471433E+02  0.19894172608E+03  0.17207317662E+03 0.  0.
         24    2    5    5    0    0 -0.90801163307E+01 -0.60770110120E+02  0.66640740185E+02  0.11780229385E+03  0.75239201142E+02 0.  0.
          5    1    5    5  501    0  0.60495014818E+02  0.50648837977E+02  0.18345731248E+02  0.81139432222E+02  0.47000000000E+01 0. -1.
        -11    1    6    6    0    0 -0.21333746001E+02 -0.33580497341E+02  0.76637125928E+02  0.86348292343E+02  0.00000000000E+00 0.  1.
         12    1    6    6    0    0  0.12253629670E+02 -0.27189612779E+02 -0.99963857427E+01  0.31454001512E+02  0.00000000000E+00 0. -1.
         -5    1    3    3    0  503  0.23253580886E+02 -0.49556591554E+02 -0.19372275306E+02  0.58257701989E+02  0.47000000000E+01 0.  1.
         13    1    4    4    0    0 -0.20958671532E+02  0.95755364076E+01  0.27314563112E+02  0.35735726771E+02  0.00000000000E+00 0. -1.
        -14    1    4    4    0    0 -0.53709807841E+02  0.50102327289E+02 -0.55323773054E+02  0.91954915709E+02  0.00000000000E+00 0.  1.
</event>
<event>
12    1  0.8684423E-002  0.1823297E+03  0.7818608E-02  0.1165613E+00
         21   -1    0    0  503  502  0.00000000000E+00  0.00000000000E+00  0.75031083302E+02  0.75031083302E+02  0.00000000000E+00 0.  1.
         21   -1    0    0  501  503 -0.00000000000E+00 -0.00000000000E+00 -0.50768257092E+03  0.50768257092E+03  0.00000000000E+00 0.  1.
          6    2    1    2  501    0  0.38045169656E+02 -0.46825474154E+02 -0.32074480337E+03  0.36894625121E+03  0.17205826753E+03 0.  0.
         24    2    3    3    0    0 -0.38629059830E+02 -0.45250050159E+02 -0.13208279777E+03  0.16523846592E+03  0.79486563966E+02 0.  0.
         -6    2    1    2    0  502 -0.38045169656E+02  0.46825474154E+02 -0.11190668424E+03  0.21376740301E+03  0.17185265971E+03 0.  0.
        -24    2    5    5    0    0  0.22753016572E+02  0.66560208264E+02 -0.10493892662E+03  0.14929633334E+03  0.79556619710E+02 0.  0.
          5    1    3    3  501    0  0.76674229485E+02 -0.15754239954E+01 -0.18866200561E+03  0.20370778529E+03  0.47000000000E+01 0. -1.
        -13    1    4    4    0    0 -0.91113287617E+01  0.19120610389E+02 -0.85373705704E+01  0.22836390908E+02  0.00000000000E+00 0.  1.
         14    1    4    4    0    0 -0.29517731068E+02 -0.64370660547E+02 -0.12354542720E+03  0.14240207501E+03  0.00000000000E+00 0. -1.
         -5    1    5    5    0  502 -0.60798186228E+02 -0.19734734110E+02 -0.69677576231E+01  0.64471069677E+02  0.47000000000E+01 0.  1.
         11    1    6    6    0    0 -0.13260297726E+02  0.68815434966E+02 -0.70915426712E+02  0.99701541267E+02  0.00000000000E+00 0. -1.
        -12    1    6    6    0    0  0.36013314298E+02 -0.22552267021E+01 -0.34023499909E+02  0.49594792068E+02  0.00000000000E+00 0.  1.
</event>
<event>
12    1  0.8684423E-002  0.1915893E+03  0.7818608E-02  0.1158015E+00
         21   -1    0    0  503  502  0.00000000000E+00  0.00000000000E+00  0.28402849521E+03  0.28402849521E+03  0.00000000000E+00 0.  1.
         21   -1    0    0  501  503 -0.00000000000E+00 -0.00000000000E+00 -0.22163877472E+03  0.22163877472E+03  0.00000000000E+00 0.  1.
          6    2    1    2  501    0 -0.66536998681E+02 -0.14303265221E+02 -0.13439541679E+03  0.23402687345E+03  0.17909409217E+03 0.  0.
         24    2    3    3    0    0 -0.55300945597E+02  0.98372495064E+01  0.10473719110E+02  0.86656015145E+02  0.65150595601E+02 0.  0.
         -6    2    1    2    0  502  0.66536998681E+02  0.14303265221E+02  0.19678513728E+03  0.27164039649E+03  0.17444872931E+03 0.  0.
        -24    2    5    5    0    0  0.53730226398E+02 -0.23180379746E+02  0.20811338175E+03  0.23017407064E+03  0.79023135218E+02 0.  0.
          5    1    3    3  501    0 -0.11236053084E+02 -0.24140514728E+02 -0.14486913590E+03  0.14737085830E+03  0.47000000000E+01 0. -1.
        -13    1    4    4    0    0 -0.63365797812E+02 -0.84481382299E+01 -0.35173000628E+00  0.63927451740E+02  0.00000000000E+00 0.  1.
         14    1    4    4    0    0  0.80648522155E+01  0.18285387736E+02  0.10825449116E+02  0.22728563406E+02  0.00000000000E+00 0. -1.
         -5    1    5    5    0  502  0.12806772283E+02  0.37483644967E+02 -0.11328244465E+02  0.41466325844E+02  0.47000000000E+01 0.  1.
         13    1    6    6    0    0 -0.72470734610E+01  0.11531249978E+01 -0.38422253972E+01  0.82832642728E+01  0.00000000000E+00 0. -1.
        -14    1    6    6    0    0  0.60977299859E+02 -0.24333504743E+02  0.21195560715E+03  0.22189080637E+03  0.00000000000E+00 0.  1.
</event>
<event>
12    1  0.8684423E-002  0.1833378E+03  0.7818608E-02  0.1165013E+00
         21   -1    0    0  503  502  0.00000000000E+00  0.00000000000E+00  0.37833438843E+03  0.37833438843E+03  0.00000000000E+00 0.  1.
         21   -1    0    0  501  503 -0.00000000000E+00 -0.00000000000E+00 -0.50249784477E+03  0.50249784477E+03  0.00000000000E+00 0.  1.
          6    2    1    2  501    0  0.53959386040E+02  0.30727578187E+02 -0.46211681418E+03  0.49715663074E+03  0.17250207574E+03 0.  0.
         24    2    3    3    0    0  0.42550207813E+02  0.85377784083E+02 -0.26288165162E+03  0.29019394243E+03  0.77497582304E+02 0.  0.
         -6    2    1    2    0  502 -0.53959386040E+02 -0.30727578187E+02  0.33795335784E+03  0.38367560246E+03  0.17070060470E+03 0.  0.
        -24    2    5    5    0    0  0.75570700816E+01  0.19438668516E+02  0.81121525349E+02  0.11481577492E+03  0.78530179897E+02 0.  0.
          5    1    3    3  501    0  0.11409178227E+02 -0.54650205896E+02 -0.19923516256E+03  0.20696268831E+03  0.47000000000E+01 0. -1.
        -13    1    4    4    0    0  0.31950934747E+02  0.70179035813E+02 -0.26030503754E+03  0.27148604360E+03  0.00000000000E+00 0.  1.
         14    1    4    4    0    0  0.10599273066E+02  0.15198748270E+02 -0.25766140789E+01  0.18707898829E+02  0.00000000000E+00 0. -1.
         -5    1    5    5    0  502 -0.61516456122E+02 -0.50166246703E+02  0.25683183249E+03  0.26885982754E+03  0.47000000000E+01 0.  1.
         11    1    6    6    0    0 -0.25416868984E+02  0.11296236118E+02  0.10446509725E+01  0.27833675198E+02  0.00000000000E+00 0. -1.
        -12    1    6    6    0    0  0.32973939066E+02  0.81424323990E+01  0.80076874377E+02  0.86982099726E+02  0.00000000000E+00 0.  1.
</event>
<event>
12    1  0.8684423E-002  0.1803939E+03  0.7818608E-02  0.1167847E+00
         21   -1    0    0  501  502  0.00000000000E+00  0.00000000000E+00  0.41095188752E+03  0.41095188752E+03  0.00000000000E+00 0. -1.
         21   -1    0    0  502  503 -0.00000000000E+00 -0.00000000000E+00 -0.12092914269E+03  0.12092914269E+03  0.00000000000E+00 0. -1.
         -6    2    1    2    0  503 -0.29736953386E+02  0.30531531508E+02  0.30222632622E+03  0.35107477045E+03  0.17348279849E+03 0.  0.
        -24    2    3    3    0    0  0.38375659084E+02  0.45795890456E+00  0.78585159510E+02  0.11531809675E+03  0.75164720485E+02 0.  0.
          6    2    1    2  501    0  0.29736953386E+02 -0.30531531508E+02 -0.12203581391E+02  0.18080625976E+03  0.17528695147E+03 0.  0.
         24    2    5    5    0    0  0.83529528875E+02 -0.13052286427E+02  0.30913110553E+02  0.10953000628E+03  0.62399178648E+02 0.  0.
          5    1    5    5  501    0 -0.53792575489E+02 -0.17479245082E+02 -0.43116691944E+02  0.71276253483E+02  0.47000000000E+01 0. -1.
        -13    1    6    6    0    0  0.96306121027E+01 -0.75100620020E+01  0.33213708239E+02  0.35387852940E+02  0.00000000000E+00 0.  1.
         14    1    6    6    0    0  0.73898916772E+02 -0.55422244246E+01 -0.23005976861E+01  0.74142153337E+02  0.00000000000E+00 0. -1.
         -5    1    3    3    0  503 -0.68112612471E+02  0.30073572604E+02  0.22364116671E+03  0.23575667370E+03  0.47000000000E+01 0.  1.
         11    1    4    4    0    0 -0.12178521607E+02 -0.41350414747E+01  0.59837931900E+02  0.61204518220E+02  0.00000000000E+00 0. -1.
        -12    1    4    4    0    0  0.50554180692E+02  0.45930003793E+01  0.18747227611E+02  0.54113578527E+02  0.00000000000E+00 0.  1.
</event>
<event>
12    1  0.8684423E-002  0.1743621E+03  0.7818608E-02  0.1173673E+00
         21   -1    0    0  503  502  0.00000000000E+00  0.00000000000E+00  0.66765978458E+03  0.66765978458E+03  0.00000000000E+00 0. -1.
         21   -1    0    0  501  503 -0.00000000000E+00 -0.00000000000E+00 -0.48270610281E+02  0.48270610281E+02  0.00000000000E+00 0. -1.
          6    2    1    2  501    0 -0.19309493830E+02  0.11212901872E+02  0.22079353495E+03  0.28133950119E+03  0.17292641249E+03 0.  0.
         24    2    3    3    0    0  0.59400118322E+01 -0.54088468074E+02  0.16684199792E+03  0.19282585930E+03  0.79904403056E+02 0.  0.
         -6    2    1    2    0  502  0.19309493830E+02 -0.11212901872E+02  0.39859563935E+03  0.43459089367E+03  0.17173286065E+03 0.  0.
        -24    2    5    5    0    0 -0.36395540188E+02 -0.31211569866E+02  0.33440619683E+03  0.34715307538E+03  0.79930944086E+02 0.  0.
          5    1    3    3  501    0 -0.25249505662E+02  0.65301369946E+02  0.53951537027E+02  0.88513641890E+02  0.47000000000E+01 0. -1.
        -11    1    4    4    0    0  0.18819908313E+02  0.16016815282E+02  0.53531758747E+02  0.58960804906E+02  0.00000000000E+00 0.  1.
         12    1    4    4    0    0 -0.12879896481E+02 -0.70105283356E+02  0.11331023917E+03  0.13386505440E+03  0.00000000000E+00 0. -1.
         -5    1    5    5    0  502  0.55705034018E+02  0.19998667994E+02  0.64189442519E+02  0.87437818290E+02  0.47000000000E+01 0.  1.
         11    1    6    6    0    0 -0.24164862161E+02 -0.16667896345E+01  0.29681391847E+03  0.29780063961E+03  0.00000000000E+00 0. -1.
        -12    1    6    6    0    0 -0.12230678027E+02 -0.29544780232E+02  0.37592278362E+02  0.49352435770E+02  0.00000000000E+00 0.  1.
</event>
<event>
12    1  0.8684423E-002  0.2032601E+03  0.7818608E-02  0.1147454E+00
         21   -1    0    0  503  502  0.00000000000E+00  0.00000000000E+00  0.77167262273E+03  0.77167262273E+03  0.00000000000E+00 0.  1.
         21   -1    0    0  501  503 -0.00000000000E+00 -0.00000000000E+00 -0.88388354593E+02  0.88388354593E+02  0.00000000000E+00 0.  1.
          6    2    1    2  501    0 -0.40362693733E+02  0.98089327935E+02  0.68427617272E+02  0.21247827074E+03  0.17092107368E+03 0.  0.
         24    2    3    3    0    0  0.39010123165E+02  0.35288524617E+02  0.18021196960E+02  0.99310774658E+02  0.82284851244E+02 0.  0.
         -6    2    1    2    0  502  0.40362693733E+02 -0.98089327935E+02  0.61485665086E+03  0.64758270659E+03  0.17338972708E+03 0.  0.
        -24    2    5    5    0    0  0.36613706412E+02  0.15971766946E+02  0.25873940628E+03  0.27359665048E+03  0.79456818180E+02 0.  0.
          5    1    3    3  501    0 -0.79372816898E+02  0.62800803317E+02  0.50406420312E+02  0.11316749608E+03  0.47000000000E+01 0. -1.
        -11    1    4    4    0    0 -0.15825337700E+02  0.38094251958E+02 -0.82612851702E+00  0.41258887938E+02  0.00000000000E+00 0.  1.
         12    1    4    4    0    0  0.54835460865E+02 -0.28057273404E+01  0.18847325477E+02  0.58051886720E+02  0.00000000000E+00 0. -1.
         -5    1    5    5    0  502  0.37489873206E+01 -0.11406109488E+03  0.35611724458E+03  0.37398605610E+03  0.47000000000E+01 0.  1.
         13    1    6    6    0    0  0.44526160313E+02  0.31174424964E+02  0.98995189662E+02  0.11293569542E+03  0.00000000000E+00 0. -1.
        -14    1    6    6    0    0 -0.79124539012E+01 -0.15202658018E+02  0.15974421662E+03  0.16066095506E+03  0.00000000000E+00 0.  1.
</event>
<event>
12    1  0.8684423E-002  0.1948222E+03  0.7818608E-02  0.1154643E+00
         21   -1    0    0  501  502  0.00000000000E+00  0.00000000000E+00  0.95122244781E+02  0.95122244781E+02  0.00000000000E+00 0.  1.
         21   -1    0    0  502  503 -0.00000000000E+00 -0.00000000000E+00 -0.42764251475E+03  0.42764251475E+03  0.00000000000E+00 0.  1.
         -6    2    1    2    0  503 -0.36209048205E+02 -0.81092974214E+02 -0.23960028414E+03  0.30881061847E+03  0.17340281509E+03 0.  0.
        -24    2    3    3    0    0  0.36890381438E+02 -0.12607973557E+02 -0.80086467931E+02  0.12039493576E+03  0.81001462774E+02 0.  0.
          6    2    1    2  501    0  0.36209048205E+02  0.81092974214E+02 -0.92919985831E+02  0.21395414106E+03  0.17104117946E+03 0.  0.
         24    2    5    5    0    0 -0.11436892498E+02  0.68041372509E+01 -0.95418913204E+02  0.12553863563E+03  0.80486528346E+02 0.  0.
          5    1    5    5  501    0  0.47645940702E+02  0.74288836963E+02  0.24989273725E+01  0.88415505432E+02  0.47000000000E+01 0. -1.
        -11    1    6    6    0    0 -0.40935351901E+02 -0.50173552408E+00 -0.22896455658E+02  0.46906315731E+02  0.00000000000E+00 0.  1.
         12    1    6    6    0    0  0.29498459403E+02  0.73058727749E+01 -0.72522457546E+02  0.78632319899E+02  0.00000000000E+00 0. -1.
         -5    1    3    3    0  503 -0.73099429643E+02 -0.68485000658E+02 -0.15951381621E+03  0.18841568271E+03  0.47000000000E+01 0.  1.
         11    1    4    4    0    0  0.63601989939E+01  0.85848745638E+01  0.14935479476E+02  0.18363571267E+02  0.00000000000E+00 0. -1.
        -12    1    4    4    0    0  0.30530182444E+02 -0.21192848120E+02 -0.95021947407E+02  0.10203136449E+03  0.00000000000E+00 0.  1.
</event>
<event>
12    1  0.8684423E-002  0.1741029E+03  0.7818608E-02  0.1174515E+00
         21   -1    0    0  501  502  0.00000000000E+00  0.00000000000E+00  0.49282752569E+02  0.49282752569E+02  0.00000000000E+00 0.  1.
         21   -1    0    0  502  503 -0.00000000000E+00 -0.00000000000E+00 -0.73459746247E+03  0.73459746247E+03  0.00000000000E+00 0.  1.
         -6    2    1    2    0  503 -0.11487986036E+02 -0.12680814931E+02 -0.51138059480E+03  0.54020544726E+03  0.17326002315E+03 0.  0.
        -24    2    3    3    0    0  0.46356085792E+02 -0.21086299447E+02 -0.42652036046E+03  0.43705537122E+03  0.80648998181E+02 0.  0.
          6    2    1    2  501    0  0.11487986036E+02  0.12680814931E+02 -0.17393411509E+03  0.24367476777E+03  0.16979852521E+03 0.  0.
         24    2    5    5    0    0 -0.20478021258E+02 -0.29508766651E+01 -0.18796353812E+03  0.20513790081E+03  0.79518612029E+02 0.  0.
          5    1    5    5  501    0  0.31966007294E+02  0.15631691596E+02  0.14029423029E+02  0.38536866959E+02  0.47000000000E+01 0. -1.
        -11    1    6    6    0    0  0.11248821600E+02  0.49673226999E+01 -0.16433493341E+03  0.16479435859E+03  0.00000000000E+00 0.  1.
         12    1    6    6    0    0 -0.31726842858E+02 -0.79181993650E+01 -0.23628604710E+02  0.40343542227E+02  0.00000000000E+00 0. -1.
         -5    1    3    3    0  503 -0.57844071828E+02  0.84054845162E+01 -0.84860234339E+02  0.10315007604E+03  0.47000000000E+01 0.  1.
         13    1    4    4    0    0  0.48707191722E+01  0.29483738048E+02 -0.14269896169E+03  0.14579440449E+03  0.00000000000E+00 0. -1.
        -14    1    4    4    0    0  0.41485366620E+02 -0.50570037495E+02 -0.28382139878E+03  0.29126096673E+03  0.00000000000E+00 0.  1.
</event>
<event>
12    1  0.8684423E-002  0.2322941E+03  0.7818608E-02  0.1125079E+00
         21   -1    0    0  501  502  0.00000000000E+00  0.00000000000E+00  0.20136300598E+03  0.20136300598E+03  0.00000000000E+00 0. -1.
         21   -1    0    0  502  503 -0.00000000000E+00 -0.00000000000E+00 -0.51356281331E+03  0.51356281331E+03  0.00000000000E+00 0.  1.
         -6    2    1    2    0  503  0.77231729535E+02  0.13478681288E+03 -0.40348146994E+03  0.46557260271E+03  0.17270879200E+03 0.  0.
        -24    2    3    3    0    0  0.29149495659E+02  0.40214848479E+02 -0.74654992966E+02  0.12002275157E+03  0.79781989091E+02 0.  0.
          6    2    1    2  501    0 -0.77231729535E+02 -0.13478681288E+03  0.91281662612E+02  0.24935321659E+03  0.17237302492E+03 0.  0.
         24    2    5    5    0    0 -0.33752451166E+02  0.27381907271E+01  0.32738517956E+02  0.93619584864E+02  0.80907913482E+02 0.  0.
          5    1    5    5  501    0 -0.43479278369E+02 -0.13752500361E+03  0.58543144656E+02  0.15573363172E+03  0.47000000000E+01 0. -1.
        -13    1    6    6    0    0 -0.58462195435E+02  0.61584073241E+01  0.95407397440E+01  0.59554848591E+02  0.00000000000E+00 0.  1.
         14    1    6    6    0    0  0.24709744268E+02 -0.34202165971E+01  0.23197778212E+02  0.34064736273E+02  0.00000000000E+00 0. -1.
         -5    1    3    3    0  503  0.48082233876E+02  0.94571964399E+02 -0.32882647698E+03  0.34554985114E+03  0.47000000000E+01 0.  1.
         13    1    4    4    0    0  0.45634678096E+02  0.54922266432E+02 -0.61970229099E+02  0.94547810601E+02  0.00000000000E+00 0. -1.
        -14    1    4    4    0    0 -0.16485182437E+02 -0.14707417952E+02 -0.12684763867E+02  0.25474940965E+02  0.00000000000E+00 0.  1.
</event>
<event>
12    1  0.8684423E-002  0.2098387E+03  0.7818608E-02  0.1141790E+00
         21   -1    0    0  501  502  0.00000000000E+00  0.00000000000E+00  0.33791516175E+03  0.33791516175E+03  0.00000000000E+00 0.  1.
         21   -1    0    0  502  503 -0.00000000000E+00 -0.00000000000E+00 -0.32807387156E+03  0.32807387156E+03  0.00000000000E+00 0. -1.
         -6    2    1    2    0  503  0.82570514849E+01  0.12003115967E+03  0.26365671978E+03  0.33666467535E+03  0.17132594535E+03 0.  0.
        -24    2    3    3    0    0 -0.23253778106E+02  0.26672136034E+02  0.20589314149E+03  0.22235124371E+03  0.76131129177E+02 0.  0.
          6    2    1    2  501    0 -0.82570514849E+01 -0.12003115967E+03 -0.25381542959E+03  0.32932435797E+03  0.17192033697E+03 0.  0.
         24    2    5    5    0    0 -0.72579200807E+01 -0.70184278274E+01 -0.10176466895E+03  0.13981340939E+03  0.95340473382E+02 0.  0.
          5    1    5    5  501    0 -0.99913140412E+00 -0.11301273184E+03 -0.15205076064E+03  0.18951094858E+03  0.47000000000E+01 0. -1.
        -13    1    6    6    0    0  0.34670574729E+02 -0.15171066491E+02 -0.10857105698E+02  0.39371141140E+02  0.00000000000E+00 0.  1.
         14    1    6    6    0    0 -0.41928494810E+02  0.81526386635E+01 -0.90907563252E+02  0.10044226825E+03  0.00000000000E+00 0. -1.
         -5    1    3    3    0  503  0.31510829591E+02  0.93359023637E+02  0.57763578290E+02  0.11431343164E+03  0.47000000000E+01 0.  1.
         11    1    4    4    0    0 -0.22676648590E+02 -0.19614583725E+02  0.13034738313E+03  0.13375127130E+03  0.00000000000E+00 0. -1.
        -12    1    4    4    0    0 -0.57712951615E+00  0.46286719759E+02  0.75545758361E+02  0.88599972408E+02  0.00000000000E+00 0.  1.
</event>
<event>
12    1  0.8684423E-002  0.1770919E+03  0.7818608E-02  0.1170895E+00
         21   -1    0    0  501  502  0.00000000000E+00  0.00000000000E+00  0.22433060493E+03  0.22433060493E+03  0.00000000000E+00 0.  1.
         21   -1    0    0  502  503 -0.00000000000E+00 -0.00000000000E+00 -0.20830205533E+03  0.20830205533E+03  0.00000000000E+00 0.  1.
         -6    2    1    2    0  503 -0.39938287333E+02  0.78083439037E+00 -0.11672935299E+03  0.21210204621E+03  0.17252785184E+03 0.  0.
        -24    2    3    3    0    0  0.42003137038E+01  0.62955994024E+02 -0.50924262110E+02  0.11127364464E+03  0.76206585685E+02 0.  0.
          6    2    1    2  501    0  0.39938287333E+02 -0.78083439037E+00  0.13275790259E+03  0.22053061405E+03  0.17150339512E+03 0.  0.
         24    2    5    5    0    0 -0.18704694898E+02 -0.51647311911E+02  0.50488599388E+02  0.10731963336E+03  0.77143337994E+02 0.  0.
          5    1    5    5  501    0  0.58642982231E+02  0.50866477521E+02  0.82269303201E+02  0.11321098069E+03  0.47000000000E+01 0. -1.
        -13    1    6    6    0    0 -0.11158609991E+02 -0.44822554445E+02  0.70838735038E+02  0.84567738209E+02  0.00000000000E+00 0.  1.
         14    1    6    6    0    0 -0.75460849070E+01 -0.68247574661E+01 -0.20350135650E+02  0.22751895149E+02  0.00000000000E+00 0. -1.
         -5    1    3    3    0  503 -0.44138601036E+02 -0.62175159633E+02 -0.65805090879E+02  0.10082840157E+03  0.47000000000E+01 0.  1.
         11    1    4    4    0    0  0.17146919561E+02  0.66503243178E+02 -0.11509871799E+02  0.69636020510E+02  0.00000000000E+00 0. -1.
        -12    1    4    4    0    0 -0.12946605858E+02 -0.35472491542E+01 -0.39414390311E+02  0.41637624132E+02  0.00000000000E+00 0.  1.
</event>
<event>
12    1  0.8684423E-002  0.2174672E+03  0.7818608E-02  0.1135831E+00
         21   -1    0    0  503  502  0.00000000000E+00  0.00000000000E+00  0.11100318648E+04  0.11100318648E+04  0.00000000000E+00 0.  1.
         21   -1    0    0  501  503 -0.00000000000E+00 -0.00000000000E+00 -0.49467150241E+02  0.49467150241E+02  0.00000000000E+00 0.  1.
          6    2    1    2  501    0 -0.12798459683E+03  0.40461259405E+02  0.31334546249E+03  0.38127757736E+03  0.17079239327E+03 0.  0.
         24    2    3    3    0    0 -0.27439150526E+02  0.65859966651E+02  0.11183637590E+03  0.15460053159E+03  0.79394629570E+02 0.  0.
         -6    2    1    2    0  502  0.12798459683E+03 -0.40461259405E+02  0.74721925209E+03  0.77822143770E+03  0.17109887453E+03 0.  0.
        -24    2    5    5    0    0  0.67529715838E+02 -0.85850987683E+02  0.55534590467E+03  0.57193888508E+03  0.82306499230E+02 0.  0.
          5    1    3    3  501    0 -0.10054544630E+03 -0.25398707245E+02  0.20150908659E+03  0.22667704577E+03  0.47000000000E+01 0. -1.
        -13    1    4    4    0    0  0.10901526238E+02  0.35453435450E+02  0.54372647672E+01  0.37488040862E+02  0.00000000000E+00 0.  1.
         14    1    4    4    0    0 -0.38340676763E+02  0.30406531200E+02  0.10639911114E+03  0.11711249073E+03  0.00000000000E+00 0. -1.
         -5    1    5    5    0  502  0.60454880992E+02  0.45389728278E+02  0.19187334741E+03  0.20628255262E+03  0.47000000000E+01 0.  1.
         13    1    6    6    0    0  0.17924917720E+02 -0.41527886931E+01  0.16602494760E+02  0.24782880410E+02  0.00000000000E+00 0. -1.
        -14    1    6    6    0    0  0.49604798118E+02 -0.81698198990E+02  0.53874340991E+03  0.54715600467E+03  0.00000000000E+00 0.  1.
</event>
<event>
12    1  0.8684423E-002  0.1868216E+03  0.7818608E-02  0.1165342E+00
         21   -1    0    0  501  502  0.00000000000E+00  0.00000000000E+00  0.24771458078E+03  0.24771458078E+03  0.00000000000E+00 0. -1.
         21   -1    0    0  502  503 -0.00000000000E+00 -0.00000000000E+00 -0.13002583419E+03  0.13002583419E+03  0.00000000000E+00 0. -1.
         -6    2    1    2    0  503  0.17504784646E+02 -0.19371948427E+02  0.37587203288E+02  0.17447075739E+03  0.16836138946E+03 0.  0.
        -24    2    3    3    0    0 -0.11623214307E+01 -0.69235440090E+01 -0.43026986897E+02  0.90660487845E+02  0.79490351629E+02 0.  0.
          6    2    1    2  501    0 -0.17504784646E+02  0.19371948427E+02  0.80101543301E+02  0.20326965757E+03  0.18498812551E+03 0.  0.
         24    2    5    5    0    0  0.43988714862E+02  0.62769755957E+02  0.38138729417E+02  0.11696909020E+03  0.79700414564E+02 0.  0.
          5    1    5    5  501    0 -0.61493499508E+02 -0.43397807530E+02  0.41962813885E+02  0.86300567376E+02  0.47000000000E+01 0. -1.
        -13    1    6    6    0    0  0.28265526083E+02 -0.12408728815E+02  0.23463921262E+02  0.38774632384E+02  0.00000000000E+00 0.  1.
         14    1    6    6    0    0  0.15723188780E+02  0.75178484773E+02  0.14674808155E+02  0.78194457812E+02  0.00000000000E+00 0. -1.
         -5    1    3    3    0  503  0.18667106077E+02 -0.12448404418E+02  0.80614190185E+02  0.83810269544E+02  0.47000000000E+01 0.  1.
         11    1    4    4    0    0  0.27867356515E+02 -0.31220578655E+02 -0.24799133841E+02  0.48644744114E+02  0.00000000000E+00 0. -1.
        -12    1    4    4    0    0 -0.29029677946E+02  0.24297034646E+02 -0.18227853056E+02  0.42015743731E+02  0.00000000000E+00 0.  1.
</event>
<event>
12    1  0.8684423E-002  0.1745949E+03  0.7818608E-02  0.1174022E+00
         21   -1    0    0  503  502  0.00000000000E+00  0.00000000000E+00  0.27567287260E+03  0.27567287260E+03  0.00000000000E+00 0.  1.
         21   -1    0    0  501  503 -0.00000000000E+00 -0.00000000000E+00 -0.20981594389E+03  0.20981594389E+03  0.00000000000E+00 0.  1.
          6    2    1    2  501    0 -0.15901835239E+02  0.12648903279E+02 -0.13601074423E+03  0.21859194239E+03  0.16991365929E+03 0.  0.
         24    2    3    3    0    0 -0.11854547198E+02 -0.57317996614E+02 -0.92889660615E+02  0.13617067406E+03  0.80548621334E+02 0.  0.
         -6    2    1    2    0  502  0.15901835239E+02 -0.12648903279E+02  0.20186767295E+03  0.26689687410E+03  0.17340853758E+03 0.  0.
        -24    2    5    5    0    0  0.71451027548E+02  0.19587564616E+02  0.12223761990E+03  0.16448624000E+03  0.81392661870E+02 0.  0.
          5    1    3    3  501    0 -0.40472880410E+01  0.69966899893E+02 -0.43121083615E+02  0.82421268330E+02  0.47000000000E+01 0. -1.
        -11    1    4    4    0    0  0.33177984070E+02 -0.37369114749E+02 -0.52427956649E+02  0.72428723601E+02  0.00000000000E+00 0.  1.
         12    1    4    4    0    0 -0.45032531268E+02 -0.19948881865E+02 -0.40461703965E+02  0.63741950456E+02  0.00000000000E+00 0. -1.
         -5    1    5    5    0  502 -0.55549192309E+02 -0.32236467895E+02  0.79630053046E+02  0.10241063410E+03  0.47000000000E+01 0.  1.
         13    1    6    6    0    0  0.28252421301E+02 -0.22228764586E+02  0.88550254315E+02  0.95569162514E+02  0.00000000000E+00 0. -1.
        -14    1    6    6    0    0  0.43198606247E+02  0.41816329202E+02  0.33687365585E+02  0.68917077489E+02  0.00000000000E+00 0.  1.
</event>
<event>
12    1  0.8684423E-002  0.1852590E+03  0.7818608E-02  0.1164455E+00
         21   -1    0    0  501  502  0.00000000000E+00  0.00000000000E+00  0.10713940668E+04  0.10713940668E+04  0.00000000000E+00 0.  1.
         21   -1    0    0  502  503 -0.00000000000E+00 -0.00000000000E+00 -0.58076047680E+02  0.58076047680E+02  0.00000000000E+00 0.  1.
         -6    2    1    2    0  503  0.41261962526E+02 -0.13175879622E+02  0.11488986140E+03  0.21214025808E+03  0.17299611409E+03 0.  0.
        -24    2    3    3    0    0  0.82571828689E+02  0.36862017111E+01  0.34652773771E+02  0.12021139938E+03  0.80114111337E+02 0.  0.
          6    2    1    2  501    0 -0.41261962526E+02  0.13175879622E+02  0.89842815775E+03  0.91732985643E+03  0.18012428353E+03 0.  0.
         24    2    5    5    0    0 -0.81843295536E+02 -0.28892654598E+02  0.45355181758E+03  0.46860538173E+03  0.79678366194E+02 0.  0.
          5    1    5    5  501    0  0.40581333010E+02  0.42068534220E+02  0.44487634017E+03  0.44872447471E+03  0.47000000000E+01 0. -1.
        -11    1    6    6    0    0 -0.24530974770E+02  0.27886802035E+02  0.14479059812E+03  0.14947829192E+03  0.00000000000E+00 0.  1.
         12    1    6    6    0    0 -0.57312320766E+02 -0.56779456633E+02  0.30876121946E+03  0.31912708981E+03  0.00000000000E+00 0. -1.
         -5    1    3    3    0  503 -0.41309866163E+02 -0.16862081334E+02  0.80237087633E+02  0.91928858696E+02  0.47000000000E+01 0.  1.
         11    1    4    4    0    0  0.30745934685E+01  0.24480229529E+02  0.28666297897E+02  0.37821837580E+02  0.00000000000E+00 0. -1.
        -12    1    4    4    0    0  0.79497235220E+02 -0.20794027818E+02  0.59864758737E+01  0.82389561802E+02  0.00000000000E+00 0.  1.
</event>
<event>
12    1  0.8684423E-002  0.3254813E+03  0.7818608E-02  0.1073212E+00
         21   -1    0    0  503  502  0.00000000000E+00  0.00000000000E+00  0.60727033037E+03  0.60727033037E+03  0.00000000000E+00 0. -1.
         21   -1    0    0  501  503 -0.00000000000E+00 -0.00000000000E+00 -0.50160649408E+03  0.50160649408E+03  0.00000000000E+00 0.  1.
          6    2    1    2  501    0  0.27603252038E+03 -0.14740848349E+02 -0.39510586335E+03  0.51190497879E+03  0.17183369618E+03 0.  0.
         24    2    3    3    0    0  0.12451752100E+03 -0.64061030283E+02 -0.13612899609E+03  0.20779910388E+03  0.70999544777E+02 0.  0.
         -6    2    1    2    0  502 -0.27603252038E+03  0.14740848349E+02  0.50076969964E+03  0.59697184565E+03  0.17086207158E+03 0.  0.
        -24    2    5    5    0    0 -0.23499462586E+03  0.63869490107E+02  0.35796086740E+03  0.44040178212E+03  0.80721503685E+02 0.  0.
          5    1    3    3  501    0  0.15151499939E+03  0.49320181934E+02 -0.25897686726E+03  0.30410587492E+03  0.47000000000E+01 0. -1.
        -11    1    4    4    0    0  0.81512606137E+02 -0.16238006094E+02 -0.11118338094E+03  0.13881542421E+03  0.00000000000E+00 0.  1.
         12    1    4    4    0    0  0.43004914861E+02 -0.47823024189E+02 -0.24945615146E+02  0.68983679663E+02  0.00000000000E+00 0. -1.
         -5    1    5    5    0  502 -0.41037894520E+02 -0.49128641758E+02  0.14280883224E+03  0.15657006353E+03  0.47000000000E+01 0.  1.
         13    1    6    6    0    0 -0.14646523872E+03  0.17849319620E+02  0.26860377774E+03  0.30646150457E+03  0.00000000000E+00 0. -1.
        -14    1    6    6    0    0 -0.88529387143E+02  0.46020170487E+02  0.89357089651E+02  0.13394027755E+03  0.00000000000E+00 0.  1.
</event>
<event>
12    1  0.8684423E-002  0.1819121E+03  0.7818608E-02  0.1167473E+00
         21   -1    0    0  501  502  0.00000000000E+00  0.00000000000E+00  0.20075503347E+03  0.20075503347E+03  0.00000000000E+00 0.  1.
         21   -1    0    0  502  503 -0.00000000000E+00 -0.00000000000E+00 -0.17056102954E+03  0.17056102954E+03  0.00000000000E+00 0.  1.
         -6    2    1    2    0  503  0.44469682387E+01 -0.56408971565E+02  0.62621152535E+02  0.18653639581E+03  0.16635104634E+03 0.  0.
        -24    2    3    3    0    0 -0.26430109225E+02 -0.30984655709E+02 -0.21754952259E+02  0.93041974533E+02  0.80777048190E+02 0.  0.
          6    2    1    2  501    0 -0.44469682387E+01  0.56408971565E+02 -0.32427148604E+02  0.18477966720E+03  0.17288799219E+03 0.  0.
         24    2    5    5    0    0 -0.69229223276E+01  0.88077826426E+02  0.22448016466E+02  0.12119963528E+03  0.79873698978E+02 0.  0.
          5    1    5    5  501    0  0.24759540889E+01 -0.31668854861E+02 -0.54875165070E+02  0.63580031915E+02  0.47000000000E+01 0. -1.
        -11    1    6    6    0    0  0.35139905405E+02  0.24870616724E+02  0.54287179211E+01  0.43391606404E+02  0.00000000000E+00 0.  1.
         12    1    6    6    0    0 -0.42062827733E+02  0.63207209703E+02  0.17019298544E+02  0.77808028880E+02  0.00000000000E+00 0. -1.
         -5    1    3    3    0  503  0.30877077464E+02 -0.25424315856E+02  0.84376104794E+02  0.93494421275E+02  0.47000000000E+01 0.  1.
         11    1    4    4    0    0  0.14145562139E+02  0.18768845162E+02  0.40499082084E+01  0.23848862309E+02  0.00000000000E+00 0. -1.
        -12    1    4    4    0    0 -0.40575671364E+02 -0.49753500871E+02 -0.25804860468E+02  0.69193112224E+02  0.00000000000E+00 0.  1.
</event>
<event>
12    1  0.8684423E-002  0.1850794E+03  0.7818608E-02  0.1162993E+00
         21   -1    0    0  501  502  0.00000000000E+00  0.00000000000E+00  0.17501743903E+03  0.17501743903E+03  0.00000000000E+00 0. -1.
         21   -1    0    0  502  503 -0.00000000000E+00 -0.00000000000E+00 -0.22108491669E+03  0.22108491669E+03  0.00000000000E+00 0. -1.
         -6    2    1    2    0  503 -0.55157882900E+02 -0.40531511486E+02 -0.90217717534E+02  0.20582984177E+03  0.17187638505E+03 0.  0.
        -24    2    3    3    0    0 -0.76539693987E+02  0.10508095851E+02 -0.13560217621E+02  0.11116894353E+03  0.78777596243E+02 0.  0.
          6    2    1    2  501    0  0.55157882900E+02  0.40531511486E+02  0.44150239871E+02  0.19027251395E+03  0.17195694349E+03 0.  0.
         24    2    5    5    0    0 -0.22179913038E+02 -0.14470117816E+02 -0.55947396397E+01  0.83020628688E+02  0.78484334897E+02 0.  0.
          5    1    5    5  501    0  0.77337795938E+02  0.55001629302E+02  0.49744979511E+02  0.10725188527E+03  0.47000000000E+01 0. -1.
        -13    1    6    6    0    0 -0.52362199618E+01  0.28461991828E+02 -0.19405921856E+02  0.34843834194E+02  0.00000000000E+00 0.  1.
         14    1    6    6    0    0 -0.16943693076E+02 -0.42932109644E+02  0.13811182216E+02  0.48176794494E+02  0.00000000000E+00 0. -1.
         -5    1    3    3    0  503  0.21381811088E+02 -0.51039607338E+02 -0.76657499913E+02  0.94660898240E+02  0.47000000000E+01 0.  1.
         11    1    4    4    0    0  0.41376945016E+01  0.17380403873E+02 -0.23577541506E+02  0.29582079339E+02  0.00000000000E+00 0. -1.
        -12    1    4    4    0    0 -0.80677388489E+02 -0.68723080212E+01  0.10017323885E+02  0.81586864192E+02  0.00000000000E+00 0.  1.
</event>
<event>
12    1  0.8684423E-002  0.2766609E+03  0.7818608E-02  0.1097587E+00
         21   -1    0    0  503  502  0.00000000000E+00  0.00000000000E+00  0.28725217157E+03  0.28725217157E+03  0.00000000000E+00 0. -1.
         21   -1    0    0  501  503 -0.00000000000E+00 -0.00000000000E+00 -0.35295758684E+03  0.35295758684E+03  0.00000000000E+00 0.  1.
          6    2    1    2  501    0  0.16453755259E+03  0.13924434431E+03 -0.19168262767E+03  0.33621715916E+03  0.17273724187E+03 0.  0.
         24    2    3    3    0    0  0.15418855974E+03  0.78668357627E+02 -0.75862565253E+02  0.20501910783E+03  0.79466240133E+02 0.  0.
         -6    2    1    2    0  502 -0.16453755259E+03 -0.13924434431E+03  0.12597721240E+03  0.30399259925E+03  0.17343485439E+03 0.  0.
        -24    2    5    5    0    0 -0.18532510991E+03 -0.14717362451E+03  0.12901201077E+03  0.28105145663E+03  0.79626316241E+02 0.  0.
          5    1    3    3  501    0  0.10348992850E+02  0.60575986686E+02 -0.11582006242E+03  0.13119805134E+03  0.47000000000E+01 0. -1.
        -11    1    4    4    0    0 -0.92384338863E+01  0.50253405722E+00 -0.47847113689E+01  0.10416077190E+02  0.00000000000E+00 0.  1.
         12    1    4    4    0    0  0.16342699363E+03  0.78165823570E+02 -0.71077853884E+02  0.19460303064E+03  0.00000000000E+00 0. -1.
         -5    1    5    5    0  502  0.20787557316E+02  0.79292801933E+01 -0.30347983645E+01  0.22941142619E+02  0.47000000000E+01 0.  1.
         13    1    6    6    0    0 -0.11233017728E+03 -0.57327887267E+02  0.10195505635E+03  0.16217086329E+03  0.00000000000E+00 0. -1.
        -14    1    6    6    0    0 -0.72994932628E+02 -0.89845737240E+02  0.27056954420E+02  0.11888059334E+03  0.00000000000E+00 0.  1.
</event>
<event>
12    1  0.8684423E-002  0.1778672E+03  0.7818608E-02  0.1171100E+00
         21   -1    0    0  501  502  0.00000000000E+00  0.00000000000E+00  0.91261945899E+03  0.91261945899E+03  0.00000000000E+00 0.  1.
         21   -1    0    0  502  503 -0.00000000000E+00 -0.00000000000E+00 -0.39662326484E+02  0.39662326484E+02  0.00000000000E+00 0.  1.
         -6    2    1    2    0  503 -0.41516180210E+02  0.31137961826E+00  0.24706470786E+03  0.30160670791E+03  0.16793435089E+03 0.  0.
        -24    2    3    3    0    0  0.41462070484E+01  0.33473539168E+02  0.58986197556E+02  0.10518777177E+03  0.80295871439E+02 0.  0.
          6    2    1    2  501    0  0.41516180210E+02 -0.31137961826E+00  0.62589242464E+03  0.65067507756E+03  0.17295386425E+03 0.  0.
         24    2    5    5    0    0  0.17952343918E+02  0.65635928414E+02  0.44085560427E+03  0.45277354469E+03  0.77587738778E+02 0.  0.
          5    1    5    5  501    0  0.23563836292E+02 -0.65947308033E+02  0.18503682038E+03  0.19790153287E+03  0.47000000000E+01 0. -1.
        -13    1    6    6    0    0  0.16367090019E+02  0.19535530282E+02  0.30118181008E+02  0.39454067044E+02  0.00000000000E+00 0.  1.
         14    1    6    6    0    0  0.15852538996E+01  0.46100398132E+02  0.41073742326E+03  0.41331947765E+03  0.00000000000E+00 0. -1.
         -5    1    3    3    0  503 -0.45662387259E+02 -0.33162159550E+02  0.18807851030E+03  0.19641893614E+03  0.47000000000E+01 0.  1.
         13    1    4    4    0    0  0.28304174631E+02 -0.14460633612E+02  0.12413666208E+02  0.34122358282E+02  0.00000000000E+00 0. -1.
        -14    1    4    4    0    0 -0.24157967582E+02  0.47934172780E+02  0.46572531348E+02  0.71065413486E+02  0.00000000000E+00 0.  1.
</event>
<event>
12    1  0.8684423E-002  0.3163492E+03  0.7818608E-02  0.1077353E+00
         21   -1    0    0  501  502  0.00000000000E+00  0.00000000000E+00  0.90917391868E+03  0.90917391868E+03  0.00000000000E+00 0.  1.
         21   -1    0    0  502  503 -0.00000000000E+00 -0.00000000000E+00 -0.12382757094E+03  0.12382757094E+03  0.00000000000E+00 0. -1.
         -6    2    1    2    0  503  0.25332860846E+03 -0.80460166667E+02  0.22027549647E+03  0.38540448873E+03  0.17136540871E+03 0.  0.
        -24    2    3    3    0    0  0.42073553388E+02 -0.14630639205E+02  0.93318691356E+02  0.13025287626E+03  0.79203498155E+02 0.  0.
          6    2    1    2  501    0 -0.25332860846E+03  0.80460166667E+02  0.56507085126E+03  0.64759700089E+03  0.17154470651E+03 0.  0.
         24    2    5    5    0    0 -0.10146293784E+03 -0.26178849734E+02  0.21708255987E+03  0.25319491839E+03  0.77477538500E+02 0.  0.
          5    1    5    5  501    0 -0.15186567062E+03  0.10663901640E+03  0.34798829139E+03  0.39440208250E+03  0.47000000000E+01 0. -1.
        -11    1    6    6    0    0 -0.32321138348E+02 -0.40820970641E+02  0.13604268751E+03  0.14566612665E+03  0.00000000000E+00 0.  1.
         12    1    6    6    0    0 -0.69141799492E+02  0.14642120907E+02  0.81039872354E+02  0.10752879174E+03  0.00000000000E+00 0. -1.
         -5    1    3    3    0  503  0.21125505507E+03 -0.65829527462E+02  0.12695680512E+03  0.25515161247E+03  0.47000000000E+01 0.  1.
         11    1    4    4    0    0  0.53562185674E+02 -0.19434125640E+02  0.27502615358E+02  0.63269161723E+02  0.00000000000E+00 0. -1.
        -12    1    4    4    0    0 -0.11488632287E+02  0.48034864348E+01  0.65816075998E+02  0.66983714539E+02  0.00000000000E+00 0.  1.
</event>
<event>
12    1  0.8684423E-002  0.2150081E+03  0.7818608E-02  0.1137997E+00
         21   -1    0    0  501  502  0.00000000000E+00  0.00000000000E+00  0.84052369358E+02  0.84052369358E+02  0.00000000000E+00 0. -1.
         21   -1    0    0  502  503 -0.00000000000E+00 -0.00000000000E+00 -0.55857583367E+03  0.55857583367E+03  0.00000000000E+00 0. -1.
         -6    2    1    2    0  503 -0.68815134127E+02 -0.10452030448E+03 -0.18912924370E+03  0.28635355467E+03  0.17483841314E+03 0.  0.
        -24    2    3    3    0    0 -0.98592375666E+02 -0.23348919598E+02 -0.11367907324E+03  0.17150454047E+03  0.78900235260E+02 0.  0.
          6    2    1    2  501    0  0.68815134127E+02  0.10452030448E+03 -0.28539422061E+03  0.35627464836E+03  0.17268974253E+03 0.  0.
         24    2    5    5    0    0 -0.20749166338E+02  0.60775335029E+02 -0.16280697155E+03  0.19820785899E+03  0.93038035928E+02 0.  0.
          5    1    5    5  501    0  0.89564300465E+02  0.43744969456E+02 -0.12258724906E+03  0.15806678937E+03  0.47000000000E+01 0. -1.
        -13    1    6    6    0    0 -0.13632929930E+02  0.12429352013E+02 -0.14504422049E+03  0.14621276096E+03  0.00000000000E+00 0.  1.
         14    1    6    6    0    0 -0.71162364071E+01  0.48345983016E+02 -0.17762751063E+02  0.51995098035E+02  0.00000000000E+00 0. -1.
         -5    1    3    3    0  503  0.29777241539E+02 -0.81171384887E+02 -0.75450170467E+02  0.11484901420E+03  0.47000000000E+01 0.  1.
         13    1    4    4    0    0 -0.10618660325E+03 -0.37159603717E+02 -0.10237710537E+03  0.15211016587E+03  0.00000000000E+00 0. -1.
        -14    1    4    4    0    0  0.75942275820E+01  0.13810684119E+02 -0.11301967870E+02  0.19394374600E+02  0.00000000000E+00 0.  1.
</event>
<event>
12    1  0.8684423E-002  0.2359099E+03  0.7818608E-02  0.1122565E+00
         21   -1    0    0  503  502  0.00000000000E+00  0.00000000000E+00  0.23180426054E+03  0.23180426054E+03  0.00000000000E+00 0. -1.
         21   -1    0    0  501  503 -0.00000000000E+00 -0.00000000000E+00 -0.58308812076E+03  0.58308812076E+03  0.00000000000E+00 0.  1.
          6    2    1    2  501    0 -0.71236215415E+02  0.14555026309E+03 -0.48817304077E+03  0.54214317409E+03  0.17130915330E+03 0.  0.
         24    2    3    3    0    0 -0.94714831059E+02  0.66985034768E+02 -0.21460825544E+03  0.25651488021E+03  0.79279797924E+02 0.  0.
         -6    2    1    2    0  502  0.71236215415E+02 -0.14555026309E+03  0.13688918056E+03  0.27274920720E+03  0.17144679876E+03 0.  0.
        -24    2    5    5    0    0  0.13303739706E+02 -0.10895670099E+03  0.15029446207E+03  0.20277026679E+03  0.80491015550E+02 0.  0.
          5    1    3    3  501    0  0.23478615644E+02  0.78565228322E+02 -0.27356478533E+03  0.28562829389E+03  0.47000000000E+01 0. -1.
        -13    1    4    4    0    0 -0.86994876954E+02  0.16463688427E+02 -0.14939892743E+03  0.17366404686E+03  0.00000000000E+00 0.  1.
         14    1    4    4    0    0 -0.77199541046E+01  0.50521346340E+02 -0.65209328008E+02  0.82850833349E+02  0.00000000000E+00 0. -1.
         -5    1    5    5    0  502  0.57932475708E+02 -0.36593562095E+02 -0.13405281513E+02  0.69978940410E+02  0.47000000000E+01 0.  1.
         11    1    6    6    0    0  0.20280000246E+02 -0.78454576856E+02  0.44505057620E+02  0.92450522948E+02  0.00000000000E+00 0. -1.
        -12    1    6    6    0    0 -0.69762605397E+01 -0.30502124138E+02  0.10578940445E+03  0.11031974384E+03  0.00000000000E+00 0.  1.
</event>
<event>
12    1  0.8684423E-002  0.2138716E+03  0.7818608E-02  0.1139729E+00
         21   -1    0    0  501  502  0.00000000000E+00  0.00000000000E+00  0.22689400684E+03  0.22689400684E+03  0.00000000000E+00 0.  1.
         21   -1    0    0  502  503 -0.00000000000E+00 -0.00000000000E+00 -0.20873499497E+03  0.20873499497E+03  0.00000000000E+00 0.  1.
         -6    2    1    2    0  503  0.79778440544E+02  0.88938172061E+02  0.63180151146E+02  0.22300847769E+03  0.17738785640E+03 0.  0.
        -24    2    3    3    0    0  0.61037090734E+02  0.72598476565E+02  0.11252666621E+03  0.16755225720E+03  0.80096460847E+02 0.  0.
          6    2    1    2  501    0 -0.79778440544E+02 -0.88938172061E+02 -0.45021139278E+02  0.21262052413E+03  0.17001760578E+03 0.  0.
         24    2    5    5    0    0  0.41236928886E+01  0.57017740842E+01 -0.80543913584E+01  0.80768645672E+02  0.80057390869E+02 0.  0.
          5    1    5    5  501    0 -0.83902133432E+02 -0.94639946145E+02 -0.36966747919E+02  0.13185187846E+03  0.47000000000E+01 0. -1.
        -11    1    6    6    0    0 -0.78280220078E+01 -0.32023132333E+02  0.13596908753E+02  0.35659989633E+02  0.00000000000E+00 0.  1.
         12    1    6    6    0    0  0.11951714896E+02  0.37724906418E+02 -0.21651300111E+02  0.45108656039E+02  0.00000000000E+00 0. -1.
         -5    1    3    3    0  503  0.18741349810E+02  0.16339695496E+02 -0.49346515065E+02  0.55456220486E+02  0.47000000000E+01 0.  1.
         11    1    4    4    0    0 -0.17920239577E+02  0.21462398496E+01  0.20515417747E+02  0.27324415773E+02  0.00000000000E+00 0. -1.
        -12    1    4    4    0    0  0.78957330311E+02  0.70452236715E+02  0.92011248464E+02  0.14022784143E+03  0.00000000000E+00 0.  1.
</event>
<event>
12    1  0.8684423E-002  0.3012323E+03  0.7818608E-02  0.1084831E+00
         21   -1    0    0  503  502  0.00000000000E+00  0.00000000000E+00  0.49657609687E+03  0.49657609687E+03  0.00000000000E+00 0.  1.
         21   -1    0    0  501  503 -0.00000000000E+00 -0.00000000000E+00 -0.22844965796E+03  0.22844965796E+03  0.00000000000E+00 0. -1.
          6    2    1    2  501    0 -0.23620954685E+03 -0.73800172675E+02  0.29769744784E+03  0.42234545961E+03  0.16885052944E+03 0.  0.
         24    2    3    3    0    0 -0.22797905708E+03 -0.23771376880E+02  0.28648520971E+03  0.37020693590E+03  0.49395052196E+02 0.  0.
         -6    2    1    2    0  502  0.23620954685E+03  0.73800172675E+02 -0.29571008928E+02  0.30268029522E+03  0.17175418782E+03 0.  0.
        -24    2    5    5    0    0  0.10657276578E+03  0.62777789039E+02 -0.74076199470E+02  0.16509399527E+03  0.80435929434E+02 0.  0.
          5    1    3    3  501    0 -0.82304897688E+01 -0.50028795795E+02  0.11212238129E+02  0.52138523707E+02  0.47000000000E+01 0. -1.
        -13    1    4    4    0    0 -0.29437831416E+02  0.10932136464E+02  0.54467432744E+02  0.62871287214E+02  0.00000000000E+00 0.  1.
         14    1    4    4    0    0 -0.19854122567E+03 -0.34703513344E+02  0.23201777696E+03  0.30733564869E+03  0.00000000000E+00 0. -1.
         -5    1    5    5    0  502  0.12963678107E+03  0.11022383636E+02  0.44505190542E+02  0.13758629995E+03  0.47000000000E+01 0.  1.
         13    1    6    6    0    0  0.11996462496E+03  0.55236827610E+02 -0.68198588537E+02  0.14863938188E+03  0.00000000000E+00 0. -1.
        -14    1    6    6    0    0 -0.13391859182E+02  0.75409614287E+01 -0.58776109329E+01  0.16454613393E+02  0.00000000000E+00 0.  1.
</event>
<event>
12    1  0.8684423E-002  0.1737061E+03  0.7818608E-02  0.1174644E+00
         21   -1    0    0  503  502  0.00000000000E+00  0.00000000000E+00  0.14109124007E+04  0.14109124007E+04  0.00000000000E+00 0. -1.
         21   -1    0    0  501  503 -0.00000000000E+00 -0.00000000000E+00 -0.23210435206E+02  0.23210435206E+02  0.00000000000E+00 0.  1.
          6    2    1    2  501    0  0.24870694455E+02 -0.10433544913E+01  0.47301465010E+03  0.50308755899E+03  0.16951281004E+03 0.  0.
         24    2    3    3    0    0  0.47909043540E+02  0.16432423554E+02  0.14077558867E+03  0.16955937084E+03  0.79795443971E+02 0.  0.
         -6    2    1    2    0  502 -0.24870694455E+02  0.10433544913E+01  0.91468731543E+03  0.93103527695E+03  0.17191323944E+03 0.  0.
        -24    2    5    5    0    0 -0.56859780614E+02 -0.47461256017E+02  0.47815629801E+03  0.49062930737E+03  0.81228483008E+02 0.  0.
          5    1    3    3  501    0 -0.23038349085E+02 -0.17475778046E+02  0.33223906143E+03  0.33352818815E+03  0.47000000000E+01 0. -1.
        -13    1    4    4    0    0  0.60111407889E+02  0.35269498099E+02  0.88339990534E+02  0.11252232126E+03  0.00000000000E+00 0.  1.
         14    1    4    4    0    0 -0.12202364348E+02 -0.18837074545E+02  0.52435598133E+02  0.57037049579E+02  0.00000000000E+00 0. -1.
         -5    1    5    5    0  502  0.31989086159E+02  0.48504610509E+02  0.43653101742E+03  0.44040596958E+03  0.47000000000E+01 0.  1.
         13    1    6    6    0    0 -0.16460300069E+01 -0.32370997102E+02  0.33333014604E+03  0.33490233969E+03  0.00000000000E+00 0. -1.
        -14    1    6    6    0    0 -0.55213750607E+02 -0.15090258915E+02  0.14482615197E+03  0.15572696768E+03  0.00000000000E+00 0.  1.
</event>
<event>
12    1  0.8684423E-002  0.2376921E+03  0.7818608E-02  0.1121360E+00
         21   -1    0    0  503  502  0.00000000000E+00  0.00000000000E+00  0.45623408192E+02  0.45623408192E+02  0.00000000000E+00 0.  1.
         21   -1    0    0  501  503 -0.00000000000E+00 -0.00000000000E+00 -0.14494840617E+04  0.14494840617E+04  0.00000000000E+00 0. -1.
          6    2    1    2  501    0  0.15164408422E+03 -0.62324379015E+02 -0.98751486528E+03  0.10156897416E+04  0.17192959476E+03 0.  0.
         24    2    3    3    0    0  0.82356527604E+02 -0.50820854324E+02 -0.86803732698E+03  0.87701721823E+03  0.79404301913E+02 0.  0.
         -6    2    1    2    0  502 -0.15164408422E+03  0.62324379015E+02 -0.41634578825E+03  0.47941772831E+03  0.17209673537E+03 0.  0.
        -24    2    5    5    0    0 -0.11673447711E+03  0.26281028999E+02 -0.14487726275E+03  0.20331076700E+03  0.77641587334E+02 0.  0.
          5    1    3    3  501    0  0.69287556612E+02 -0.11503524691E+02 -0.11947753830E+03  0.13867252338E+03  0.47000000000E+01 0. -1.
        -11    1    4    4    0    0 -0.12219074072E+02 -0.21211252773E+01 -0.33401182317E+02  0.35629256570E+02  0.00000000000E+00 0.  1.
         12    1    4    4    0    0  0.94575601676E+02 -0.48699729047E+02 -0.83463614466E+03  0.84138796166E+03  0.00000000000E+00 0. -1.
         -5    1    5    5    0  502 -0.34909607109E+02  0.36043350016E+02 -0.27146852550E+03  0.27610696131E+03  0.47000000000E+01 0.  1.
         13    1    6    6    0    0  0.80645166605E+01  0.93906218452E+01 -0.14852580302E+01  0.12467004413E+02  0.00000000000E+00 0. -1.
        -14    1    6    6    0    0 -0.12479899377E+03  0.16890407153E+02 -0.14339200472E+03  0.19084376258E+03  0.00000000000E+00 0.  1.
</event>
<event>
12    1  0.8684423E-002  0.1900232E+03  0.7818608E-02  0.1160826E+00
         21   -1    0    0  501  502  0.00000000000E+00  0.00000000000E+00  0.36315139354E+02  0.36315139354E+02  0.00000000000E+00 0.  1.
         21   -1    0    0  502  503 -0.00000000000E+00 -0.00000000000E+00 -0.10827622427E+04  0.10827622427E+04  0.00000000000E+00 0.  1.
         -6    2    1    2    0  503 -0.58400258132E+02 -0.23316545454E+02 -0.71276859656E+03  0.73508499823E+03  0.16839427229E+03 0.  0.
        -24    2    3    3    0    0 -0.40367046918E+02  0.50892687249E+02 -0.39053364554E+03  0.40389070392E+03  0.79947534809E+02 0.  0.
          6    2    1    2  501    0  0.58400258132E+02  0.23316545454E+02 -0.33367850676E+03  0.38399238379E+03  0.17931690801E+03 0.  0.
         24    2    5    5    0    0  0.17961801763E+02 -0.15135387392E+02 -0.55011184219E+02  0.99754127143E+02  0.79830753590E+02 0.  0.
          5    1    5    5  501    0  0.40438456369E+02  0.38451932846E+02 -0.27866732254E+03  0.28423825665E+03  0.47000000000E+01 0. -1.
        -11    1    6    6    0    0  0.28611060434E+02  0.17118355115E+02  0.19896970062E+01  0.33400445433E+02  0.00000000000E+00 0.  1.
         12    1    6    6    0    0 -0.10649258671E+02 -0.32253742507E+02 -0.57000881225E+02  0.66353681709E+02  0.00000000000E+00 0. -1.
         -5    1    3    3    0  503 -0.18033211213E+02 -0.74209232704E+02 -0.32223495102E+03  0.33119429431E+03  0.47000000000E+01 0.  1.
         11    1    4    4    0    0  0.24389564021E+02  0.18194210089E+02 -0.12049563756E+03  0.12427823134E+03  0.00000000000E+00 0. -1.
        -12    1    4    4    0    0 -0.64756610939E+02  0.32698477160E+02 -0.27003800798E+03  0.27961247258E+03  0.00000000000E+00 0.  1.
</event>
<event>
12    1  0.8684423E-002  0.2220848E+03  0.7818608E-02  0.1132697E+00
         21   -1    0    0  503  502  0.00000000000E+00  0.00000000000E+00  0.32457497029E+03  0.32457497029E+03  0.00000000000E+00 0. -1.
         21   -1    0    0  501  503 -0.00000000000E+00 -0.00000000000E+00 -0.73850299691E+03  0.73850299691E+03  0.00000000000E+00 0.  1.
          6    2    1    2  501    0  0.13615026256E+03  0.21793812822E+02 -0.68101892467E+03  0.71571763022E+03  0.17161901463E+03 0.  0.
         24    2    3    3    0    0  0.34884480413E+02  0.67397913469E+02 -0.35228367523E+03  0.36869681405E+03  0.77936815097E+02 0.  0.
         -6    2    1    2    0  502 -0.13615026256E+03 -0.21793812822E+02  0.26709089805E+03  0.34736033698E+03  0.17409707526E+03 0.  0.
        -24    2    5    5    0    0 -0.60051942426E+02  0.11618966283E+02  0.24044856664E+03  0.25995740821E+03  0.77595777694E+02 0.  0.
          5    1    3    3  501    0  0.10126578215E+03 -0.45604100647E+02 -0.32873524944E+03  0.34702081617E+03  0.47000000000E+01 0. -1.
        -13    1    4    4    0    0  0.49981793934E+02  0.42306889211E+02 -0.31256312444E+03  0.31934896173E+03  0.00000000000E+00 0.  1.
         14    1    4    4    0    0 -0.15097313522E+02  0.25091024259E+02 -0.39720550791E+02  0.49347852325E+02  0.00000000000E+00 0. -1.
         -5    1    5    5    0  502 -0.76098320135E+02 -0.33412779105E+02  0.26642331403E+02  0.87402928770E+02  0.47000000000E+01 0.  1.
         11    1    6    6    0    0 -0.67548895548E+02 -0.16007112357E+02  0.18413297114E+03  0.19678422700E+03  0.00000000000E+00 0. -1.
        -12    1    6    6    0    0  0.74969531220E+01  0.27626078640E+02  0.56315595504E+02  0.63173181209E+02  0.00000000000E+00 0.  1.
</event>
<event>
12    1  0.8684423E-002  0.1816959E+03  0.7818608E-02  0.1166387E+00
         21   -1    0    0  503  502  0.00000000000E+00  0.00000000000E+00  0.11197430024E+03  0.11197430024E+03  0.00000000000E+00 0. -1.
         21   -1    0    0  501  503 -0.00000000000E+00 -0.00000000000E+00 -0.29402624938E+03  0.29402624938E+03  0.00000000000E+00 0.  1.
          6    2    1    2  501    0 -0.32001490891E+02  0.49228338980E+02 -0.81716023589E+02  0.19922580070E+03  0.17194733605E+03 0.  0.
         24    2    3    3    0    0  0.81349526082E+01 -0.33719732538E+02 -0.55498754454E+02  0.10330525094E+03  0.79929126789E+02 0.  0.
         -6    2    1    2    0  502  0.32001490891E+02 -0.49228338980E+02 -0.10033592555E+03  0.20677474892E+03  0.17099992414E+03 0.  0.
        -24    2    5    5    0    0  0.10277527691E+02  0.14815200722E+02  0.53200384238E+01  0.81240776311E+02  0.79035708252E+02 0.  0.
          5    1    3    3  501    0 -0.40136443499E+02  0.82948071519E+02 -0.26217269135E+02  0.95920549760E+02  0.47000000000E+01 0. -1.
        -13    1    4    4    0    0  0.36097841805E+02 -0.13281423068E+02 -0.69012271990E+00  0.38469814804E+02  0.00000000000E+00 0.  1.
         14    1    4    4    0    0 -0.27962889197E+02 -0.20438309470E+02 -0.54808631734E+02  0.64835436135E+02  0.00000000000E+00 0. -1.
         -5    1    5    5    0  502  0.21723963200E+02 -0.64043539702E+02 -0.10565596397E+03  0.12553397261E+03  0.47000000000E+01 0.  1.
         13    1    6    6    0    0 -0.28303797470E+02 -0.15136196585E+02  0.43340835196E+01  0.32388171888E+02  0.00000000000E+00 0. -1.
        -14    1    6    6    0    0  0.38581325161E+02  0.29951397308E+02  0.98595490424E+00  0.48852604423E+02  0.00000000000E+00 0.  1.
</event>
<event>
12    1  0.8684423E-002  0.1767365E+03  0.7818608E-02  0.1171226E+00
         21   -1    0    0  503  502  0.00000000000E+00  0.00000000000E+00  0.88601393382E+03  0.88601393382E+03  0.00000000000E+00 0. -1.
         21   -1    0    0  501  503 -0.00000000000E+00 -0.00000000000E+00 -0.35835594167E+02  0.35835594167E+02  0.00000000000E+00 0. -1.
          6    2    1    2  501    0 -0.13850230777E+02  0.31636068953E+02  0.35889987502E+03  0.40005611364E+03  0.17332946666E+03 0.  0.
         24    2    3    3    0    0  0.43183877971E+02 -0.12807835874E+02  0.26961963564E+03  0.28507263056E+03  0.80887383393E+02 0.  0.
         -6    2    1    2    0  502  0.13850230777E+02 -0.31636068953E+02  0.49127846463E+03  0.52179341435E+03  0.17239828218E+03 0.  0.
        -24    2    5    5    0    0 -0.22078043242E+02  0.41887555568E+02  0.28538164377E+03  0.30018079044E+03  0.80148718289E+02 0.  0.
          5    1    3    3  501    0 -0.57034108749E+02  0.44443904827E+02  0.89280239384E+02  0.11498348308E+03  0.47000000000E+01 0. -1.
        -11    1    4    4    0    0 -0.70049512983E+01  0.15539777955E+02  0.16282945340E+03  0.16371922592E+03  0.00000000000E+00 0.  1.
         12    1    4    4    0    0  0.50188829270E+02 -0.28347613830E+02  0.10679018224E+03  0.12135340463E+03  0.00000000000E+00 0. -1.
         -5    1    5    5    0  502  0.35928274020E+02 -0.73523624521E+02  0.20589682086E+03  0.22161262391E+03  0.47000000000E+01 0.  1.
         13    1    6    6    0    0 -0.45701987483E+01  0.15349744420E+02  0.25719257511E+03  0.25769074888E+03  0.00000000000E+00 0. -1.
        -14    1    6    6    0    0 -0.17507844494E+02  0.26537811148E+02  0.28189068665E+02  0.42490041557E+02  0.00000000000E+00 0.  1.
</event>
<event>
12    1  0.8684423E-002  0.2296827E+03  0.7818608E-02  0.1126948E+00
         21   -1    0    0  501  502  0.00000000000E+00  0.00000000000E+00  0.29252912698E+03  0.29252912698E+03  0.00000000000E+00 0. -1.
         21   -1    0    0  502  503 -0.00000000000E+00 -0.00000000000E+00 -0.18986903094E+03  0.18986903094E+03  0.00000000000E+00 0. -1.
         -6    2    1    2    0  503 -0.10968273625E+03 -0.10450412874E+03 -0.37199825119E+01  0.22971283077E+03  0.17263467438E+03 0.  0.
        -24    2    3    3    0    0 -0.19839654446E+02 -0.11300978164E+03 -0.13683374659E+01  0.13931512221E+03  0.79006381343E+02 0.  0.
          6    2    1    2  501    0  0.10968273625E+03  0.10450412874E+03  0.10638007855E+03  0.25268532715E+03  0.17199342397E+03 0.  0.
         24    2    5    5    0    0 -0.13116168239E+02  0.41585667772E+02  0.35523154964E+02  0.97504473640E+02  0.79648140015E+02 0.  0.
          5    1    5    5  501    0  0.12279890449E+03  0.62918460964E+02  0.70856923591E+02  0.15518085351E+03  0.47000000000E+01 0. -1.
        -13    1    6    6    0    0 -0.19525637495E+01 -0.24047203544E+02  0.11503441774E+02  0.26728443205E+02  0.00000000000E+00 0.  1.
         14    1    6    6    0    0 -0.11163604490E+02  0.65632871317E+02  0.24019713190E+02  0.70776030435E+02  0.00000000000E+00 0. -1.
         -5    1    3    3    0  503 -0.89843081808E+02  0.85056529048E+01 -0.23516450460E+01  0.90397708569E+02  0.47000000000E+01 0.  1.
         13    1    4    4    0    0 -0.37655651921E+02 -0.86037762844E+02 -0.27376857494E+02  0.97826055236E+02  0.00000000000E+00 0. -1.
        -14    1    4    4    0    0  0.17815997475E+02 -0.26972018797E+02  0.26008520028E+02  0.41489066970E+02  0.00000000000E+00 0.  1.
</event>
<event>
12    1  0.8684423E-002  0.2396133E+03  0.7818608E-02  0.1120496E+00
         21   -1    0    0  503  502  0.00000000000E+00  0.00000000000E+00  0.30557755060E+03  0.30557755060E+03  0.00000000000E+00 0. -1.
         21   -1    0    0  501  503 -0.00000000000E+00 -0.00000000000E+00 -0.30814974239E+03  0.30814974239E+03  0.00000000000E+00 0. -1.
          6    2    1    2  501    0 -0.11505876328E+03 -0.11507300797E+03 -0.19462821593E+03  0.30664412650E+03  0.17225028799E+03 0.  0.
         24    2    3    3    0    0 -0.42245097420E+02 -0.12028901407E+02 -0.14088118861E+03  0.16941894376E+03  0.83222151348E+02 0.  0.
         -6    2    1    2    0  502  0.11505876328E+03  0.11507300797E+03  0.19205602414E+03  0.30708316648E+03  0.17588131953E+03 0.  0.
        -24    2    5    5    0    0  0.54758081418E+02  0.14355116139E+03  0.13127780120E+03  0.21673240645E+03  0.78317887485E+02 0.  0.
          5    1    3    3  501    0 -0.72813665863E+02 -0.10304410656E+03 -0.53747027314E+02  0.13722518274E+03  0.47000000000E+01 0. -1.
        -11    1    4    4    0    0 -0.19924736403E+02  0.13420559164E+02  0.51364236702E+00  0.24028532154E+02  0.00000000000E+00 0.  1.
         12    1    4    4    0    0 -0.22320361016E+02 -0.25449460571E+02 -0.14139483098E+03  0.14539041161E+03  0.00000000000E+00 0. -1.
         -5    1    5    5    0  502  0.60300681864E+02 -0.28478153419E+02  0.60778222937E+02  0.90350760035E+02  0.47000000000E+01 0.  1.
         11    1    6    6    0    0  0.55535285622E+02  0.39906933056E+02  0.59617695383E+02  0.90724863504E+02  0.00000000000E+00 0. -1.
        -12    1    6    6    0    0 -0.77720420393E+00  0.10364422833E+03  0.71660105815E+02  0.12600754294E+03  0.00000000000E+00 0.  1.
</event>
<event>
12    1  0.8684423E-002  0.1904325E+03  0.7818608E-02  0.1158229E+00
         21   -1    0    0  501  502  0.00000000000E+00  0.00000000000E+00  0.19535078336E+02  0.19535078336E+02  0.00000000000E+00 0.  1.
         21   -1    0    0  502  503 -0.00000000000E+00 -0.00000000000E+00 -0.19422868528E+04  0.19422868528E+04  0.00000000000E+00 0. -1.
         -6    2    1    2    0  503 -0.41396723984E+02  0.70347826029E+02 -0.11773253919E+04  0.11926271875E+04  0.17205238913E+03 0.  0.
        -24    2    3    3    0    0 -0.21066806539E+02  0.10876385830E+03 -0.10292859168E+04  0.10382676292E+04  0.79352277523E+02 0.  0.
          6    2    1    2  501    0  0.41396723984E+02 -0.70347826029E+02 -0.74542638260E+03  0.76919474365E+03  0.17128209599E+03 0.  0.
         24    2    5    5    0    0  0.68494913253E+02 -0.68619736270E+02 -0.33083854492E+03  0.35369208024E+03  0.79017235272E+02 0.  0.
          5    1    5    5  501    0 -0.27098189270E+02 -0.17280897591E+01 -0.41458783767E+03  0.41550266341E+03  0.47000000000E+01 0. -1.
        -11    1    6    6    0    0  0.35405888157E+02 -0.51296910314E+02 -0.87076576001E+02  0.10708538655E+03  0.00000000000E+00 0.  1.
         12    1    6    6    0    0  0.33089025097E+02 -0.17322825956E+02 -0.24376196892E+03  0.24660669369E+03  0.00000000000E+00 0. -1.
         -5    1    3    3    0  503 -0.20329917445E+02 -0.38416032275E+02 -0.14803947502E+03  0.15435955831E+03  0.47000000000E+01 0.  1.
         11    1    4    4    0    0  0.26844979936E+02  0.67538123691E+02 -0.51126223459E+03  0.51640209490E+03  0.00000000000E+00 0. -1.
        -12    1    4    4    0    0 -0.47911786475E+02  0.41225734612E+02 -0.51802368225E+03  0.52186553426E+03  0.00000000000E+00 0.  1.
</event>
<event>
12    1  0.8684423E-002  0.4335473E+03  0.7818608E-02  0.1033326E+00
         21   -1    0    0  503  502  0.00000000000E+00  0.00000000000E+00  0.42999809582E+03  0.42999809582E+03  0.00000000000E+00 0.  1.
         21   -1    0    0  501  503 -0.00000000000E+00 -0.00000000000E+00 -0.11664035360E+04  0.11664035360E+04  0.00000000000E+00 0. -1.
          6    2    1    2  501    0 -0.15850527454E+03  0.36511966152E+03 -0.10036982806E+04  0.10933313871E+04  0.17183420561E+03 0.  0.
         24    2    3    3    0    0 -0.59050368157E+02  0.23920010018E+03 -0.48023555014E+03  0.54580756613E+03  0.81093043591E+02 0.  0.
         -6    2    1    2    0  502  0.15850527454E+03 -0.36511966152E+03  0.26729284043E+03  0.50307024473E+03  0.15230863174E+03 0.  0.
        -24    2    5    5    0    0  0.64421730746E+02 -0.16382359753E+03  0.17816114998E+03  0.26361593420E+03  0.82241321120E+02 0.  0.
          5    1    3    3  501    0 -0.99454906387E+02  0.12591956134E+03 -0.52346273045E+03  0.54752382095E+03  0.47000000000E+01 0. -1.
        -11    1    4    4    0    0 -0.27342479851E+02  0.53218378962E+02 -0.57957658813E+02  0.83300043690E+02  0.00000000000E+00 0.  1.
         12    1    4    4    0    0 -0.31707888307E+02  0.18598172122E+03 -0.42227789132E+03  0.46250752244E+03  0.00000000000E+00 0. -1.
         -5    1    5    5    0  502  0.94083543797E+02 -0.20129606399E+03  0.89131690448E+02  0.23945431053E+03  0.47000000000E+01 0.  1.
         13    1    6    6    0    0 -0.40098222071E+01  0.75492225664E+01  0.26532281992E+01  0.89503662141E+01  0.00000000000E+00 0. -1.
        -14    1    6    6    0    0  0.68431552954E+02 -0.17137282010E+03  0.17550792178E+03  0.25466556798E+03  0.00000000000E+00 0.  1.
</event>
<event>
12    1  0.8684423E-002  0.1933731E+03  0.7818608E-02  0.1155928E+00
         21   -1    0    0  501  502  0.00000000000E+00  0.00000000000E+00  0.91919366292E+02  0.91919366292E+02  0.00000000000E+00 0.  1.
         21   -1    0    0  502  503 -0.00000000000E+00 -0.00000000000E+00 -0.40829321718E+03  0.40829321718E+03  0.00000000000E+00 0.  1.
         -6    2    1    2    0  503  0.88500867842E+02  0.70401530611E+01 -0.18930325533E+03  0.27060837329E+03  0.17178824712E+03 0.  0.
        -24    2    3    3    0    0  0.84149296913E+02  0.47541499622E+02 -0.19112531275E+03  0.22956321357E+03  0.82638281042E+02 0.  0.
          6    2    1    2  501    0 -0.88500867842E+02 -0.70401530611E+01 -0.12707059556E+03  0.22960421019E+03  0.16937883491E+03 0.  0.
         24    2    5    5    0    0 -0.84845027191E+02  0.25508237437E+02 -0.24095460811E+02  0.12144353678E+03  0.79489575283E+02 0.  0.
          5    1    5    5  501    0 -0.36558406510E+01 -0.32548390498E+02 -0.10297513475E+03  0.10816067341E+03  0.47000000000E+01 0. -1.
        -13    1    6    6    0    0 -0.87675964540E+02  0.40878972556E+02 -0.34457626892E+02  0.10269125185E+03  0.00000000000E+00 0.  1.
         14    1    6    6    0    0  0.28309373490E+01 -0.15370735119E+02  0.10362166081E+02  0.18752284935E+02  0.00000000000E+00 0. -1.
         -5    1    3    3    0  503  0.43515709285E+01 -0.40501346561E+02  0.18220574204E+01  0.41045159715E+02  0.47000000000E+01 0.  1.
         13    1    4    4    0    0  0.30836909501E+02  0.60452484327E+02 -0.75069258230E+02  0.10119689412E+03  0.00000000000E+00 0. -1.
        -14    1    4    4    0    0  0.53312387412E+02 -0.12910984705E+02 -0.11605605452E+03  0.12836631945E+03  0.00000000000E+00 0.  1.
</event>
<event>
12    1  0.8684423E-002  0.1820117E+03  0.7818608E-02  0.1167112E+00
         21   -1    0    0  501  502  0.00000000000E+00  0.00000000000E+00  0.22518150100E+03  0.22518150100E+03  0.00000000000E+00 0.  1.
         21   -1    0    0  502  503 -0.00000000000E+00 -0.00000000000E+00 -0.14934344173E+03  0.14934344173E+03  0.00000000000E+00 0.  1.
         -6    2    1    2    0  503 -0.34692833895E+02  0.18436754022E+02 -0.14198874691E+00  0.18201172411E+03  0.17772096367E+03 0.  0.
        -24    2    3    3    0    0 -0.83824215599E+01  0.37177088600E+02  0.64628989421E+02  0.10948029954E+03  0.79728469227E+02 0.  0.
          6    2    1    2  501    0  0.34692833895E+02 -0.18436754022E+02  0.75980048015E+02  0.19251321862E+03  0.17246699692E+03 0.  0.
         24    2    5    5    0    0  0.21242251403E+02 -0.46550754366E+02  0.11296492725E+03  0.14392014837E+03  0.73032378713E+02 0.  0.
          5    1    5    5  501    0  0.13450582492E+02  0.28114000343E+02 -0.36984879238E+02  0.48593070256E+02  0.47000000000E+01 0. -1.
        -11    1    6    6    0    0  0.45239100430E+02 -0.45713606220E+02  0.90599014520E+02  0.11110576688E+03  0.00000000000E+00 0.  1.
         12    1    6    6    0    0 -0.23996849028E+02 -0.83714814622E+00  0.22365912732E+02  0.32814381491E+02  0.00000000000E+00 0. -1.
         -5    1    3    3    0  503 -0.26310412335E+02 -0.18740334578E+02 -0.64770978168E+02  0.72531424570E+02  0.47000000000E+01 0.  1.
         11    1    4    4    0    0 -0.37480676314E+02  0.21644064077E+02  0.81013326588E+01  0.44032921747E+02  0.00000000000E+00 0. -1.
        -12    1    4    4    0    0  0.29098254755E+02  0.15533024523E+02  0.56527656762E+02  0.65447377790E+02  0.00000000000E+00 0.  1.
</event>
<event>
12    1  0.8684423E-002  0.2185548E+03  0.7818608E-02  0.1135224E+00
         21   -1    0    0  503  502  0.00000000000E+00  0.00000000000E+00  0.11156131781E+03  0.11156131781E+03  0.00000000000E+00 0.  1.
         21   -1    0    0  501  503 -0.00000000000E+00 -0.00000000000E+00 -0.82243754848E+03  0.82243754848E+03  0.00000000000E+00 0. -1.
          6    2    1    2  501    0 -0.12500443640E+03  0.46128174877E+02 -0.67930229411E+03  0.71317516051E+03  0.17150301791E+03 0.  0.
         24    2    3    3    0    0 -0.69576874964E+02 -0.36980822309E+02 -0.27477265622E+03  0.29646706375E+03  0.78639586288E+02 0.  0.
         -6    2    1    2    0  502  0.12500443640E+03 -0.46128174877E+02 -0.31573936558E+02  0.22082370578E+03  0.17324052046E+03 0.  0.
        -24    2    5    5    0    0  0.69927612548E+02  0.36837574381E+02 -0.42460424489E+02  0.12053722766E+03  0.80495078862E+02 0.  0.
          5    1    3    3  501    0 -0.55427561434E+02  0.83108997186E+02 -0.40452963788E+03  0.41670809676E+03  0.47000000000E+01 0. -1.
        -13    1    4    4    0    0  0.10649098748E+01 -0.39089509362E+02 -0.75364293606E+02  0.84905244396E+02  0.00000000000E+00 0.  1.
         14    1    4    4    0    0 -0.70641784838E+02  0.21086870529E+01 -0.19940836262E+03  0.21156181935E+03  0.00000000000E+00 0. -1.
         -5    1    5    5    0  502  0.55076823849E+02 -0.82965749258E+02  0.10886487930E+02  0.10028647813E+03  0.47000000000E+01 0.  1.
         13    1    6    6    0    0  0.76648661051E+01  0.36827289312E+02 -0.44465221342E+02  0.58242212522E+02  0.00000000000E+00 0. -1.
        -14    1    6    6    0    0  0.62262746443E+02  0.10285068825E-01  0.20047968533E+01  0.62295015136E+02  0.00000000000E+00 0.  1.
</event>
<event>
12    1  0.8684423E-002  0.2026664E+03  0.7818608E-02  0.1147747E+00
         21   -1    0    0  501  502  0.00000000000E+00  0.00000000000E+00  0.65957565263E+02  0.65957565263E+02  0.00000000000E+00 0.  1.
         21   -1    0    0  502  503 -0.00000000000E+00 -0.00000000000E+00 -0.62252819090E+03  0.62252819090E+03  0.00000000000E+00 0.  1.
         -6    2    1    2    0  503  0.79653884854E+02  0.71685114674E+02 -0.25237029104E+03  0.32295666821E+03  0.17066560493E+03 0.  0.
        -24    2    3    3    0    0  0.10038130303E+03  0.22716875233E+02 -0.23201517821E+03  0.26582581003E+03  0.78992758796E+02 0.  0.
          6    2    1    2  501    0 -0.79653884854E+02 -0.71685114674E+02 -0.30420033460E+03  0.36552908795E+03  0.17201794537E+03 0.  0.
         24    2    5    5    0    0 -0.57929629030E+02 -0.72987742937E+02 -0.93749281007E+02  0.15390353163E+03  0.78830938211E+02 0.  0.
          5    1    5    5  501    0 -0.21724255824E+02  0.13026282621E+01 -0.21045105359E+03  0.21162555633E+03  0.47000000000E+01 0. -1.
        -11    1    6    6    0    0  0.11228238592E+02 -0.42283277328E+02 -0.50241523730E+02  0.66619513584E+02  0.00000000000E+00 0.  1.
         12    1    6    6    0    0 -0.69157867622E+02 -0.30704465608E+02 -0.43507757277E+02  0.87284018042E+02  0.00000000000E+00 0. -1.
         -5    1    3    3    0  503 -0.20727418171E+02  0.48968239442E+02 -0.20355112828E+02  0.57130858179E+02  0.47000000000E+01 0.  1.
         13    1    4    4    0    0  0.81695071891E+02  0.20448259596E+02 -0.92688291314E+02  0.12523312437E+03  0.00000000000E+00 0. -1.
        -14    1    4    4    0    0  0.18686231135E+02  0.22686156363E+01 -0.13932688689E+03  0.14059268566E+03  0.00000000000E+00 0.  1.
</event>
<event>
12    1  0.8684423E-002  0.1885338E+03  0.7818608E-02  0.1159830E+00
         21   -1    0    0  503  502  0.00000000000E+00  0.00000000000E+00  0.11205261844E+04  0.11205261844E+04  0.00000000000E+00 0.  1.
         21   -1    0    0  501  503 -0.00000000000E+00 -0.00000000000E+00 -0.96047373476E+02  0.96047373476E+02  0.00000000000E+00 0. -1.
          6    2    1    2  501    0 -0.76710588418E+02 -0.56381484999E+01  0.14244671572E+02  0.18889752551E+03  0.17193912115E+03 0.  0.
         24    2    3    3    0    0  0.14169934275E+02 -0.33649168076E+02  0.33834514888E+02  0.91687759620E+02  0.76998813737E+02 0.  0.
         -6    2    1    2    0  502  0.76710588418E+02  0.56381484999E+01  0.10102341393E+04  0.10276760323E+04  0.17212991633E+03 0.  0.
        -24    2    5    5    0    0  0.73557916429E+02  0.49436164993E+02  0.36633587932E+03  0.38226510524E+03  0.63796024365E+02 0.  0.
          5    1    3    3  501    0 -0.90880522693E+02  0.28011019576E+02 -0.19589843316E+02  0.97209765887E+02  0.47000000000E+01 0. -1.
        -11    1    4    4    0    0 -0.23771571421E+02 -0.26931044769E+01  0.35364145992E+02  0.42696173614E+02  0.00000000000E+00 0.  1.
         12    1    4    4    0    0  0.37941505696E+02 -0.30956063599E+02 -0.15296311041E+01  0.48991586006E+02  0.00000000000E+00 0. -1.
         -5    1    5    5    0  502  0.31526719891E+01 -0.43798016493E+02  0.64389825999E+03  0.64541092709E+03  0.47000000000E+01 0.  1.
         13    1    6    6    0    0  0.33448929767E+02  0.73942488810E+01  0.49826851767E+02  0.60466693113E+02  0.00000000000E+00 0. -1.
        -14    1    6    6    0    0  0.40108986662E+02  0.42041916112E+02  0.31650902756E+03  0.32179841213E+03  0.00000000000E+00 0.  1.
</event>
<event>
12    1  0.8684423E-002  0.1910603E+03  0.7818608E-02  0.1158627E+00
         21   -1    0    0  503  502  0.00000000000E+00  0.00000000000E+00  0.59820013306E+03  0.59820013306E+03  0.00000000000E+00 0. -1.
         21   -1    0    0  501  503 -0.00000000000E+00 -0.00000000000E+00 -0.26038493279E+03  0.26038493279E+03  0.00000000000E+00 0. -1.
          6    2    1    2  501    0 -0.40177039129E+02  0.72816103063E+02 -0.20869401681E+03  0.27964088708E+03  0.16652163144E+03 0.  0.
         24    2    3    3    0    0  0.72245725570E+01  0.75188983094E+01 -0.34043524525E+02  0.87194733069E+02  0.79594168333E+02 0.  0.
         -6    2    1    2    0  502  0.40177039129E+02 -0.72816103063E+02  0.54650921708E+03  0.57894417877E+03  0.17201063467E+03 0.  0.
        -24    2    5    5    0    0 -0.54352495050E+01 -0.69359884589E+02  0.50852935169E+03  0.51930370178E+03  0.78955035471E+02 0.  0.
          5    1    3    3  501    0 -0.47401611686E+02  0.65297204754E+02 -0.17465049229E+03  0.19244615402E+03  0.47000000000E+01 0. -1.
        -11    1    4    4    0    0 -0.14335137254E+02 -0.25805090991E+02 -0.37072043706E+02  0.47389189756E+02  0.00000000000E+00 0.  1.
         12    1    4    4    0    0  0.21559709811E+02  0.33323989301E+02  0.30285191811E+01  0.39805543314E+02  0.00000000000E+00 0. -1.
         -5    1    5    5    0  502  0.45612288634E+02 -0.34562184742E+01  0.37979865394E+02  0.59640476992E+02  0.47000000000E+01 0.  1.
         11    1    6    6    0    0 -0.95935846801E+01 -0.72608975505E+02  0.24479407236E+03  0.25551563172E+03  0.00000000000E+00 0. -1.
        -12    1    6    6    0    0  0.41583351751E+01  0.32490909159E+01  0.26373527933E+03  0.26378807006E+03  0.00000000000E+00 0.  1.
</event>
<event>
12    1  0.8684423E-002  0.2033701E+03  0.7818608E-02  0.1147262E+00
         21   -1    0    0  501  502  0.00000000000E+00  0.00000000000E+00  0.64549238459E+03  0.64549238459E+03  0.00000000000E+00 0. -1.
         21   -1    0    0  502  503 -0.00000000000E+00 -0.00000000000E+00 -0.14020314633E+03  0.14020314633E+03  0.00000000000E+00 0. -1.
         -6    2    1    2    0  503 -0.10522163937E+03  0.50494623262E+01 -0.37344464641E+02  0.20677043356E+03  0.17396066421E+03 0.  0.
        -24    2    3    3    0    0 -0.14916408277E+02  0.11320086134E+02 -0.70723910562E+02  0.11017523235E+03  0.82377586224E+02 0.  0.
          6    2    1    2  501    0  0.10522163937E+03 -0.50494623262E+01  0.54263370290E+03  0.57892509736E+03  0.17206348355E+03 0.  0.
         24    2    5    5    0    0  0.24490913783E+02  0.98639848583E+01  0.43678537728E+03  0.44488846432E+03  0.80294313765E+02 0.  0.
          5    1    5    5  501    0  0.80730725589E+02 -0.14913447185E+02  0.10584832562E+03  0.13403663304E+03  0.47000000000E+01 0. -1.
        -11    1    6    6    0    0 -0.29312336879E+02  0.81170179029E+01  0.17537159044E+03  0.17798958904E+03  0.00000000000E+00 0.  1.
         12    1    6    6    0    0  0.53803250662E+02  0.17469669554E+01  0.26141378685E+03  0.26689887529E+03  0.00000000000E+00 0. -1.
         -5    1    3    3    0  503 -0.90305231095E+02 -0.62706238081E+01  0.33379445921E+02  0.96595201206E+02  0.47000000000E+01 0.  1.
         11    1    4    4    0    0  0.24958479744E+02  0.44959626338E+01  0.35413895670E+01  0.25606265467E+02  0.00000000000E+00 0. -1.
        -12    1    4    4    0    0 -0.39874888020E+02  0.68241235006E+01 -0.74265300129E+02  0.84568966882E+02  0.00000000000E+00 0.  1.
</event>
<event>
12    1  0.8684423E-002  0.2294852E+03  0.7818608E-02  0.1127287E+00
         21   -1    0    0  501  502  0.00000000000E+00  0.00000000000E+00  0.20465125425E+03  0.20465125425E+03  0.00000000000E+00 0.  1.
         21   -1    0    0  502  503 -0.00000000000E+00 -0.00000000000E+00 -0.29622404860E+03  0.29622404860E+03  0.00000000000E+00 0.  1.
         -6    2    1    2    0  503 -0.11580816975E+03 -0.95523747930E+02 -0.13846299770E+03  0.26664858778E+03  0.17144430301E+03 0.  0.
        -24    2    3    3    0    0 -0.27642555409E+01 -0.41929998581E+02 -0.14329026848E+02  0.90346150965E+02  0.78685069067E+02 0.  0.
          6    2    1    2  501    0  0.11580816975E+03  0.95523747930E+02  0.46890203347E+02  0.23422671507E+03  0.17357172662E+03 0.  0.
         24    2    5    5    0    0  0.14134639775E+03  0.11137352479E+03  0.51024167170E+02  0.20352498591E+03  0.80225233409E+02 0.  0.
          5    1    5    5  501    0 -0.25538228002E+02 -0.15849776861E+02 -0.41339638231E+01  0.30701729152E+02  0.47000000000E+01 0. -1.
        -13    1    6    6    0    0  0.64806284511E+02  0.92621380782E+02  0.70024697309E+01  0.11325903616E+03  0.00000000000E+00 0.  1.
         14    1    6    6    0    0  0.76540113237E+02  0.18752144009E+02  0.44021697439E+02  0.90265949753E+02  0.00000000000E+00 0. -1.
         -5    1    3    3    0  503 -0.11304391420E+03 -0.53593749349E+02 -0.12413397085E+03  0.17630243682E+03  0.47000000000E+01 0.  1.
         13    1    4    4    0    0 -0.18626797727E+02 -0.29021036182E+02  0.27288227520E+02  0.43975282783E+02  0.00000000000E+00 0. -1.
        -14    1    4    4    0    0  0.15862542186E+02 -0.12908962398E+02 -0.41617254368E+02  0.46370868182E+02  0.00000000000E+00 0.  1.
</event>
<event>
12    1  0.8684423E-002  0.1872193E+03  0.7818608E-02  0.1164444E+00
         21   -1    0    0  503  502  0.00000000000E+00  0.00000000000E+00  0.28266590218E+03  0.28266590218E+03  0.00000000000E+00 0. -1.
         21   -1    0    0  501  503 -0.00000000000E+00 -0.00000000000E+00 -0.15017540540E+03  0.15017540540E+03  0.00000000000E+00 0. -1.
          6    2    1    2  501    0 -0.26759256648E+01  0.11599411472E+02  0.16941108440E+03  0.24201623391E+03  0.17242399785E+03 0.  0.
         24    2    3    3    0    0  0.18824896114E+02 -0.41695398996E+01  0.14676052911E+02  0.84930381161E+02  0.81400376771E+02 0.  0.
         -6    2    1    2    0  502  0.26759256648E+01 -0.11599411472E+02 -0.36920587621E+02  0.19082507367E+03  0.18684049890E+03 0.  0.
        -24    2    5    5    0    0  0.33509061629E+02 -0.37812980242E+02  0.40275637815E+02  0.10353715537E+03  0.80902020086E+02 0.  0.
          5    1    3    3  501    0 -0.21500821779E+02  0.15768951372E+02  0.15473503149E+03  0.15708585275E+03  0.47000000000E+01 0. -1.
        -13    1    4    4    0    0 -0.28742863679E+02  0.18960710939E+01  0.22230526228E+02  0.36386035707E+02  0.00000000000E+00 0.  1.
         14    1    4    4    0    0  0.47567759793E+02 -0.60656109935E+01 -0.75544733168E+01  0.48544345454E+02  0.00000000000E+00 0. -1.
         -5    1    5    5    0  502 -0.30833135964E+02  0.26213568770E+02 -0.77196225436E+02  0.87287918308E+02  0.47000000000E+01 0.  1.
         11    1    6    6    0    0  0.80818644175E+01 -0.53644578440E+02  0.11496093462E+01  0.54262131640E+02  0.00000000000E+00 0. -1.
        -12    1    6    6    0    0  0.25427197211E+02  0.15831598198E+02  0.39126028469E+02  0.49275023727E+02  0.00000000000E+00 0.  1.
</event>
<event>
12    1  0.8684423E-002  0.1977685E+03  0.7818608E-02  0.1151673E+00
         21   -1    0    0  503  502  0.00000000000E+00  0.00000000000E+00  0.52565944054E+03  0.52565944054E+03  0.00000000000E+00 0.  1.
         21   -1    0    0  501  503 -0.00000000000E+00 -0.00000000000E+00 -0.89392565484E+02  0.89392565484E+02  0.00000000000E+00 0.  1.
          6    2    1    2  501    0 -0.49669160592E+02  0.83959741933E+02  0.92024452778E+02  0.21813045708E+03  0.17203526562E+03 0.  0.
         24    2    3    3    0    0 -0.89921095164E+02  0.69765020801E+02  0.10288223049E+03  0.17383949094E+03  0.81746276833E+02 0.  0.
         -6    2    1    2    0  502  0.49669160592E+02 -0.83959741933E+02  0.34424242228E+03  0.39692154895E+03  0.17183598849E+03 0.  0.
        -24    2    5    5    0    0 -0.22451592362E+02 -0.21771238702E+02  0.22723523707E+03  0.24598585293E+03  0.88854521788E+02 0.  0.
          5    1    3    3  501    0  0.40251934572E+02  0.14194721132E+02 -0.10857777713E+02  0.44290966141E+02  0.47000000000E+01 0. -1.
        -13    1    4    4    0    0 -0.78060129976E+02  0.14895048723E+02  0.38135694484E+02  0.88145207255E+02  0.00000000000E+00 0.  1.
         14    1    4    4    0    0 -0.11860965188E+02  0.54869972078E+02  0.64746536007E+02  0.85694283683E+02  0.00000000000E+00 0. -1.
         -5    1    5    5    0  502  0.72120752954E+02 -0.62188503231E+02  0.11700718521E+03  0.15093569602E+03  0.47000000000E+01 0.  1.
         11    1    6    6    0    0 -0.44924364071E+02  0.18094669704E+02  0.11770211620E+03  0.12727687817E+03  0.00000000000E+00 0. -1.
        -12    1    6    6    0    0  0.22472771709E+02 -0.39865908407E+02  0.10953312087E+03  0.11870897476E+03  0.00000000000E+00 0.  1.
</event>
<event>
12    1  0.8684423E-002  0.1874013E+03  0.7818608E-02  0.1161187E+00
         21   -1    0    0  501  502  0.00000000000E+00  0.00000000000E+00  0.88403361820E+03  0.88403361820E+03  0.00000000000E+00 0. -1.
         21   -1    0    0  502  503 -0.00000000000E+00 -0.00000000000E+00 -0.39627261015E+02  0.39627261015E+02  0.00000000000E+00 0. -1.
         -6    2    1    2    0  503 -0.39287410486E+02 -0.62070773819E+02  0.45932421926E+03  0.49608265810E+03  0.17240354892E+03 0.  0.
        -24    2    3    3    0    0  0.21138281682E+02 -0.15755106667E+02  0.36403865942E+03  0.37402597778E+03  0.81708238009E+02 0.  0.
          6    2    1    2  501    0  0.39287410486E+02  0.62070773819E+02  0.38508213792E+03  0.42757822111E+03  0.17070032408E+03 0.  0.
         24    2    5    5    0    0 -0.39067714427E+02  0.14616568110E+02  0.22582157529E+03  0.24379181234E+03  0.81848234706E+02 0.  0.
          5    1    5    5  501    0  0.78355124913E+02  0.47454205709E+02  0.15926056263E+03  0.18378640877E+03  0.47000000000E+01 0. -1.
        -11    1    6    6    0    0 -0.39564798875E+02 -0.21546727865E+02  0.17925795177E+03  0.18483248650E+03  0.00000000000E+00 0.  1.
         12    1    6    6    0    0  0.49708444825E+00  0.36163295975E+02  0.46563623518E+02  0.58959325843E+02  0.00000000000E+00 0. -1.
         -5    1    3    3    0  503 -0.60425692168E+02 -0.46315667152E+02  0.95285559837E+02  0.12205668032E+03  0.47000000000E+01 0.  1.
         11    1    4    4    0    0 -0.29053777512E+02  0.75593383616E+01  0.14775668543E+03  0.15077567335E+03  0.00000000000E+00 0. -1.
        -12    1    4    4    0    0  0.50192059195E+02 -0.23314445029E+02  0.21628197400E+03  0.22325030443E+03  0.00000000000E+00 0.  1.
</event>
<event>
12    1  0.8684423E-002  0.2241485E+03  0.7818608E-02  0.1131025E+00
         21   -1    0    0  503  502  0.00000000000E+00  0.00000000000E+00  0.74898171739E+03  0.74898171739E+03  0.00000000000E+00 0.  1.
         21   -1    0    0  501  503 -0.00000000000E+00 -0.00000000000E+00 -0.76264518314E+02  0.76264518314E+02  0.00000000000E+00 0.  1.
          6    2    1    2  501    0 -0.12865490659E+03  0.62014886099E+02  0.19138942489E+03  0.29474131430E+03  0.17275589515E+03 0.  0.
         24    2    3    3    0    0  0.66434338815E+00 -0.25715850713E+01  0.58436047799E+02  0.98288848926E+02  0.78986528845E+02 0.  0.
         -6    2    1    2    0  502  0.12865490659E+03 -0.62014886099E+02  0.48132777418E+03  0.53050492140E+03  0.17135085160E+03 0.  0.
        -24    2    5    5    0    0  0.74889021593E+02  0.21296115701E+02  0.16591891580E+03  0.19984447418E+03  0.79667039236E+02 0.  0.
          5    1    3    3  501    0 -0.12931924997E+03  0.64586471170E+02  0.13295337709E+03  0.19645246538E+03  0.47000000000E+01 0. -1.
        -13    1    4    4    0    0 -0.27670446835E+02 -0.14077066324E+02 -0.14147009557E+01  0.31077625442E+02  0.00000000000E+00 0.  1.
         14    1    4    4    0    0  0.28334790223E+02  0.11505481252E+02  0.59850748754E+02  0.67211223484E+02  0.00000000000E+00 0. -1.
         -5    1    5    5    0  502  0.53765884993E+02 -0.83311001800E+02  0.31540885838E+03  0.33066044722E+03  0.47000000000E+01 0.  1.
         11    1    6    6    0    0  0.28331357440E+01  0.16991918770E+02 -0.17325597170E+01  0.17313397264E+02  0.00000000000E+00 0. -1.
        -12    1    6    6    0    0  0.72055885849E+02  0.43041969305E+01  0.16765147552E+03  0.18253107692E+03  0.00000000000E+00 0.  1.
</event>
<event>
12    1  0.8684423E-002  0.1915271E+03  0.7818608E-02  0.1159448E+00
         21   -1    0    0  503  502  0.00000000000E+00  0.00000000000E+00  0.57511639659E+03  0.57511639659E+03  0.00000000000E+00 0. -1.
         21   -1    0    0  501  503 -0.00000000000E+00 -0.00000000000E+00 -0.60844448118E+02  0.60844448118E+02  0.00000000000E+00 0.  1.
          6    2    1    2  501    0  0.35725653341E+01  0.57383156381E+02  0.29090127589E+03  0.34829038698E+03  0.18269387371E+03 0.  0.
         24    2    3    3    0    0  0.46102229678E+02  0.28983922570E+02  0.67764098360E+02  0.11931969273E+03  0.81729631702E+02 0.  0.
         -6    2    1    2    0  502 -0.35725653341E+01 -0.57383156381E+02  0.22337067258E+03  0.28767045773E+03  0.17191348120E+03 0.  0.
        -24    2    5    5    0    0 -0.62679908345E+02 -0.36720381998E+02  0.10098280833E+03  0.15011498688E+03  0.84022760864E+02 0.  0.
          5    1    3    3  501    0 -0.42529664344E+02  0.28399233811E+02  0.22313717753E+03  0.22897069425E+03  0.47000000000E+01 0. -1.
        -11    1    4    4    0    0  0.12236116191E+02  0.53593021194E+02  0.48199801986E+02  0.73110569493E+02  0.00000000000E+00 0.  1.
         12    1    4    4    0    0  0.33866113487E+02 -0.24609098624E+02  0.19564296374E+02  0.46209123238E+02  0.00000000000E+00 0. -1.
         -5    1    5    5    0  502  0.59107343011E+02 -0.20662774383E+02  0.12238786426E+03  0.13755547085E+03  0.47000000000E+01 0.  1.
         11    1    6    6    0    0 -0.19185857182E+02  0.21855995633E+02  0.59402932039E+02  0.66139927395E+02  0.00000000000E+00 0. -1.
        -12    1    6    6    0    0 -0.43494051163E+02 -0.58576377631E+02  0.41579876287E+02  0.83975059482E+02  0.00000000000E+00 0.  1.
</event>
<event>
12    1  0.8684423E-002  0.1958606E+03  0.7818608E-02  0.1154523E+00
         21   -1    0    0  503  502  0.00000000000E+00  0.00000000000E+00  0.11448708653E+04  0.11448708653E+04  0.00000000000E+00 0. -1.
         21   -1    0    0  501  503 -0.00000000000E+00 -0.00000000000E+00 -0.35191364951E+02  0.35191364951E+02  0.00000000000E+00 0. -1.
          6    2    1    2  501    0  0.68533994750E+02 -0.53411884729E+02  0.38562090391E+03  0.42998074531E+03  0.16920467468E+03 0.  0.
         24    2    3    3    0    0 -0.26259176507E+02 -0.11119482117E+02  0.17292240786E+03  0.19325910950E+03  0.81447756456E+02 0.  0.
         -6    2    1    2    0  502 -0.68533994750E+02  0.53411884729E+02  0.72405859644E+03  0.75008148495E+03  0.17553246171E+03 0.  0.
        -24    2    5    5    0    0 -0.99615091182E+02  0.45432644604E+01  0.59236094714E+03  0.60613518443E+03  0.81021987510E+02 0.  0.
          5    1    3    3  501    0  0.94793171257E+02 -0.42292402612E+02  0.21269849606E+03  0.23672163581E+03  0.47000000000E+01 0. -1.
        -11    1    4    4    0    0 -0.48173488228E+02  0.79501280664E+00  0.56772338714E+02  0.74460831693E+02  0.00000000000E+00 0.  1.
         12    1    4    4    0    0  0.21914311721E+02 -0.11914494924E+02  0.11615006914E+03  0.11879827781E+03  0.00000000000E+00 0. -1.
         -5    1    5    5    0  502  0.31081096432E+02  0.48868620268E+02  0.13169764930E+03  0.14394630052E+03  0.47000000000E+01 0.  1.
         13    1    6    6    0    0 -0.26970617933E+02 -0.27691112353E+02  0.32268927027E+03  0.32499627241E+03  0.00000000000E+00 0. -1.
        -14    1    6    6    0    0 -0.72644473249E+02  0.32234376814E+02  0.26967167687E+03  0.28113891201E+03  0.00000000000E+00 0.  1.
</event>
<event>
12    1  0.8684423E-002  0.2729731E+03  0.7818608E-02  0.1099688E+00
         21   -1    0    0  501  502  0.00000000000E+00  0.00000000000E+00  0.80553294930E+02  0.80553294930E+02  0.00000000000E+00 0. -1.
         21   -1    0    0  502  503 -0.00000000000E+00 -0.00000000000E+00 -0.10626870854E+04  0.10626870854E+04  0.00000000000E+00 0. -1.
         -6    2    1    2    0  503  0.20658766782E+03  0.45314906124E+02 -0.69908161634E+03  0.75048610488E+03  0.17257572859E+03 0.  0.
        -24    2    3    3    0    0  0.85350553184E+02  0.30740199816E+01 -0.50667171361E+03  0.51912839246E+03  0.74053331851E+02 0.  0.
          6    2    1    2  501    0 -0.20658766782E+03 -0.45314906124E+02 -0.28305217413E+03  0.39275427545E+03  0.17148026823E+03 0.  0.
         24    2    5    5    0    0 -0.24750745638E+02  0.50385367939E+01 -0.85076793114E+02  0.11922826760E+03  0.79619927192E+02 0.  0.
          5    1    5    5  501    0 -0.18183692218E+03 -0.50353442918E+02 -0.19797538102E+03  0.27352600785E+03  0.47000000000E+01 0. -1.
        -13    1    6    6    0    0  0.80969173769E+00  0.34933332667E+00  0.15410192171E+02  0.15435402723E+02  0.00000000000E+00 0.  1.
         14    1    6    6    0    0 -0.25560437376E+02  0.46892034673E+01 -0.10048698528E+03  0.10379286488E+03  0.00000000000E+00 0. -1.
         -5    1    3    3    0  503  0.12123711463E+03  0.42240886143E+02 -0.19240990273E+03  0.23135771242E+03  0.47000000000E+01 0.  1.
         13    1    4    4    0    0  0.32327534964E+02  0.26186517680E+02 -0.34345828989E+03  0.34596878489E+03  0.00000000000E+00 0. -1.
        -14    1    4    4    0    0  0.53023018220E+02 -0.23112497698E+02 -0.16321342372E+03  0.17315960757E+03  0.00000000000E+00 0.  1.
</event>
<event>
12    1  0.8684423E-002  0.1857709E+03  0.7818608E-02  0.1162919E+00
         21   -1    0    0  501  502  0.00000000000E+00  0.00000000000E+00  0.10386372128E+04  0.10386372128E+04  0.00000000000E+00 0.  1.
         21   -1    0    0  502  503 -0.00000000000E+00 -0.00000000000E+00 -0.74461354584E+02  0.74461354584E+02  0.00000000000E+00 0.  1.
         -6    2    1    2    0  503 -0.25756508444E+02 -0.63616518212E+02  0.67135442263E+02  0.19752972411E+03  0.17262782273E+03 0.  0.
        -24    2    3    3    0    0 -0.36151650513E+02 -0.10632131707E+03  0.68685346035E+02  0.15330019748E+03  0.78562774185E+02 0.  0.
          6    2    1    2  501    0  0.25756508444E+02  0.63616518212E+02  0.89704041594E+03  0.91556884327E+03  0.16992451208E+03 0.  0.
         24    2    5    5    0    0  0.24950502534E+02  0.51349594221E+02  0.89704440319E+03  0.90240764706E+03  0.79947431310E+02 0.  0.
          5    1    5    5  501    0  0.80600591084E+00  0.12266923991E+02 -0.39872445132E-02  0.13161196208E+02  0.47000000000E+01 0. -1.
        -13    1    6    6    0    0 -0.24653829602E+02  0.39432683127E+02  0.37368811930E+03  0.37657078793E+03  0.00000000000E+00 0.  1.
         14    1    6    6    0    0  0.49604332136E+02  0.11916911094E+02  0.52335628389E+03  0.52583685913E+03  0.00000000000E+00 0. -1.
         -5    1    3    3    0  503  0.10395142068E+02  0.42704798861E+02 -0.15499037716E+01  0.44229526632E+02  0.47000000000E+01 0.  1.
         13    1    4    4    0    0  0.11783093229E+02 -0.64273272319E+02  0.60431354194E+02  0.89004738022E+02  0.00000000000E+00 0. -1.
        -14    1    4    4    0    0 -0.47934743741E+02 -0.42048044754E+02  0.82539918403E+01  0.64295459455E+02  0.00000000000E+00 0.  1.
</event>
<event>
12    1  0.8684423E-002  0.2175476E+03  0.7818608E-02  0.1135775E+00
         21   -1    0    0  503  502  0.00000000000E+00  0.00000000000E+00  0.11067344843E+03  0.11067344843E+03  0.00000000000E+00 0. -1.
         21   -1    0    0  501  503 -0.00000000000E+00 -0.00000000000E+00 -0.50962471836E+03  0.50962471836E+03  0.00000000000E+00 0. -1.
          6    2    1    2  501    0  0.13228365606E+03 -0.91059643151E+01 -0.32438336120E+03  0.39057844984E+03  0.17246760916E+03 0.  0.
         24    2    3    3    0    0  0.54592460982E+02 -0.65185968142E+02 -0.21836970012E+03  0.24760336475E+03  0.79953443102E+02 0.  0.
         -6    2    1    2    0  502 -0.13228365606E+03  0.91059643151E+01 -0.74567908725E+02  0.22971971695E+03  0.17213044790E+03 0.  0.
        -24    2    5    5    0    0 -0.18284295710E+02  0.51601287747E+02 -0.34254692452E+02  0.10146624884E+03  0.78262426059E+02 0.  0.
          5    1    3    3  501    0  0.77691195082E+02  0.56080003827E+02 -0.10601366108E+03  0.14297508510E+03  0.47000000000E+01 0. -1.
        -13    1    4    4    0    0  0.17387948347E+02  0.15217452207E+02 -0.80265047547E+02  0.83524783490E+02  0.00000000000E+00 0.  1.
         14    1    4    4    0    0  0.37204512635E+02 -0.80403420349E+02 -0.13810465258E+03  0.16407858126E+03  0.00000000000E+00 0. -1.
         -5    1    5    5    0  502 -0.11399936035E+03 -0.42495323432E+02 -0.40313216273E+02  0.12825346811E+03  0.47000000000E+01 0.  1.
         11    1    6    6    0    0 -0.48912355491E+02  0.37991143970E+02 -0.20504011572E+02  0.65239252221E+02  0.00000000000E+00 0. -1.
        -12    1    6    6    0    0  0.30628059781E+02  0.13610143777E+02 -0.13750680880E+02  0.36226996622E+02  0.00000000000E+00 0.  1.
</event>
<event>
12    1  0.8684423E-002  0.1935788E+03  0.7818608E-02  0.1155737E+00
         21   -1    0    0  503  502  0.00000000000E+00  0.00000000000E+00  0.12112384275E+04  0.12112384275E+04  0.00000000000E+00 0.  1.
         21   -1    0    0  501  503 -0.00000000000E+00 -0.00000000000E+00 -0.21520038854E+03  0.21520038854E+03  0.00000000000E+00 0. -1.
          6    2    1    2  501    0 -0.82877802877E+02  0.16320630701E+02 -0.16215678452E+03  0.25252244782E+03  0.17417712447E+03 0.  0.
         24    2    3    3    0    0 -0.99795830370E+02  0.62182210721E+02 -0.13734632073E+03  0.19750287594E+03  0.79482948462E+02 0.  0.
         -6    2    1    2    0  502  0.82877802877E+02 -0.16320630701E+02  0.11581948235E+04  0.11739163683E+04  0.17184090670E+03 0.  0.
        -24    2    5    5    0    0  0.74978563466E+02 -0.16760087174E+02  0.37086437608E+03  0.38653214528E+03  0.77227122124E+02 0.  0.
          5    1    3    3  501    0  0.16918027493E+02 -0.45861580020E+02 -0.24810463795E+02  0.55019571881E+02  0.47000000000E+01 0. -1.
        -13    1    4    4    0    0 -0.13955854882E+02 -0.19101186597E+02 -0.24948885600E+02  0.34381217366E+02  0.00000000000E+00 0.  1.
         14    1    4    4    0    0 -0.85839975488E+02  0.81283397318E+02 -0.11239743513E+03  0.16312165857E+03  0.00000000000E+00 0. -1.
         -5    1    5    5    0  502  0.78992394109E+01  0.43945647332E+00  0.78733044746E+03  0.78738422298E+03  0.47000000000E+01 0.  1.
         11    1    6    6    0    0  0.50910974858E+02 -0.46774824255E+02  0.26583876610E+03  0.27468174513E+03  0.00000000000E+00 0. -1.
        -12    1    6    6    0    0  0.24067588608E+02  0.30014737081E+02  0.10502560998E+03  0.11185040016E+03  0.00000000000E+00 0.  1.
</event>
<event>
12    1  0.8684423E-002  0.1877338E+03  0.7818608E-02  0.1160758E+00
         21   -1    0    0  503  502  0.00000000000E+00  0.00000000000E+00  0.10731895399E+04  0.10731895399E+04  0.00000000000E+00 0. -1.
         21   -1    0    0  501  503 -0.00000000000E+00 -0.00000000000E+00 -0.33471101717E+02  0.33471101717E+02  0.00000000000E+00 0.  1.
          6    2    1    2  501    0  0.73435275228E+02  0.75366006463E+00  0.60735068905E+03  0.63570340685E+03  0.17277341907E+03 0.  0.
         24    2    3    3    0    0  0.73611992544E+02 -0.61217282454E+02  0.41518367240E+03  0.43373637679E+03  0.81138656630E+02 0.  0.
         -6    2    1    2    0  502 -0.73435275228E+02 -0.75366006463E+00  0.43236774918E+03  0.47095723481E+03  0.17165529075E+03 0.  0.
        -24    2    5    5    0    0 -0.29145768765E+01  0.16548697097E+02  0.93429399741E+02  0.12429625463E+03  0.80238095977E+02 0.  0.
          5    1    3    3  501    0 -0.17671731610E+00  0.61970942519E+02  0.19216701665E+03  0.20196703007E+03  0.47000000000E+01 0. -1.
        -11    1    4    4    0    0  0.12163264226E+02 -0.12758054827E+02  0.84594997017E+01  0.19551882129E+02  0.00000000000E+00 0.  1.
         12    1    4    4    0    0  0.61448728318E+02 -0.48459227627E+02  0.40672417270E+03  0.41418449466E+03  0.00000000000E+00 0. -1.
         -5    1    5    5    0  502 -0.70520698351E+02 -0.17302357161E+02  0.33893834944E+03  0.34666098018E+03  0.47000000000E+01 0.  1.
         11    1    6    6    0    0  0.15011221317E+02 -0.95079290239E+01  0.90841814215E+02  0.92563344201E+02  0.00000000000E+00 0. -1.
        -12    1    6    6    0    0 -0.17925798193E+02  0.26056626121E+02  0.25875855252E+01  0.31732910432E+02  0.00000000000E+00 0.  1.
</event>
<event>
12    1  0.8684423E-002  0.1787573E+03  0.7818608E-02  0.1169791E+00
         21   -1    0    0  501  502  0.00000000000E+00  0.00000000000E+00  0.10961077945E+03  0.10961077945E+03  0.00000000000E+00 0.  1.
         21   -1    0    0  502  503 -0.00000000000E+00 -0.00000000000E+00 -0.41410638654E+03  0.41410638654E+03  0.00000000000E+00 0.  1.
         -6    2    1    2    0  503 -0.37174078643E+02 -0.26383671856E+02 -0.29861068429E+03  0.34802657332E+03  0.17284717151E+03 0.  0.
        -24    2    3    3    0    0  0.15563947798E+02 -0.30171085075E+02 -0.64341976579E+02  0.10781924341E+03  0.79577436833E+02 0.  0.
          6    2    1    2  501    0  0.37174078643E+02  0.26383671856E+02 -0.58849228049E+01  0.17569059267E+03  0.16957164201E+03 0.  0.
         24    2    5    5    0    0  0.51633559209E+02  0.71532408304E+02  0.24482813671E+02  0.11919480168E+03  0.76322229445E+02 0.  0.
          5    1    5    5  501    0 -0.14459480566E+02 -0.45148736448E+02 -0.30367736476E+02  0.56495790992E+02  0.47000000000E+01 0. -1.
        -13    1    6    6    0    0 -0.18137709966E+02  0.76338823672E+01  0.13687680863E+02  0.23970925935E+02  0.00000000000E+00 0.  1.
         14    1    6    6    0    0  0.69771269175E+02  0.63898525937E+02  0.10795132808E+02  0.95223875743E+02  0.00000000000E+00 0. -1.
         -5    1    3    3    0  503 -0.52738026441E+02  0.37874132188E+01 -0.23426870771E+03  0.24020732991E+03  0.47000000000E+01 0.  1.
         13    1    4    4    0    0  0.70669001521E+01  0.57018379261E+01 -0.69943619506E+02  0.70530574526E+02  0.00000000000E+00 0. -1.
        -14    1    4    4    0    0  0.84970476458E+01 -0.35872923001E+02  0.56016429264E+01  0.37288668879E+02  0.00000000000E+00 0.  1.
</event>
<event>
12    1  0.8684423E-002  0.2189408E+03  0.7818608E-02  0.1134745E+00
         21   -1    0    0  501  502  0.00000000000E+00  0.00000000000E+00  0.18688687582E+03  0.18688687582E+03  0.00000000000E+00 0. -1.
         21   -1    0    0  502  503 -0.00000000000E+00 -0.00000000000E+00 -0.25764399909E+03  0.25764399909E+03  0.00000000000E+00 0.  1.
         -6    2    1    2    0  503  0.11978032974E+03  0.69806175292E+02 -0.52843047075E+02  0.22522757613E+03  0.16945454825E+03 0.  0.
        -24    2    3    3    0    0 -0.27394759850E+01  0.15387997182E+02 -0.35175174109E+02  0.89925378663E+02  0.81271062920E+02 0.  0.
          6    2    1    2  501    0 -0.11978032974E+03 -0.69806175292E+02 -0.17914076193E+02  0.21930329878E+03  0.16897571787E+03 0.  0.
         24    2    5    5    0    0 -0.53859096920E+02 -0.47955793122E+02 -0.70506496321E+02  0.13206167573E+03  0.85255848824E+02 0.  0.
          5    1    5    5  501    0 -0.65921232820E+02 -0.21850382170E+02  0.52592420128E+02  0.87241623050E+02  0.47000000000E+01 0. -1.
        -11    1    6    6    0    0 -0.69234618000E+02 -0.23153065498E+02 -0.23424453989E+02  0.76669432085E+02  0.00000000000E+00 0.  1.
         12    1    6    6    0    0  0.15375521080E+02 -0.24802727624E+02 -0.47082042332E+02  0.55392243647E+02  0.00000000000E+00 0. -1.
         -5    1    3    3    0  503  0.12251980572E+03  0.54418178111E+02 -0.17667872965E+02  0.13530219746E+03  0.47000000000E+01 0.  1.
         11    1    4    4    0    0  0.28160268194E+02  0.15725453004E+02  0.11247363280E+02  0.34158362924E+02  0.00000000000E+00 0. -1.
        -12    1    4    4    0    0 -0.30899744179E+02 -0.33745582248E+00 -0.46422537389E+02  0.55767015739E+02  0.00000000000E+00 0.  1.
</event>
<event>
12    1  0.8684423E-002  0.1916874E+03  0.7818608E-02  0.1157223E+00
         21   -1    0    0  503  502  0.00000000000E+00  0.00000000000E+00  0.24686296550E+03  0.24686296550E+03  0.00000000000E+00 0.  1.
         21   -1    0    0  501  503 -0.00000000000E+00 -0.00000000000E+00 -0.17060167583E+03  0.17060167583E+03  0.00000000000E+00 0.  1.
          6    2    1    2  501    0  0.35136213613E+02  0.75894564814E+02 -0.38135006342E+02  0.19423703098E+03  0.17111167996E+03 0.  0.
         24    2    3    3    0    0  0.31328353417E+02 -0.13432069363E+02 -0.11530047569E+02  0.10083648920E+03  0.94197501787E+02 0.  0.
         -6    2    1    2    0  502 -0.35136213613E+02 -0.75894564814E+02  0.11439629602E+03  0.22322761035E+03  0.17248047717E+03 0.  0.
        -24    2    5    5    0    0 -0.77816196855E+02 -0.28458370321E+02  0.33773664340E+02  0.12030107220E+03  0.80414229053E+02 0.  0.
          5    1    3    3  501    0  0.38078601960E+01  0.89326634177E+02 -0.26604958773E+02  0.93400541776E+02  0.47000000000E+01 0. -1.
        -11    1    4    4    0    0  0.40034570849E+02 -0.26322928448E+01  0.34404930926E+02  0.52852578941E+02  0.00000000000E+00 0.  1.
         12    1    4    4    0    0 -0.87062174324E+01 -0.10799776519E+02 -0.45934978495E+02  0.47983910263E+02  0.00000000000E+00 0. -1.
         -5    1    5    5    0  502  0.42679983242E+02 -0.47436194493E+02  0.80622631680E+02  0.10292653815E+03  0.47000000000E+01 0.  1.
         13    1    6    6    0    0  0.16167807915E+02 -0.20717567928E+01 -0.18094608377E+01  0.16400132241E+02  0.00000000000E+00 0. -1.
        -14    1    6    6    0    0 -0.93984004770E+02 -0.26386613528E+02  0.35583125178E+02  0.10390093995E+03  0.00000000000E+00 0.  1.
</event>
<event>
12    1  0.8684423E-002  0.2582397E+03  0.7818608E-02  0.1108342E+00
         21   -1    0    0  503  502  0.00000000000E+00  0.00000000000E+00  0.24233409589E+04  0.24233409589E+04  0.00000000000E+00 0.  1.
         21   -1    0    0  501  503 -0.00000000000E+00 -0.00000000000E+00 -0.31194086402E+02  0.31194086402E+02  0.00000000000E+00 0.  1.
          6    2    1    2  501    0  0.12582200291E+03  0.14530751345E+03  0.77119564815E+03  0.81328375422E+03  0.17245952358E+03 0.  0.
         24    2    3    3    0    0  0.41993900702E+02  0.15272689895E+03  0.55459667798E+03  0.58086301100E+03  0.68814017175E+02 0.  0.
         -6    2    1    2    0  502 -0.12582200291E+03 -0.14530751345E+03  0.16209512244E+04  0.16412512911E+04  0.17110663016E+03 0.  0.
        -24    2    5    5    0    0 -0.76085088870E+01 -0.73523892979E+02  0.50095024438E+03  0.51273385504E+03  0.80505940820E+02 0.  0.
          5    1    3    3  501    0  0.83828102210E+02 -0.74193855028E+01  0.21659897017E+03  0.23242074322E+03  0.47000000000E+01 0. -1.
        -13    1    4    4    0    0  0.56116598011E+02  0.91497004625E+02  0.29989123331E+03  0.31852084114E+03  0.00000000000E+00 0.  1.
         14    1    4    4    0    0 -0.14122697309E+02  0.61229894325E+02  0.25470544467E+03  0.26234216985E+03  0.00000000000E+00 0. -1.
         -5    1    5    5    0  502 -0.11821349403E+03 -0.71783620468E+02  0.11200009800E+04  0.11285174361E+04  0.47000000000E+01 0.  1.
         13    1    6    6    0    0  0.70013133068E+01 -0.92862127504E+01  0.53972600142E+01  0.12821175879E+02  0.00000000000E+00 0. -1.
        -14    1    6    6    0    0 -0.14609822194E+02 -0.64237680229E+02  0.49555298437E+03  0.49991267916E+03  0.00000000000E+00 0.  1.
</event>
<event>
12    1  0.8684423E-002  0.2390341E+03  0.7818608E-02  0.1120941E+00
         21   -1    0    0  501  502  0.00000000000E+00  0.00000000000E+00  0.25001618270E+03  0.25001618270E+03  0.00000000000E+00 0.  1.
         21   -1    0    0  502  503 -0.00000000000E+00 -0.00000000000E+00 -0.39544871704E+03  0.39544871704E+03  0.00000000000E+00 0.  1.
         -6    2    1    2    0  503  0.47706916745E+02 -0.15540177435E+03 -0.28390598833E+03  0.36921826261E+03  0.17115447369E+03 0.  0.
        -24    2    3    3    0    0  0.10166224246E+02 -0.95051553469E+02 -0.68726710700E+02  0.14255625814E+03  0.80378952704E+02 0.  0.
          6    2    1    2  501    0 -0.47706916745E+02  0.15540177435E+03  0.13847345398E+03  0.27624663713E+03  0.17524738427E+03 0.  0.
         24    2    5    5    0    0  0.12870329583E+02  0.15901961109E+03  0.93141785771E+02  0.20035367528E+03  0.77545604960E+02 0.  0.
          5    1    5    5  501    0 -0.60577246328E+02 -0.36178367440E+01  0.45331668207E+02  0.75892961846E+02  0.47000000000E+01 0. -1.
        -11    1    6    6    0    0 -0.16970061459E+02  0.11455330082E+03  0.34265672962E+02  0.12076662643E+03  0.00000000000E+00 0.  1.
         12    1    6    6    0    0  0.29840391041E+02  0.44466310269E+02  0.58876112809E+02  0.79587048858E+02  0.00000000000E+00 0. -1.
         -5    1    3    3    0  503  0.37540692500E+02 -0.60350220877E+02 -0.21517927763E+03  0.22666200448E+03  0.47000000000E+01 0.  1.
         11    1    4    4    0    0  0.11562531669E+01  0.14070164443E+02 -0.14976567186E+02  0.20581642634E+02  0.00000000000E+00 0. -1.
        -12    1    4    4    0    0  0.90099710787E+01 -0.10912171791E+03 -0.53750143513E+02  0.12197461550E+03  0.00000000000E+00 0.  1.
</event>
<event>
12    1  0.8684423E-002  0.2562161E+03  0.7818608E-02  0.1110449E+00
         21   -1    0    0  501  502  0.00000000000E+00  0.00000000000E+00  0.18887999248E+03  0.18887999248E+03  0.00000000000E+00 0.  1.
         21   -1    0    0  502  503 -0.00000000000E+00 -0.00000000000E+00 -0.64165464288E+03  0.64165464288E+03  0.00000000000E+00 0.  1.
         -6    2    1    2    0  503 -0.49594815783E+02  0.18255317703E+03 -0.51321856199E+03  0.57362004968E+03  0.17280440049E+03 0.  0.
        -24    2    3    3    0    0  0.16048969464E+02  0.17088686365E+03 -0.36283231946E+03  0.40904993893E+03  0.78833184035E+02 0.  0.
          6    2    1    2  501    0  0.49594815783E+02 -0.18255317703E+03  0.60443911586E+02  0.25691458568E+03  0.16299180865E+03 0.  0.
         24    2    5    5    0    0  0.68116285448E+02 -0.11737200225E+03 -0.11645933687E+02  0.15786577864E+03  0.79812035670E+02 0.  0.
          5    1    5    5  501    0 -0.18521469665E+02 -0.65181174777E+02  0.72089845273E+02  0.99048807036E+02  0.47000000000E+01 0. -1.
        -13    1    6    6    0    0  0.65355375471E+02 -0.12336216490E+03 -0.26058013949E+02  0.14201608685E+03  0.00000000000E+00 0.  1.
         14    1    6    6    0    0  0.27609099763E+01  0.59901626485E+01  0.14412080262E+02  0.15849691793E+02  0.00000000000E+00 0. -1.
         -5    1    3    3    0  503 -0.65643785247E+02  0.11666313376E+02 -0.15038624253E+03  0.16457011075E+03  0.47000000000E+01 0.  1.
         11    1    4    4    0    0  0.14878611134E+02 -0.24006638135E+01 -0.21619985347E+02  0.26354506681E+02  0.00000000000E+00 0. -1.
        -12    1    4    4    0    0  0.11703583297E+01  0.17328752747E+03 -0.34121233412E+03  0.38269543225E+03  0.00000000000E+00 0.  1.
</event>
<event>
12    1  0.8684423E-002  0.1890256E+03  0.7818608E-02  0.1159644E+00
         21   -1    0    0  501  502  0.00000000000E+00  0.00000000000E+00  0.70510582628E+02  0.70510582628E+02  0.00000000000E+00 0.  1.
         21   -1    0    0  502  503 -0.00000000000E+00 -0.00000000000E+00 -0.54699658771E+03  0.54699658771E+03  0.00000000000E+00 0.  1.
         -6    2    1    2    0  503 -0.36926674674E+02 -0.68587157614E+02 -0.32637284495E+03  0.37716031626E+03  0.17222918671E+03 0.  0.
        -24    2    3    3    0    0 -0.16378460610E+02  0.29589279462E+02 -0.13933945781E+03  0.16487649728E+03  0.81394074857E+02 0.  0.
          6    2    1    2  501    0  0.36926674674E+02  0.68587157614E+02 -0.15011316014E+03  0.24034685408E+03  0.17077725822E+03 0.  0.
         24    2    5    5    0    0  0.62704318514E+02  0.65637694574E+02 -0.40120134788E+02  0.12723742971E+03  0.79621603822E+02 0.  0.
          5    1    5    5  501    0 -0.25777643840E+02  0.29494630408E+01 -0.10999302535E+03  0.11310942437E+03  0.47000000000E+01 0. -1.
        -11    1    6    6    0    0  0.86621038365E+01  0.58625058927E+02  0.50851981296E+00  0.59263717142E+02  0.00000000000E+00 0.  1.
         12    1    6    6    0    0  0.54042214677E+02  0.70126356463E+01 -0.40628654601E+02  0.67973712570E+02  0.00000000000E+00 0. -1.
         -5    1    3    3    0  503 -0.20548214064E+02 -0.98176437076E+02 -0.18703338714E+03  0.21228381898E+03  0.47000000000E+01 0.  1.
         13    1    4    4    0    0  0.31627365363E+02  0.93327064543E+01 -0.76096277591E+02  0.82933908101E+02  0.00000000000E+00 0. -1.
        -14    1    4    4    0    0 -0.48005825974E+02  0.20256573008E+02 -0.63243180218E+02  0.81942589180E+02  0.00000000000E+00 0.  1.
</event>
<event>
12    1  0.8684423E-002  0.2222537E+03  0.7818608E-02  0.1132422E+00
         21   -1    0    0  503  502  0.00000000000E+00  0.00000000000E+00  0.11276008091E+03  0.11276008091E+03  0.00000000000E+00 0. -1.
         21   -1    0    0  501  503 -0.00000000000E+00 -0.00000000000E+00 -0.46706473078E+03  0.46706473078E+03  0.00000000000E+00 0.  1.
          6    2    1    2  501    0  0.12861579343E+03  0.55864490460E+02 -0.25168457100E+03  0.33502369850E+03  0.17097628978E+03 0.  0.
         24    2    3    3    0    0  0.11215199087E+03  0.25139908050E+02 -0.26503391704E+03  0.29740253692E+03  0.70676783674E+02 0.  0.
         -6    2    1    2    0  502 -0.12861579343E+03 -0.55864490460E+02 -0.10262007887E+03  0.24480111319E+03  0.17243503361E+03 0.  0.
        -24    2    5    5    0    0 -0.10085021460E+03 -0.75476238314E+02 -0.13132205207E+03  0.20006364246E+03  0.83141754482E+02 0.  0.
          5    1    3    3  501    0  0.16463802553E+02  0.30724582409E+02  0.13349346044E+02  0.37621161579E+02  0.47000000000E+01 0. -1.
        -13    1    4    4    0    0  0.99195191885E+02  0.37888696832E+02 -0.16846219893E+03  0.19913500925E+03  0.00000000000E+00 0.  1.
         14    1    4    4    0    0  0.12956798990E+02 -0.12748788782E+02 -0.96571718113E+02  0.98267527672E+02  0.00000000000E+00 0. -1.
         -5    1    5    5    0  502 -0.27765578832E+02  0.19611747854E+02  0.28701973203E+02  0.44737470732E+02  0.47000000000E+01 0.  1.
         11    1    6    6    0    0 -0.60069509250E+02 -0.89149265737E+02 -0.10037983661E+03  0.14707837747E+03  0.00000000000E+00 0. -1.
        -12    1    6    6    0    0 -0.40780705346E+02  0.13673027423E+02 -0.30942215464E+02  0.52985264983E+02  0.00000000000E+00 0.  1.
</event>
<event>
12    1  0.8684423E-002  0.1893642E+03  0.7818608E-02  0.1159178E+00
         21   -1    0    0  501  502  0.00000000000E+00  0.00000000000E+00  0.54007425966E+02  0.54007425966E+02  0.00000000000E+00 0.  1.
         21   -1    0    0  502  503 -0.00000000000E+00 -0.00000000000E+00 -0.71651274065E+03  0.71651274065E+03  0.00000000000E+00 0. -1.
         -6    2    1    2    0  503 -0.41563701203E+02  0.68612777154E+02 -0.22424885831E+03  0.29310259806E+03  0.17084006583E+03 0.  0.
        -24    2    3    3    0    0 -0.37525830936E+02  0.24616881571E+02 -0.22944414730E+03  0.24836978849E+03  0.83837678047E+02 0.  0.
          6    2    1    2  501    0  0.41563701203E+02 -0.68612777154E+02 -0.43825645638E+03  0.47741756855E+03  0.17153296698E+03 0.  0.
         24    2    5    5    0    0  0.16831314806E+02  0.18780435744E+02 -0.10743842111E+03  0.13432585041E+03  0.76579513147E+02 0.  0.
          5    1    5    5  501    0  0.24732386397E+02 -0.87393212899E+02 -0.33081803527E+03  0.34309171814E+03  0.47000000000E+01 0. -1.
        -13    1    6    6    0    0 -0.25632722390E+01  0.26512653717E+02 -0.11010142498E+03  0.11327760129E+03  0.00000000000E+00 0.  1.
         14    1    6    6    0    0  0.19394587045E+02 -0.77322179723E+01  0.26630038724E+01  0.21048249120E+02  0.00000000000E+00 0. -1.
         -5    1    3    3    0  503 -0.40378702671E+01  0.43995895584E+02  0.51952889908E+01  0.44732809572E+02  0.47000000000E+01 0.  1.
         13    1    4    4    0    0  0.25590123966E+02  0.18611696488E+02 -0.72602510407E+02  0.79198322003E+02  0.00000000000E+00 0. -1.
        -14    1    4    4    0    0 -0.63115954902E+02  0.60051850823E+01 -0.15684163689E+03  0.16917146649E+03  0.00000000000E+00 0.  1.
</event>
<event>
12    1  0.8684423E-002  0.2118135E+03  0.7818608E-02  0.1140805E+00
         21   -1    0    0  503  502  0.00000000000E+00  0.00000000000E+00  0.25928428788E+02  0.25928428788E+02  0.00000000000E+00 0.  1.
         21   -1    0    0  501  503 -0.00000000000E+00 -0.00000000000E+00 -0.29186936277E+04  0.29186936277E+04  0.00000000000E+00 0.  1.
          6    2    1    2  501    0  0.57762199175E+02  0.10965634311E+03 -0.24034139126E+04  0.24127294454E+04  0.17176715658E+03 0.  0.
         24    2    3    3    0    0  0.77103851204E+02  0.11446613288E+03 -0.23514562490E+04  0.23568821322E+04  0.80618823825E+02 0.  0.
         -6    2    1    2    0  502 -0.57762199175E+02 -0.10965634311E+03 -0.48935128631E+03  0.53189261110E+03  0.16758306328E+03 0.  0.
        -24    2    5    5    0    0 -0.38131380521E+01 -0.12431896757E+03 -0.38189803448E+03  0.41067468718E+03  0.85661217786E+02 0.  0.
          5    1    3    3  501    0 -0.19341652029E+02 -0.48097897689E+01 -0.51957663627E+02  0.55847313189E+02  0.47000000000E+01 0. -1.
        -13    1    4    4    0    0  0.37594436885E+00 -0.58784096015E+01 -0.46401479897E+03  0.46405218532E+03  0.00000000000E+00 0.  1.
         14    1    4    4    0    0  0.76727906835E+02  0.12034454248E+03 -0.18874414500E+04  0.18928299469E+04  0.00000000000E+00 0. -1.
         -5    1    5    5    0  502 -0.53949061123E+02  0.14662624456E+02 -0.10745325183E+03  0.12121792392E+03  0.47000000000E+01 0.  1.
         11    1    6    6    0    0  0.29300564282E+02 -0.87480982273E+02 -0.30946719048E+03  0.32292628773E+03  0.00000000000E+00 0. -1.
        -12    1    6    6    0    0 -0.33113702334E+02 -0.36837985294E+02 -0.72430844001E+02  0.87748399447E+02  0.00000000000E+00 0.  1.
</event>
<event>
12    1  0.8684423E-002  0.1800456E+03  0.7818608E-02  0.1170195E+00
         21   -1    0    0  501  502  0.00000000000E+00  0.00000000000E+00  0.63942821385E+02  0.63942821385E+02  0.00000000000E+00 0.  1.
         21   -1    0    0  502  503 -0.00000000000E+00 -0.00000000000E+00 -0.89075911482E+03  0.89075911482E+03  0.00000000000E+00 0.  1.
         -6    2    1    2    0  503  0.25958244379E+02  0.31156150670E+02 -0.73135555765E+03  0.75091489265E+03  0.16537136430E+03 0.  0.
        -24    2    3    3    0    0  0.34701305427E+02  0.28324032690E+02 -0.17654923247E+03  0.19601254947E+03  0.72421382471E+02 0.  0.
          6    2    1    2  501    0 -0.25958244379E+02 -0.31156150670E+02 -0.95460735790E+02  0.20378704355E+03  0.17541912914E+03 0.  0.
         24    2    5    5    0    0 -0.38889866146E+02 -0.63440135579E+00 -0.12817548326E+03  0.15697733596E+03  0.81854171194E+02 0.  0.
          5    1    5    5  501    0  0.12931621766E+02 -0.30521749314E+02  0.32714747473E+02  0.46809707593E+02  0.47000000000E+01 0. -1.
        -11    1    6    6    0    0 -0.10916556012E+02  0.51817683581E+01  0.10119640254E+02  0.15761631811E+02  0.00000000000E+00 0.  1.
         12    1    6    6    0    0 -0.27973310134E+02 -0.58161697139E+01 -0.13829512352E+03  0.14121570415E+03  0.00000000000E+00 0. -1.
         -5    1    3    3    0  503 -0.87430610475E+01  0.28321179797E+01 -0.55480632518E+03  0.55490234319E+03  0.47000000000E+01 0.  1.
         13    1    4    4    0    0  0.11108727204E+02 -0.16948713575E+02 -0.11613434651E+02  0.23356681621E+02  0.00000000000E+00 0. -1.
        -14    1    4    4    0    0  0.23592578223E+02  0.45272746265E+02 -0.16493579781E+03  0.17265586785E+03  0.00000000000E+00 0.  1.
</event>
<event>
12    1  0.8684423E-002  0.2858423E+03  0.7818608E-02  0.1092949E+00
         21   -1    0    0  503  502  0.00000000000E+00  0.00000000000E+00  0.54176099582E+03  0.54176099582E+03  0.00000000000E+00 0.  1.
         21   -1    0    0  501  503 -0.00000000000E+00 -0.00000000000E+00 -0.18743834727E+03  0.18743834727E+03  0.00000000000E+00 0. -1.
          6    2    1    2  501    0 -0.38944641819E+02 -0.22598648988E+03  0.34257730289E+03  0.44616705871E+03  0.17064365529E+03 0.  0.
         24    2    3    3    0    0  0.57106774908E+01 -0.50043806841E+02  0.17843875303E+03  0.20139475879E+03  0.78628657925E+02 0.  0.
         -6    2    1    2    0  502  0.38944641819E+02  0.22598648988E+03  0.11745345660E+02  0.28303228438E+03  0.16547731603E+03 0.  0.
        -24    2    5    5    0    0 -0.18617334521E+02  0.20476299995E+03  0.12183610106E+02  0.22150099379E+03  0.81484713923E+02 0.  0.
          5    1    3    3  501    0 -0.44655319310E+02 -0.17594268304E+03  0.16413854986E+03  0.24477229992E+03  0.47000000000E+01 0. -1.
        -13    1    4    4    0    0  0.38855286411E+02 -0.10573014780E+02  0.60384055802E+02  0.72579309163E+02  0.00000000000E+00 0.  1.
         14    1    4    4    0    0 -0.33144608920E+02 -0.39470792061E+02  0.11805469723E+03  0.12881544963E+03  0.00000000000E+00 0. -1.
         -5    1    5    5    0  502  0.57561976341E+02  0.21223489929E+02 -0.43826444599E+00  0.61531290582E+02  0.47000000000E+01 0.  1.
         13    1    6    6    0    0  0.28636296745E+02  0.12115873331E+03  0.15187010241E+02  0.12541978085E+03  0.00000000000E+00 0. -1.
        -14    1    6    6    0    0 -0.47253631266E+02  0.83604266642E+02 -0.30034001353E+01  0.96081212944E+02  0.00000000000E+00 0.  1.
</event>
<event>
12    1  0.8684423E-002  0.1942356E+03  0.7818608E-02  0.1155246E+00
         21   -1    0    0  501  502  0.00000000000E+00  0.00000000000E+00  0.10294955459E+03  0.10294955459E+03  0.00000000000E+00 0. -1.
         21   -1    0    0  502  503 -0.00000000000E+00 -0.00000000000E+00 -0.71687194119E+03  0.71687194119E+03  0.00000000000E+00 0. -1.
         -6    2    1    2    0  503 -0.30969433122E+02 -0.75322952856E+02 -0.19467742437E+02  0.19520873399E+03  0.17633718784E+03 0.  0.
        -24    2    3    3    0    0 -0.33059585885E+02  0.14168313643E+02 -0.48836479023E+02  0.10088128196E+03  0.80612369002E+02 0.  0.
          6    2    1    2  501    0  0.30969433122E+02  0.75322952856E+02 -0.59445464417E+03  0.62461276179E+03  0.17358607433E+03 0.  0.
         24    2    5    5    0    0  0.37462351236E+02 -0.21015088813E+02 -0.32163846382E+03  0.33517548963E+03  0.83941918722E+02 0.  0.
          5    1    5    5  501    0 -0.64929181136E+01  0.96338041669E+02 -0.27281618034E+03  0.28943727216E+03  0.47000000000E+01 0. -1.
        -11    1    6    6    0    0  0.87819323863E+01 -0.38898192564E+02 -0.64545769273E+02  0.75870600710E+02  0.00000000000E+00 0.  1.
         12    1    6    6    0    0  0.28680418849E+02  0.17883103751E+02 -0.25709269455E+03  0.25930488892E+03  0.00000000000E+00 0. -1.
         -5    1    3    3    0  503  0.20901527628E+01 -0.89491266499E+02  0.29368736586E+02  0.94327452032E+02  0.47000000000E+01 0.  1.
         11    1    4    4    0    0 -0.36651580397E+02  0.38198890208E+02 -0.54451052111E+02  0.75943469994E+02  0.00000000000E+00 0. -1.
        -12    1    4    4    0    0  0.35919945121E+01 -0.24030576566E+02  0.56145730883E+01  0.24937811965E+02  0.00000000000E+00 0.  1.
</event>
<event>
12    1  0.8684423E-002  0.2235701E+03  0.7818608E-02  0.1132576E+00
         21   -1    0    0  503  502  0.00000000000E+00  0.00000000000E+00  0.32572634807E+03  0.32572634807E+03  0.00000000000E+00 0. -1.
         21   -1    0    0  501  503 -0.00000000000E+00 -0.00000000000E+00 -0.23393144501E+03  0.23393144501E+03  0.00000000000E+00 0. -1.
          6    2    1    2  501    0  0.73680486615E+02 -0.11134176554E+03 -0.12357880020E+03  0.24922357446E+03  0.17033751010E+03 0.  0.
         24    2    3    3    0    0  0.58781975684E+02 -0.41415025728E+02 -0.24189571495E+01  0.10846309657E+03  0.81165675890E+02 0.  0.
         -6    2    1    2    0  502 -0.73680486615E+02  0.11134176554E+03  0.21537370326E+03  0.31043421862E+03  0.17932587424E+03 0.  0.
        -24    2    5    5    0    0 -0.89710403378E+02  0.10101357600E+02  0.11814107414E+03  0.16907350061E+03  0.80489386315E+02 0.  0.
          5    1    3    3  501    0  0.14898510932E+02 -0.69926739813E+02 -0.12115984305E+03  0.14076047789E+03  0.47000000000E+01 0. -1.
        -11    1    4    4    0    0  0.73658402952E+02 -0.26863589953E+02 -0.20340600465E+02  0.80999708752E+02  0.00000000000E+00 0.  1.
         12    1    4    4    0    0 -0.14876427268E+02 -0.14551435775E+02  0.17921643316E+02  0.27463387819E+02  0.00000000000E+00 0. -1.
         -5    1    5    5    0  502  0.16029916762E+02  0.10124040794E+03  0.97232629117E+02  0.14136071801E+03  0.47000000000E+01 0.  1.
         13    1    6    6    0    0 -0.88637016919E+02  0.18944106572E+02  0.12731700910E+03  0.15628506246E+03  0.00000000000E+00 0. -1.
        -14    1    6    6    0    0 -0.10733864593E+01 -0.88427489716E+01 -0.91759349603E+01  0.12788438148E+02  0.00000000000E+00 0.  1.
</event>
<event>
12    1  0.8684423E-002  0.1802766E+03  0.7818608E-02  0.1168521E+00
         21   -1    0    0  501  502  0.00000000000E+00  0.00000000000E+00  0.22845322067E+03  0.22845322067E+03  0.00000000000E+00 0. -1.
         21   -1    0    0  502  503 -0.00000000000E+00 -0.00000000000E+00 -0.41529347553E+03  0.41529347553E+03  0.00000000000E+00 0. -1.
         -6    2    1    2    0  503 -0.44047783533E+02 -0.53437513465E+01 -0.35555380050E+03  0.39683801735E+03  0.17056712476E+03 0.  0.
        -24    2    3    3    0    0 -0.47144344842E+02 -0.38620989498E+02 -0.15487712718E+03  0.19334310221E+03  0.98389331584E+02 0.  0.
          6    2    1    2  501    0  0.44047783533E+02  0.53437513465E+01  0.16871354564E+03  0.24690867886E+03  0.17473085675E+03 0.  0.
         24    2    5    5    0    0  0.28408059379E+02 -0.13529213244E+02  0.10025791174E+02  0.86270317367E+02  0.79699395991E+02 0.  0.
          5    1    5    5  501    0  0.15639724154E+02  0.18872964590E+02  0.15868775447E+03  0.16063836149E+03  0.47000000000E+01 0. -1.
        -11    1    6    6    0    0 -0.53773009776E+01 -0.26751307920E+02  0.33387214077E+02  0.43119066607E+02  0.00000000000E+00 0.  1.
         12    1    6    6    0    0  0.33785360357E+02  0.13222094677E+02 -0.23361422903E+02  0.43151250760E+02  0.00000000000E+00 0. -1.
         -5    1    3    3    0  503  0.30965613091E+01  0.33277238152E+02 -0.20067667332E+03  0.20349491514E+03  0.47000000000E+01 0.  1.
         13    1    4    4    0    0 -0.18212485400E+02 -0.21548002825E+02 -0.15715950647E+03  0.15967191839E+03  0.00000000000E+00 0. -1.
        -14    1    4    4    0    0 -0.28931859442E+02 -0.17072986673E+02  0.22823792865E+01  0.33671183821E+02  0.00000000000E+00 0.  1.
</event>
<event>
12    1  0.8684423E-002  0.1843255E+03  0.7818608E-02  0.1163850E+00
         21   -1    0    0  503  502  0.00000000000E+00  0.00000000000E+00  0.26412331599E+03  0.26412331599E+03  0.00000000000E+00 0. -1.
         21   -1    0    0  501  503 -0.00000000000E+00 -0.00000000000E+00 -0.12855211148E+03  0.12855211148E+03  0.00000000000E+00 0. -1.
          6    2    1    2  501    0  0.60550475205E+02  0.28368544944E+02  0.56471049914E+02  0.19209450416E+03  0.17099761595E+03 0.  0.
         24    2    3    3    0    0 -0.22583331849E+02  0.52741433904E+02  0.26950743035E+02  0.10044950370E+03  0.77923645419E+02 0.  0.
         -6    2    1    2    0  502 -0.60550475205E+02 -0.28368544944E+02  0.79100154599E+02  0.20058092330E+03  0.17176943251E+03 0.  0.
        -24    2    5    5    0    0  0.13331184267E+02  0.32920216713E+02  0.41877148334E+02  0.97515632799E+02  0.80586239180E+02 0.  0.
          5    1    3    3  501    0  0.83133807053E+02 -0.24372888960E+02  0.29520306879E+02  0.91645000462E+02  0.47000000000E+01 0. -1.
        -13    1    4    4    0    0 -0.20315627107E+01  0.54309568338E+02  0.46884156614E+02  0.71775905438E+02  0.00000000000E+00 0.  1.
         14    1    4    4    0    0 -0.20551769138E+02 -0.15681344337E+01 -0.19933413578E+02  0.28673598260E+02  0.00000000000E+00 0. -1.
         -5    1    5    5    0  502 -0.73881659472E+02 -0.61288761657E+02  0.37223006265E+02  0.10306529051E+03  0.47000000000E+01 0.  1.
         13    1    6    6    0    0  0.78737783387E+01  0.32667748415E+02  0.65313531588E+02  0.73450905919E+02  0.00000000000E+00 0. -1.
        -14    1    6    6    0    0  0.54574059285E+01  0.25246829803E+00 -0.23436383255E+02  0.24064726879E+02  0.00000000000E+00 0.  1.
</event>
<event>
12    1  0.8684423E-002  0.2308757E+03  0.7818608E-02  0.1126411E+00
         21   -1    0    0  501  502  0.00000000000E+00  0.00000000000E+00  0.86746397738E+03  0.86746397738E+03  0.00000000000E+00 0. -1.
         21   -1    0    0  502  503 -0.00000000000E+00 -0.00000000000E+00 -0.64238905484E+02  0.64238905484E+02  0.00000000000E+00 0.  1.
         -6    2    1    2    0  503  0.24869398811E+02 -0.14814199622E+03  0.29667945897E+03  0.37592857182E+03  0.17532555916E+03 0.  0.
        -24    2    3    3    0    0  0.88734994402E+02 -0.99165979439E+02  0.22507552497E+03  0.26810149783E+03  0.59259011899E+02 0.  0.
          6    2    1    2  501    0 -0.24869398811E+02  0.14814199622E+03  0.50654561293E+03  0.55577431105E+03  0.17242995331E+03 0.  0.
         24    2    5    5    0    0 -0.54722567252E+02  0.91287519229E+02  0.45191337714E+03  0.47133252987E+03  0.81244585950E+02 0.  0.
          5    1    5    5  501    0  0.29853168441E+02  0.56854476993E+02  0.54632235788E+02  0.84441781170E+02  0.47000000000E+01 0. -1.
        -11    1    6    6    0    0  0.27049635295E+00 -0.10843908150E+02  0.11128480446E+02  0.15540482273E+02  0.00000000000E+00 0.  1.
         12    1    6    6    0    0 -0.54993063605E+02  0.10213142738E+03  0.44078489669E+03  0.45579204760E+03  0.00000000000E+00 0. -1.
         -5    1    3    3    0  503 -0.63865595591E+02 -0.48976016782E+02  0.71603934002E+02  0.10782707399E+03  0.47000000000E+01 0.  1.
         11    1    4    4    0    0  0.51182806156E+02 -0.28058611874E+02  0.13656928946E+03  0.14851981743E+03  0.00000000000E+00 0. -1.
        -12    1    4    4    0    0  0.37552188246E+02 -0.71107367565E+02  0.88506235511E+02  0.11958168040E+03  0.00000000000E+00 0.  1.
</event>
<event>
12    1  0.8684423E-002  0.1851720E+03  0.7818608E-02  0.1163105E+00
         21   -1    0    0  501  502  0.00000000000E+00  0.00000000000E+00  0.28190774798E+02  0.28190774798E+02  0.00000000000E+00 0. -1.
         21   -1    0    0  502  503 -0.00000000000E+00 -0.00000000000E+00 -0.12249362421E+04  0.12249362421E+04  0.00000000000E+00 0.  1.
         -6    2    1    2    0  503 -0.62607035557E+02  0.95905510706E+01 -0.52830384247E+03  0.55951122287E+03  0.17302092065E+03 0.  0.
        -24    2    3    3    0    0 -0.78342882031E+01 -0.53998672603E+02 -0.19113232472E+03  0.21201968974E+03  0.73780421316E+02 0.  0.
          6    2    1    2  501    0  0.62607035557E+02 -0.95905510706E+01 -0.66844162480E+03  0.69361579399E+03  0.17400300094E+03 0.  0.
         24    2    5    5    0    0  0.57995165151E+02 -0.50403951826E+02 -0.61954356852E+03  0.62958366973E+03  0.81470033436E+02 0.  0.
          5    1    5    5  501    0  0.46118704063E+01  0.40813400756E+02 -0.48898056276E+02  0.64032124262E+02  0.47000000000E+01 0. -1.
        -13    1    6    6    0    0 -0.18945514161E+02 -0.46484132849E+01 -0.17738234272E+03  0.17845177433E+03  0.00000000000E+00 0.  1.
         14    1    6    6    0    0  0.76940679312E+02 -0.45755538541E+02 -0.44216122580E+03  0.45113189539E+03  0.00000000000E+00 0. -1.
         -5    1    3    3    0  503 -0.54772747354E+02  0.63589223673E+02 -0.33717151774E+03  0.34749153313E+03  0.47000000000E+01 0.  1.
         13    1    4    4    0    0 -0.18221027200E+02 -0.49586307887E+02 -0.19342037236E+03  0.20050498300E+03  0.00000000000E+00 0. -1.
        -14    1    4    4    0    0  0.10386738997E+02 -0.44123647159E+01  0.22880476403E+01  0.11514706743E+02  0.00000000000E+00 0.  1.
</event>
<event>
12    1  0.8684423E-002  0.2348360E+03  0.7818608E-02  0.1123749E+00
         21   -1    0    0  501  502  0.00000000000E+00  0.00000000000E+00  0.77023365598E+03  0.77023365598E+03  0.00000000000E+00 0.  1.
         21   -1    0    0  502  503 -0.00000000000E+00 -0.00000000000E+00 -0.12361847218E+03  0.12361847218E+03  0.00000000000E+00 0.  1.
         -6    2    1    2    0  503  0.14694339741E+03  0.52152138389E+02  0.32177445351E+02  0.23703023882E+03  0.17560107785E+03 0.  0.
        -24    2    3    3    0    0  0.67954246401E+02  0.25888695883E+02  0.87277699336E+02  0.13709434747E+03  0.76742811573E+02 0.  0.
          6    2    1    2  501    0 -0.14694339741E+03 -0.52152138389E+02  0.61443773845E+03  0.65682188935E+03  0.17195654195E+03 0.  0.
         24    2    5    5    0    0 -0.31206010457E+02 -0.99146900862E+01  0.39841891121E+03  0.40809439087E+03  0.82044420176E+02 0.  0.
          5    1    5    5  501    0 -0.11573738696E+03 -0.42237448303E+02  0.21601882724E+03  0.24872749848E+03  0.47000000000E+01 0. -1.
        -11    1    6    6    0    0 -0.58209643906E+02 -0.45358942227E+01  0.22246431883E+03  0.22999850028E+03  0.00000000000E+00 0.  1.
         12    1    6    6    0    0  0.27003633449E+02 -0.53787958635E+01  0.17595459238E+03  0.17809589059E+03  0.00000000000E+00 0. -1.
         -5    1    3    3    0  503  0.78989151013E+02  0.26263442506E+02 -0.55100253985E+02  0.99935891346E+02  0.47000000000E+01 0.  1.
         11    1    4    4    0    0  0.52716510758E+02 -0.45561319871E+01  0.11683723284E+02  0.54187620680E+02  0.00000000000E+00 0. -1.
        -12    1    4    4    0    0  0.15237735644E+02  0.30444827870E+02  0.75593976052E+02  0.82906726790E+02  0.00000000000E+00 0.  1.
</event>
<event>
12    1  0.8684423E-002  0.2515359E+03  0.7818608E-02  0.1112465E+00
         21   -1    0    0  503  502  0.00000000000E+00  0.00000000000E+00  0.46037247965E+03  0.46037247965E+03  0.00000000000E+00 0. -1.
         21   -1    0    0  501  503 -0.00000000000E+00 -0.00000000000E+00 -0.19215220545E+03  0.19215220545E+03  0.00000000000E+00 0. -1.
          6    2    1    2  501    0  0.12884040620E+03 -0.13014260390E+03 -0.40543873274E+02  0.25478245013E+03  0.17243359189E+03 0.  0.
         24    2    3    3    0    0  0.40187359672E+02 -0.72425563374E+02  0.40155446207E+02  0.12164684411E+03  0.79529923387E+02 0.  0.
         -6    2    1    2    0  502 -0.12884040620E+03  0.13014260390E+03  0.30876414747E+03  0.39774223498E+03  0.17125022366E+03 0.  0.
        -24    2    5    5    0    0 -0.14246018907E+03  0.11320114101E+03  0.19223438900E+03  0.27910924522E+03  0.88535341285E+02 0.  0.
          5    1    3    3  501    0  0.88653046524E+02 -0.57717040524E+02 -0.80699319481E+02  0.13313560602E+03  0.47000000000E+01 0. -1.
        -11    1    4    4    0    0 -0.10984138573E+02 -0.11731477766E+02  0.39076810253E+02  0.42252526200E+02  0.00000000000E+00 0.  1.
         12    1    4    4    0    0  0.51171498246E+02 -0.60694085609E+02  0.10786359540E+01  0.79394317908E+02  0.00000000000E+00 0. -1.
         -5    1    5    5    0  502  0.13619782877E+02  0.16941462894E+02  0.11652975847E+03  0.11863298976E+03  0.47000000000E+01 0.  1.
         11    1    6    6    0    0 -0.34865276135E+02  0.43843528961E+02  0.11925413453E+03  0.13175504209E+03  0.00000000000E+00 0. -1.
        -12    1    6    6    0    0 -0.10759491294E+03  0.69357612044E+02  0.72980254465E+02  0.14735420313E+03  0.00000000000E+00 0.  1.
</event>
<event>
12    1  0.8684423E-002  0.2872694E+03  0.7818608E-02  0.1091804E+00
         21   -1    0    0  503  502  0.00000000000E+00  0.00000000000E+00  0.70953101308E+02  0.70953101308E+02  0.00000000000E+00 0.  1.
         21   -1    0    0  501  503 -0.00000000000E+00 -0.00000000000E+00 -0.15203400411E+04  0.15203400411E+04  0.00000000000E+00 0. -1.
          6    2    1    2  501    0 -0.11620807899E+03  0.19835173518E+03 -0.11105807085E+04  0.11470934700E+04  0.17200636774E+03 0.  0.
         24    2    3    3    0    0 -0.64592636586E+02  0.36217331951E+02 -0.30637424545E+03  0.32507045105E+03  0.79509219831E+02 0.  0.
         -6    2    1    2    0  502  0.11620807899E+03 -0.19835173518E+03 -0.33880623131E+03  0.44419967234E+03  0.17226711254E+03 0.  0.
        -24    2    5    5    0    0  0.55333135795E+02 -0.18183850060E+03 -0.32041779789E+03  0.37833109024E+03  0.65877556254E+02 0.  0.
          5    1    3    3  501    0 -0.51615442403E+02  0.16213440322E+03 -0.80420646301E+03  0.82202301899E+03  0.47000000000E+01 0. -1.
        -11    1    4    4    0    0  0.17731840058E+01  0.21937470531E+02 -0.18243483305E+03  0.18375762597E+03  0.00000000000E+00 0.  1.
         12    1    4    4    0    0 -0.66365820591E+02  0.14279861421E+02 -0.12393941240E+03  0.14131282508E+03  0.00000000000E+00 0. -1.
         -5    1    5    5    0  502  0.60874943193E+02 -0.16513234573E+02 -0.18388433422E+02  0.65868582105E+02  0.47000000000E+01 0.  1.
         11    1    6    6    0    0  0.61488870024E+02 -0.13073427691E+03 -0.27030799623E+03  0.30649428236E+03  0.00000000000E+00 0. -1.
        -12    1    6    6    0    0 -0.61557342286E+01 -0.51104223694E+02 -0.50109801660E+02  0.71836807875E+02  0.00000000000E+00 0.  1.
</event>
<event>
12    1  0.8684423E-002  0.1790901E+03  0.7818608E-02  0.1169027E+00
         21   -1    0    0  503  502  0.00000000000E+00  0.00000000000E+00  0.63379960300E+02  0.63379960300E+02  0.00000000000E+00 0.  1.
         21   -1    0    0  501  503 -0.00000000000E+00 -0.00000000000E+00 -0.13925818864E+04  0.13925818864E+04  0.00000000000E+00 0.  1.
          6    2    1    2  501    0 -0.36571976836E+02 -0.24089951123E+02 -0.12476601700E+04  0.12604480047E+04  0.17365321042E+03 0.  0.
         24    2    3    3    0    0  0.15970373925E+02 -0.52180156780E+02 -0.43404649849E+03  0.44464223446E+03  0.79577209096E+02 0.  0.
         -6    2    1    2    0  502  0.36571976836E+02  0.24089951123E+02 -0.81541756180E+02  0.19551384209E+03  0.17221721520E+03 0.  0.
        -24    2    5    5    0    0  0.75739166126E+02  0.15600588258E+02 -0.10133381241E+03  0.15056994941E+03  0.80143424491E+02 0.  0.
          5    1    3    3  501    0 -0.52542350761E+02  0.28090205657E+02 -0.81361367147E+03  0.81580577020E+03  0.47000000000E+01 0. -1.
        -11    1    4    4    0    0 -0.19171800224E+01 -0.51569211126E+01 -0.31934218130E+03  0.31938957117E+03  0.00000000000E+00 0.  1.
         12    1    4    4    0    0  0.17887553947E+02 -0.47023235667E+02 -0.11470431720E+03  0.12525266329E+03  0.00000000000E+00 0. -1.
         -5    1    5    5    0  502 -0.39167189290E+02  0.84893628649E+01  0.19792056234E+02  0.44943892674E+02  0.47000000000E+01 0.  1.
         11    1    6    6    0    0  0.15300135267E+02  0.32616408351E+02 -0.73568840121E+02  0.81916411480E+02  0.00000000000E+00 0. -1.
        -12    1    6    6    0    0  0.60439030859E+02 -0.17015820093E+02 -0.27764972292E+02  0.68653537935E+02  0.00000000000E+00 0.  1.
</event>
<event>
12    1  0.8684423E-002  0.2482551E+03  0.7818608E-02  0.1114748E+00
         21   -1    0    0  501  502  0.00000000000E+00  0.00000000000E+00  0.50558231609E+03  0.50558231609E+03  0.00000000000E+00 0. -1.
         21   -1    0    0  502  503 -0.00000000000E+00 -0.00000000000E+00 -0.12495047259E+03  0.12495047259E+03  0.00000000000E+00 0.  1.
         -6    2    1    2    0  503 -0.16625199354E+03  0.63957315960E+02  0.24648927228E+03  0.34835409231E+03  0.16989216775E+03 0.  0.
        -24    2    3    3    0    0 -0.15696946464E+03 -0.70421148880E+01  0.19700481486E+03  0.26118823862E+03  0.68697850799E+02 0.  0.
          6    2    1    2  501    0  0.16625199354E+03 -0.63957315960E+02  0.13414257123E+03  0.28217869637E+03  0.17291710051E+03 0.  0.
         24    2    5    5    0    0  0.14369221136E+03 -0.10756018697E+03  0.12526039149E+03  0.23206744765E+03  0.77126449132E+02 0.  0.
          5    1    5    5  501    0  0.22559782183E+02  0.43602871006E+02  0.88821797375E+01  0.50111248728E+02  0.47000000000E+01 0. -1.
        -13    1    6    6    0    0 -0.19360352542E+01 -0.25888825979E+02  0.53567249792E+01  0.26507999652E+02  0.00000000000E+00 0.  1.
         14    1    6    6    0    0  0.14562824661E+03 -0.81671360987E+02  0.11990366651E+03  0.20555944799E+03  0.00000000000E+00 0. -1.
         -5    1    3    3    0  503 -0.92825288987E+01  0.70999430848E+02  0.49484457416E+02  0.87165853688E+02  0.47000000000E+01 0.  1.
         11    1    4    4    0    0 -0.11502819785E+03  0.10423246718E+02  0.17744639521E+03  0.21172471170E+03  0.00000000000E+00 0. -1.
        -12    1    4    4    0    0 -0.41941266796E+02 -0.17465361606E+02  0.19558419654E+02  0.49463526925E+02  0.00000000000E+00 0.  1.
</event>
<event>
12    1  0.8684423E-002  0.2167352E+03  0.7818608E-02  0.1136748E+00
         21   -1    0    0  503  502  0.00000000000E+00  0.00000000000E+00  0.13552568351E+03  0.13552568351E+03  0.00000000000E+00 0. -1.
         21   -1    0    0  501  503 -0.00000000000E+00 -0.00000000000E+00 -0.39238833172E+03  0.39238833172E+03  0.00000000000E+00 0.  1.
          6    2    1    2  501    0  0.73288039703E+02 -0.10416546318E+03 -0.22243365273E+03  0.31056538584E+03  0.17536404572E+03 0.  0.
         24    2    3    3    0    0  0.10717803381E+03 -0.56883087464E+02 -0.20448499546E+03  0.24950476799E+03  0.75602244082E+02 0.  0.
         -6    2    1    2    0  502 -0.73288039703E+02  0.10416546318E+03 -0.34428995480E+02  0.21734862939E+03  0.17272374036E+03 0.  0.
        -24    2    5    5    0    0  0.20502329556E+02  0.33546768468E+02  0.12087374434E+02  0.90978157839E+02  0.81149179855E+02 0.  0.
          5    1    3    3  501    0 -0.33889994111E+02 -0.47282375718E+02 -0.17948657267E+02  0.61060617849E+02  0.47000000000E+01 0. -1.
        -11    1    4    4    0    0  0.60686462361E+02 -0.13878143643E+02 -0.41953385124E+02  0.75070207861E+02  0.00000000000E+00 0.  1.
         12    1    4    4    0    0  0.46491571452E+02 -0.43004943821E+02 -0.16253161034E+03  0.17443456013E+03  0.00000000000E+00 0. -1.
         -5    1    5    5    0  502 -0.93790369259E+02  0.70618694715E+02 -0.46516369914E+02  0.12637047155E+03  0.47000000000E+01 0.  1.
         11    1    6    6    0    0  0.65591501904E+01  0.50590339018E+02  0.32880434360E+02  0.60692073757E+02  0.00000000000E+00 0. -1.
        -12    1    6    6    0    0  0.13943179366E+02 -0.17043570550E+02 -0.20793059926E+02  0.30286084082E+02  0.00000000000E+00 0.  1.
</event>
<event>
12    1  0.8684423E-002  0.2135528E+03  0.7818608E-02  0.1139864E+00
         21   -1    0    0  501  502  0.00000000000E+00  0.00000000000E+00  0.63695479950E+03  0.63695479950E+03  0.00000000000E+00 0. -1.
         21   -1    0    0  502  503 -0.00000000000E+00 -0.00000000000E+00 -0.14554142692E+03  0.14554142692E+03  0.00000000000E+00 0.  1.
         -6    2    1    2    0  503 -0.38501637313E+02  0.12426238296E+03 -0.38127415872E+02  0.21151616579E+03  0.16236339691E+03 0.  0.
        -24    2    3    3    0    0 -0.19362517559E+02  0.12248398714E+03  0.21013119263E+02  0.14915302369E+03  0.80173805592E+02 0.  0.
          6    2    1    2  501    0  0.38501637313E+02 -0.12426238296E+03  0.52954078845E+03  0.57098006063E+03  0.16935544606E+03 0.  0.
         24    2    5    5    0    0  0.20840452992E+01 -0.57414509392E+02  0.12325639144E+03  0.15759890424E+03  0.79652416486E+02 0.  0.
          5    1    5    5  501    0  0.36417592014E+02 -0.66847873571E+02  0.40628439700E+03  0.41338115639E+03  0.47000000000E+01 0. -1.
        -11    1    6    6    0    0 -0.23415510919E+01  0.19145980129E+02  0.12869825638E+02  0.23188010449E+02  0.00000000000E+00 0.  1.
         12    1    6    6    0    0  0.44255963911E+01 -0.76560489521E+02  0.11038656581E+03  0.13441089379E+03  0.00000000000E+00 0. -1.
         -5    1    3    3    0  503 -0.19139119754E+02  0.17783958192E+01 -0.59140535135E+02  0.62363142101E+02  0.47000000000E+01 0.  1.
         11    1    4    4    0    0  0.21065552435E+02  0.80564776161E+02 -0.87834825946E+01  0.83735238841E+02  0.00000000000E+00 0. -1.
        -12    1    4    4    0    0 -0.40428069994E+02  0.41919210982E+02  0.29796601857E+02  0.65417784853E+02  0.00000000000E+00 0.  1.
</event>
<event>
12    1  0.8684423E-002  0.1869710E+03  0.7818608E-02  0.1161377E+00
         21   -1    0    0  503  502  0.00000000000E+00  0.00000000000E+00  0.66049274894E+02  0.66049274894E+02  0.00000000000E+00 0.  1.
         21   -1    0    0  501  503 -0.00000000000E+00 -0.00000000000E+00 -0.14657428504E+04  0.14657428504E+04  0.00000000000E+00 0.  1.
          6    2    1    2  501    0  0.41112163966E+02  0.62098430638E+02 -0.13131150143E+04  0.13263593774E+04  0.17149849081E+03 0.  0.
         24    2    3    3    0    0  0.68033732366E+02  0.84819221328E+01 -0.10961115097E+04  0.11011658788E+04  0.80033238410E+02 0.  0.
         -6    2    1    2    0  502 -0.41112163966E+02 -0.62098430638E+02 -0.86578561285E+02  0.20543274789E+03  0.17076399362E+03 0.  0.
        -24    2    5    5    0    0  0.25592534611E+02 -0.71861625472E+02 -0.82007191107E+02  0.13769926864E+03  0.80105169289E+02 0.  0.
          5    1    3    3  501    0 -0.26921568400E+02  0.53616508505E+02 -0.21700350454E+03  0.22519349860E+03  0.47000000000E+01 0. -1.
        -11    1    4    4    0    0 -0.34824289237E+01  0.20609106768E+02 -0.53192139468E+03  0.53233188211E+03  0.00000000000E+00 0.  1.
         12    1    4    4    0    0  0.71516161290E+02 -0.12127184635E+02 -0.56419011504E+03  0.56883399674E+03  0.00000000000E+00 0. -1.
         -5    1    5    5    0  502 -0.66704698577E+02  0.97631948337E+01 -0.45713701774E+01  0.67733479247E+02  0.47000000000E+01 0.  1.
         11    1    6    6    0    0 -0.15265864196E+02 -0.11155539342E+02 -0.57500329849E+02  0.60529171483E+02  0.00000000000E+00 0. -1.
        -12    1    6    6    0    0  0.40858398807E+02 -0.60706086129E+02 -0.24506861258E+02  0.77170097155E+02  0.00000000000E+00 0.  1.
</event>
<event>
12    1  0.8684423E-002  0.1733702E+03  0.7818608E-02  0.1174554E+00
         21   -1    0    0  501  502  0.00000000000E+00  0.00000000000E+00  0.17640868955E+02  0.17640868955E+02  0.00000000000E+00 0. -1.
         21   -1    0    0  502  503 -0.00000000000E+00 -0.00000000000E+00 -0.17973617140E+04  0.17973617140E+04  0.00000000000E+00 0. -1.
         -6    2    1    2    0  503 -0.10046872723E+02 -0.22057666615E+02 -0.11058920390E+04  0.11193991427E+04  0.17166758125E+03 0.  0.
        -24    2    3    3    0    0  0.26719027310E+01 -0.54678327653E+02 -0.35365520123E+03  0.36633325921E+03  0.78301959562E+02 0.  0.
          6    2    1    2  501    0  0.10046872723E+02  0.22057666615E+02 -0.67382880606E+03  0.69560344027E+03  0.17097194485E+03 0.  0.
         24    2    5    5    0    0  0.52348793670E+02 -0.11202113830E+02 -0.57600112753E+03  0.58385367429E+03  0.79005889042E+02 0.  0.
          5    1    5    5  501    0 -0.42301920946E+02  0.33259780446E+02 -0.97827678527E+02  0.11174976598E+03  0.47000000000E+01 0. -1.
        -13    1    6    6    0    0  0.44165174846E+02  0.28476026207E+02 -0.25925406698E+03  0.26452621417E+03  0.00000000000E+00 0.  1.
         14    1    6    6    0    0  0.81836188235E+01 -0.39678140037E+02 -0.31674706055E+03  0.31932746011E+03  0.00000000000E+00 0. -1.
         -5    1    3    3    0  503 -0.12718775454E+02  0.32620661038E+02 -0.75223683775E+03  0.75306588347E+03  0.47000000000E+01 0.  1.
         13    1    4    4    0    0  0.61018645285E+01 -0.37317309170E+02 -0.34419678514E+03  0.34626758615E+03  0.00000000000E+00 0. -1.
        -14    1    4    4    0    0 -0.34299617975E+01 -0.17361018484E+02 -0.94584160854E+01  0.20065673065E+02  0.00000000000E+00 0.  1.
</event>
<event>
12    1  0.8684423E-002  0.1992886E+03  0.7818608E-02  0.1150564E+00
         21   -1    0    0  501  502  0.00000000000E+00  0.00000000000E+00  0.80927961338E+02  0.80927961338E+02  0.00000000000E+00 0. -1.
         21   -1    0    0  502  503 -0.00000000000E+00 -0.00000000000E+00 -0.11331382312E+04  0.11331382312E+04  0.00000000000E+00 0. -1.
         -6    2    1    2    0  503  0.99086323764E+02 -0.27266274852E+01 -0.98347802302E+03  0.10032580311E+04  0.17167446262E+03 0.  0.
        -24    2    3    3    0    0  0.12385981343E+03 -0.24422766100E+02 -0.90925601321E+03  0.92192264542E+03  0.85188858938E+02 0.  0.
          6    2    1    2  501    0 -0.99086323764E+02  0.27266274852E+01 -0.68732246804E+02  0.21080816142E+03  0.17288847595E+03 0.  0.
         24    2    5    5    0    0 -0.90345253621E+02  0.18318348538E+02 -0.11121712007E+03  0.16447715097E+03  0.78648958338E+02 0.  0.
          5    1    5    5  501    0 -0.87410701435E+01 -0.15591721052E+02  0.42484873269E+02  0.46331010450E+02  0.47000000000E+01 0. -1.
        -13    1    6    6    0    0 -0.79405624684E+02 -0.55864879263E+01 -0.41084065218E+02  0.89578806051E+02  0.00000000000E+00 0.  1.
         14    1    6    6    0    0 -0.10939628937E+02  0.23904836464E+02 -0.70133054856E+02  0.74898344915E+02  0.00000000000E+00 0. -1.
         -5    1    3    3    0  503 -0.24773489669E+02  0.21696138614E+02 -0.74222009807E+02  0.81335385663E+02  0.47000000000E+01 0.  1.
         13    1    4    4    0    0  0.73792155592E+02  0.28812460995E+02 -0.47404549047E+03  0.48061894175E+03  0.00000000000E+00 0. -1.
        -14    1    4    4    0    0  0.50067657842E+02 -0.53235227094E+02 -0.43521052274E+03  0.44130370366E+03  0.00000000000E+00 0.  1.
</event>
<event>
12    1  0.8684423E-002  0.2075309E+03  0.7818608E-02  0.1143639E+00
         21   -1    0    0  503  502  0.00000000000E+00  0.00000000000E+00  0.23667024194E+02  0.23667024194E+02  0.00000000000E+00 0. -1.
         21   -1    0    0  501  503 -0.00000000000E+00 -0.00000000000E+00 -0.18430454989E+04  0.18430454989E+04  0.00000000000E+00 0. -1.
          6    2    1    2  501    0  0.10012067022E+03 -0.58596050826E+02 -0.79628010617E+03  0.82287974133E+03  0.17207967755E+03 0.  0.
         24    2    3    3    0    0  0.77817618706E+02 -0.10236602399E+03 -0.67887517573E+03  0.69552494421E+03  0.79680983554E+02 0.  0.
         -6    2    1    2    0  502 -0.10012067022E+03  0.58596050826E+02 -0.10230983685E+04  0.10438327818E+04  0.17146124582E+03 0.  0.
        -24    2    5    5    0    0 -0.12779664829E+03  0.54330751398E+02 -0.63738310248E+03  0.65707380125E+03  0.78771486618E+02 0.  0.
          5    1    3    3  501    0  0.22303051512E+02  0.43769973167E+02 -0.11740493044E+03  0.12735479712E+03  0.47000000000E+01 0. -1.
        -13    1    4    4    0    0 -0.92516597890E+01 -0.36601293576E+02 -0.25743427008E+03  0.26018772321E+03  0.00000000000E+00 0.  1.
         14    1    4    4    0    0  0.87069278495E+02 -0.65764730417E+02 -0.42144090566E+03  0.43533722100E+03  0.00000000000E+00 0. -1.
         -5    1    5    5    0  502  0.27675978071E+02  0.42652994281E+01 -0.38571526605E+03  0.38675898051E+03  0.47000000000E+01 0.  1.
         11    1    6    6    0    0 -0.29645266631E+02  0.45081314937E+02 -0.32665867508E+03  0.33108466711E+03  0.00000000000E+00 0. -1.
        -12    1    6    6    0    0 -0.98151381658E+02  0.92494364608E+01 -0.31072442740E+03  0.32598913414E+03  0.00000000000E+00 0.  1.
</event>
<event>
12    1  0.8684423E-002  0.1870970E+03  0.7818608E-02  0.1161807E+00
         21   -1    0    0  501  502  0.00000000000E+00  0.00000000000E+00  0.12143115514E+04  0.12143115514E+04  0.00000000000E+00 0. -1.
         21   -1    0    0  502  503 -0.00000000000E+00 -0.00000000000E+00 -0.35663886632E+02  0.35663886632E+02  0.00000000000E+00 0.  1.
         -6    2    1    2    0  503 -0.66002306304E+02  0.25887471389E+00  0.31038099922E+03  0.36241089430E+03  0.17506833002E+03 0.  0.
        -24    2    3    3    0    0 -0.81073591867E+02  0.52290491127E+01  0.10699846141E+03  0.15835601696E+03  0.83831301489E+02 0.  0.
          6    2    1    2  501    0  0.66002306304E+02 -0.25887471389E+00  0.86826666560E+03  0.88756454378E+03  0.17183551826E+03 0.  0.
         24    2    5    5    0    0  0.10923991181E+03  0.17163147038E+02  0.68239514411E+03  0.69587904649E+03  0.79728180032E+02 0.  0.
          5    1    5    5  501    0 -0.43237605503E+02 -0.17422021751E+02  0.18587152149E+03  0.19168549729E+03  0.47000000000E+01 0. -1.
        -13    1    6    6    0    0  0.45013878860E+02 -0.30668157353E+02  0.22293606809E+03  0.22949351978E+03  0.00000000000E+00 0.  1.
         14    1    6    6    0    0  0.64226032948E+02  0.47831304390E+02  0.45945907602E+03  0.46638552671E+03  0.00000000000E+00 0. -1.
         -5    1    3    3    0  503  0.15071285562E+02 -0.49701743988E+01  0.20338253781E+03  0.20405487734E+03  0.47000000000E+01 0.  1.
         13    1    4    4    0    0 -0.43660910420E+01  0.84070283623E+01  0.74313287598E+02  0.74914655379E+02  0.00000000000E+00 0. -1.
        -14    1    4    4    0    0 -0.76707500825E+02 -0.31779792496E+01  0.32685173814E+02  0.83441361579E+02  0.00000000000E+00 0.  1.
</event>
<event>
12    1  0.8684423E-002  0.1722306E+03  0.7818608E-02  0.1176273E+00
         21   -1    0    0  503  502  0.00000000000E+00  0.00000000000E+00  0.43705390335E+03  0.43705390335E+03  0.00000000000E+00 0. -1.
         21   -1    0    0  501  503 -0.00000000000E+00 -0.00000000000E+00 -0.13455144125E+03  0.13455144125E+03  0.00000000000E+00 0. -1.
          6    2    1    2  501    0  0.75579860735E+01  0.24481034434E+01 -0.50988387909E+02  0.17961960901E+03  0.17204729546E+03 0.  0.
         24    2    3    3    0    0  0.57490166605E+02  0.27897886038E+02 -0.53337060762E+02  0.12332999761E+03  0.91005686409E+02 0.  0.
         -6    2    1    2    0  502 -0.75579860735E+01 -0.24481034434E+01  0.35349085001E+03  0.39198573559E+03  0.16921560063E+03 0.  0.
        -24    2    5    5    0    0 -0.41387055414E+02  0.52430192661E+02  0.23638075052E+03  0.25822139535E+03  0.79627987182E+02 0.  0.
          5    1    3    3  501    0 -0.49932180532E+02 -0.25449782594E+02  0.23486728527E+01  0.56289611394E+02  0.47000000000E+01 0. -1.
        -13    1    4    4    0    0  0.44611239279E+02  0.28001576505E-01 -0.73940276080E+02  0.86355821349E+02  0.00000000000E+00 0.  1.
         14    1    4    4    0    0  0.12878927326E+02  0.27869884461E+02  0.20603215318E+02  0.36974176264E+02  0.00000000000E+00 0. -1.
         -5    1    5    5    0  502  0.33829069340E+02 -0.54878296104E+02  0.11711009949E+03  0.13376434024E+03  0.47000000000E+01 0.  1.
         13    1    6    6    0    0  0.17028022965E+02 -0.23485769743E+01  0.87471914637E+02  0.89144855321E+02  0.00000000000E+00 0. -1.
        -14    1    6    6    0    0 -0.58415078379E+02  0.54778769635E+02  0.14890883588E+03  0.16907654003E+03  0.00000000000E+00 0.  1.
</event>
<event>
12    1  0.8684423E-002  0.2861257E+03  0.7818608E-02  0.1092431E+00
         21   -1    0    0  501  502  0.00000000000E+00  0.00000000000E+00  0.11024932897E+04  0.11024932897E+04  0.00000000000E+00 0. -1.
         21   -1    0    0  502  503 -0.00000000000E+00 -0.00000000000E+00 -0.10794493584E+03  0.10794493584E+03  0.00000000000E+00 0.  1.
         -6    2    1    2    0  503 -0.22031317983E+03 -0.61691406659E+02  0.83597093033E+03  0.88358096890E+03  0.17182609049E+03 0.  0.
        -24    2    3    3    0    0 -0.23361577945E+03 -0.27198756073E+02  0.71715252686E+03  0.75905544900E+03  0.80878446674E+02 0.  0.
          6    2    1    2  501    0  0.22031317983E+03  0.61691406659E+02  0.15857742352E+03  0.32685725663E+03  0.17130423259E+03 0.  0.
         24    2    5    5    0    0  0.18537626704E+03 -0.12490582841E+02  0.12708026021E+03  0.23889296423E+03  0.80000504885E+02 0.  0.
          5    1    5    5  501    0  0.34936912786E+02  0.74181989500E+02  0.31497163309E+02  0.87964292402E+02  0.47000000000E+01 0. -1.
        -11    1    6    6    0    0  0.54834474921E+02 -0.33165579093E+02  0.70061448696E+02  0.94949364768E+02  0.00000000000E+00 0.  1.
         12    1    6    6    0    0  0.13054179212E+03  0.20674996251E+02  0.57018811515E+02  0.14394359946E+03  0.00000000000E+00 0. -1.
         -5    1    3    3    0  503  0.13302599626E+02 -0.34492650586E+02  0.11881840347E+03  0.12452551989E+03  0.47000000000E+01 0.  1.
         13    1    4    4    0    0 -0.18514056285E+03 -0.48367967159E+02  0.49516874557E+03  0.53085645409E+03  0.00000000000E+00 0. -1.
        -14    1    4    4    0    0 -0.48475216596E+02  0.21169211085E+02  0.22198378129E+03  0.22819899491E+03  0.00000000000E+00 0.  1.
</event>
<event>
12    1  0.8684423E-002  0.1805676E+03  0.7818608E-02  0.1167598E+00
         21   -1    0    0  501  502  0.00000000000E+00  0.00000000000E+00  0.89220303610E+03  0.89220303610E+03  0.00000000000E+00 0.  1.
         21   -1    0    0  502  503 -0.00000000000E+00 -0.00000000000E+00 -0.36281353328E+02  0.36281353328E+02  0.00000000000E+00 0.  1.
         -6    2    1    2    0  503  0.47880229187E+02 -0.27661934806E+02  0.43807155471E+03  0.47328840470E+03  0.17040401401E+03 0.  0.
        -24    2    3    3    0    0 -0.12834376692E+02 -0.61654652531E+02  0.30749520348E+03  0.32525448384E+03  0.85271106990E+02 0.  0.
          6    2    1    2  501    0 -0.47880229187E+02  0.27661934806E+02  0.41785012805E+03  0.45519598472E+03  0.17189228025E+03 0.  0.
         24    2    5    5    0    0 -0.18879368705E+02 -0.50543454574E+02  0.22675743588E+03  0.24663990153E+03  0.80630235860E+02 0.  0.
          5    1    5    5  501    0 -0.29000860482E+02  0.78205389380E+02  0.19109269217E+03  0.20855608319E+03  0.47000000000E+01 0. -1.
        -13    1    6    6    0    0 -0.39389602175E+02 -0.42954787610E+02  0.21293955495E+03  0.22077116796E+03  0.00000000000E+00 0.  1.
         14    1    6    6    0    0  0.20510233469E+02 -0.75886669637E+01  0.13817880935E+02  0.25868733575E+02  0.00000000000E+00 0. -1.
         -5    1    3    3    0  503  0.60714605879E+02  0.33992717725E+02  0.13057635123E+03  0.14803392087E+03  0.47000000000E+01 0.  1.
         13    1    4    4    0    0 -0.22129434346E+02 -0.41967064956E+02  0.29756799003E+03  0.30132649252E+03  0.00000000000E+00 0. -1.
        -14    1    4    4    0    0  0.92950576538E+01 -0.19687587575E+02  0.99272134491E+01  0.23927991311E+02  0.00000000000E+00 0.  1.
</event>
<event>
12    1  0.8684423E-002  0.2527374E+03  0.7818608E-02  0.1111773E+00
         21   -1    0    0  503  502  0.00000000000E+00  0.00000000000E+00  0.11466755981E+03  0.11466755981E+03  0.00000000000E+00 0.  1.
         21   -1    0    0  501  503 -0.00000000000E+00 -0.00000000000E+00 -0.77529855948E+03  0.77529855948E+03  0.00000000000E+00 0. -1.
          6    2    1    2  501    0 -0.17548197618E+03  0.54336388465E+02 -0.56726036163E+03  0.62053288659E+03  0.17184405252E+03 0.  0.
         24    2    3    3    0    0 -0.13883579981E+03 -0.28395402321E+02 -0.38273746901E+03  0.41496469997E+03  0.75007025361E+02 0.  0.
         -6    2    1    2    0  502  0.17548197618E+03 -0.54336388465E+02 -0.93370638032E+02  0.26943323270E+03  0.17357944510E+03 0.  0.
        -24    2    5    5    0    0  0.67136274241E+02  0.25674470831E+01 -0.10391862175E+03  0.14650972970E+03  0.78435641436E+02 0.  0.
          5    1    3    3  501    0 -0.36646176368E+02  0.82731790785E+02 -0.18452289262E+03  0.20556818662E+03  0.47000000000E+01 0. -1.
        -13    1    4    4    0    0 -0.57867273827E+02 -0.21164235457E+02 -0.77072206017E+02  0.98674572119E+02  0.00000000000E+00 0.  1.
         14    1    4    4    0    0 -0.80968525988E+02 -0.72311668636E+01 -0.30566526299E+03  0.31629012785E+03  0.00000000000E+00 0. -1.
         -5    1    5    5    0  502  0.10834570194E+03 -0.56903835548E+02  0.10547983717E+02  0.12292350300E+03  0.47000000000E+01 0.  1.
         13    1    6    6    0    0  0.73619390731E+02  0.24048520124E+02 -0.62970642667E+02  0.99817071935E+02  0.00000000000E+00 0. -1.
        -14    1    6    6    0    0 -0.64831164897E+01 -0.21481073041E+02 -0.40947979082E+02  0.46692657767E+02  0.00000000000E+00 0.  1.
</event>
<event>
12    1  0.8684423E-002  0.2046865E+03  0.7818608E-02  0.1146352E+00
         21   -1    0    0  501  502  0.00000000000E+00  0.00000000000E+00  0.13623759326E+03  0.13623759326E+03  0.00000000000E+00 0. -1.
         21   -1    0    0  502  503 -0.00000000000E+00 -0.00000000000E+00 -0.30438574831E+03  0.30438574831E+03  0.00000000000E+00 0.  1.
         -6    2    1    2    0  503 -0.12751424729E+02 -0.10376694038E+03 -0.93978960618E+02  0.22523010837E+03  0.17597266813E+03 0.  0.
        -24    2    3    3    0    0  0.39022030803E+02 -0.10707724390E+03 -0.10176870826E+03  0.17255925328E+03  0.80197075150E+02 0.  0.
          6    2    1    2  501    0  0.12751424729E+02  0.10376694038E+03 -0.74169194432E+02  0.21539323320E+03  0.17309823442E+03 0.  0.
         24    2    5    5    0    0 -0.15735219144E+01  0.81203611484E+02 -0.11728664281E+03  0.16444706297E+03  0.81793504926E+02 0.  0.
          5    1    5    5  501    0  0.14324946643E+02  0.22563328891E+02  0.43117448375E+02  0.50946170232E+02  0.47000000000E+01 0. -1.
        -11    1    6    6    0    0 -0.39941090039E+01  0.60062038156E+02 -0.17888344988E+02  0.62796450701E+02  0.00000000000E+00 0.  1.
         12    1    6    6    0    0  0.24205870896E+01  0.21141573328E+02 -0.99398297819E+02  0.10165061227E+03  0.00000000000E+00 0. -1.
         -5    1    3    3    0  503 -0.51773455532E+02  0.33103035291E+01  0.77897476426E+01  0.52670855086E+02  0.47000000000E+01 0.  1.
         11    1    4    4    0    0  0.27551235397E+02 -0.24273128828E+02  0.48921445096E+01  0.37043061873E+02  0.00000000000E+00 0. -1.
        -12    1    4    4    0    0  0.11470795406E+02 -0.82804115076E+02 -0.10666085277E+03  0.13551619141E+03  0.00000000000E+00 0.  1.
</event>
<event>
12    1  0.8684423E-002  0.2046407E+03  0.7818608E-02  0.1146099E+00
         21   -1    0    0  501  502  0.00000000000E+00  0.00000000000E+00  0.11804377398E+04  0.11804377398E+04  0.00000000000E+00 0.  1.
         21   -1    0    0  502  503 -0.00000000000E+00 -0.00000000000E+00 -0.46634512867E+02  0.46634512867E+02  0.00000000000E+00 0.  1.
         -6    2    1    2    0  503  0.10797117988E+03 -0.30725552262E+02  0.26322198825E+03  0.33276273690E+03  0.16983341462E+03 0.  0.
        -24    2    3    3    0    0  0.81924764495E+02 -0.40017833610E+02  0.27662471261E+03  0.30167439073E+03  0.78569156509E+02 0.  0.
          6    2    1    2  501    0 -0.10797117988E+03  0.30725552262E+02  0.87058123870E+03  0.89430951578E+03  0.17110225483E+03 0.  0.
         24    2    5    5    0    0 -0.75944357718E+02  0.22537486091E+02  0.84461294729E+03  0.85201053325E+03  0.79217638700E+02 0.  0.
          5    1    5    5  501    0 -0.32026822161E+02  0.81880661713E+01  0.25968291406E+02  0.42298982539E+02  0.47000000000E+01 0. -1.
        -11    1    6    6    0    0 -0.78002072139E+02  0.16865246399E+01  0.44058873173E+03  0.44744340217E+03  0.00000000000E+00 0.  1.
         12    1    6    6    0    0  0.20577144211E+01  0.20850961451E+02  0.40402421556E+03  0.40456713107E+03  0.00000000000E+00 0. -1.
         -5    1    3    3    0  503  0.26046415384E+02  0.92922813480E+01 -0.13402724357E+02  0.31088346164E+02  0.47000000000E+01 0.  1.
         13    1    4    4    0    0  0.10697418074E+02 -0.25724753468E+01  0.15769615206E+03  0.15807950138E+03  0.00000000000E+00 0. -1.
        -14    1    4    4    0    0  0.71227346420E+02 -0.37445358263E+02  0.11892856055E+03  0.14359488935E+03  0.00000000000E+00 0.  1.
</event>
<event>
12    1  0.8684423E-002  0.2205590E+03  0.7818608E-02  0.1133517E+00
         21   -1    0    0  503  502  0.00000000000E+00  0.00000000000E+00  0.35337525532E+03  0.35337525532E+03  0.00000000000E+00 0. -1.
         21   -1    0    0  501  503 -0.00000000000E+00 -0.00000000000E+00 -0.42073273930E+03  0.42073273930E+03  0.00000000000E+00 0. -1.
          6    2    1    2  501    0 -0.11800831632E+03  0.70088628005E+02 -0.35124597323E+03  0.41460981210E+03  0.17230549637E+03 0.  0.
         24    2    3    3    0    0 -0.24071180112E+02  0.58971943066E+02 -0.94420643689E+02  0.14087799784E+03  0.82911039911E+02 0.  0.
         -6    2    1    2    0  502  0.11800831632E+03 -0.70088628005E+02  0.28388848925E+03  0.35949818253E+03  0.17264961748E+03 0.  0.
        -24    2    5    5    0    0  0.14753332712E+02  0.20846601511E+02  0.11660321498E+03  0.14284809461E+03  0.78466723963E+02 0.  0.
          5    1    3    3  501    0 -0.93937136211E+02  0.11116684938E+02 -0.25682532954E+03  0.27373181426E+03  0.47000000000E+01 0. -1.
        -13    1    4    4    0    0 -0.52376940816E+02  0.47154821708E+02 -0.81081434289E+02  0.10742960544E+03  0.00000000000E+00 0.  1.
         14    1    4    4    0    0  0.28305760705E+02  0.11817121358E+02 -0.13339209400E+02  0.33448392393E+02  0.00000000000E+00 0. -1.
         -5    1    5    5    0  502  0.10325498361E+03 -0.90935229516E+02  0.16728527427E+03  0.21665008792E+03  0.47000000000E+01 0.  1.
         11    1    6    6    0    0  0.15431751391E+02  0.14115933663E+02  0.12794448423E+03  0.12964254540E+03  0.00000000000E+00 0. -1.
        -12    1    6    6    0    0 -0.67841867884E+00  0.67306678482E+01 -0.11341269251E+02  0.13205549205E+02  0.00000000000E+00 0.  1.
</event>
<event>
12    1  0.8684423E-002  0.2584778E+03  0.7818608E-02  0.1108118E+00
         21   -1    0    0  503  502  0.00000000000E+00  0.00000000000E+00  0.14421740719E+03  0.14421740719E+03  0.00000000000E+00 0. -1.
         21   -1    0    0  501  503 -0.00000000000E+00 -0.00000000000E+00 -0.52705226759E+03  0.52705226759E+03  0.00000000000E+00 0. -1.
          6    2    1    2  501    0  0.19239136268E+03  0.94184043353E+01 -0.30867581627E+03  0.40236386261E+03  0.17179282760E+03 0.  0.
         24    2    3    3    0    0  0.14435122552E+03  0.19735452267E+02 -0.11442013587E+03  0.20193518297E+03  0.80368440585E+02 0.  0.
         -6    2    1    2    0  502 -0.19239136268E+03 -0.94184043353E+01 -0.74159044140E+02  0.26890581217E+03  0.17235901258E+03 0.  0.
        -24    2    5    5    0    0 -0.69183324276E+02  0.15021562364E+02  0.25244692490E+02  0.10865374337E+03  0.78462486298E+02 0.  0.
          5    1    3    3  501    0  0.48040137153E+02 -0.10317047932E+02 -0.19425568040E+03  0.20042867964E+03  0.47000000000E+01 0. -1.
        -11    1    4    4    0    0  0.22116508194E+02  0.33929423106E+02 -0.45417590180E+02  0.60853127979E+02  0.00000000000E+00 0.  1.
         12    1    4    4    0    0  0.12223471733E+03 -0.14193970839E+02 -0.69002545685E+02  0.14108205499E+03  0.00000000000E+00 0. -1.
         -5    1    5    5    0  502 -0.12320803840E+03 -0.24439966699E+02 -0.99403736630E+02  0.16025206880E+03  0.47000000000E+01 0.  1.
         13    1    6    6    0    0 -0.65747049575E+02  0.69635024585E+01 -0.14725520965E+02  0.67734820159E+02  0.00000000000E+00 0. -1.
        -14    1    6    6    0    0 -0.34362747013E+01  0.80580599051E+01  0.39970213454E+02  0.40918923212E+02  0.00000000000E+00 0.  1.
</event>
<event>
12    1  0.8684423E-002  0.1971204E+03  0.7818608E-02  0.1157241E+00
         21   -1    0    0  503  502  0.00000000000E+00  0.00000000000E+00  0.26651761163E+03  0.26651761163E+03  0.00000000000E+00 0. -1.
         21   -1    0    0  501  503 -0.00000000000E+00 -0.00000000000E+00 -0.41344801800E+03  0.41344801800E+03  0.00000000000E+00 0. -1.
          6    2    1    2  501    0  0.70366921625E+02  0.54128264269E+02 -0.35347506163E+03  0.39445352554E+03  0.15088933681E+03 0.  0.
         24    2    3    3    0    0  0.75631344831E+02  0.58794158472E+02 -0.16950710303E+03  0.21029113928E+03  0.79453457392E+02 0.  0.
         -6    2    1    2    0  502 -0.70366921625E+02 -0.54128264269E+02  0.20654465526E+03  0.28551210409E+03  0.17599742700E+03 0.  0.
        -24    2    5    5    0    0 -0.76187943414E+02 -0.88081834976E+02  0.20680511652E+03  0.25074305034E+03  0.80874648082E+02 0.  0.
          5    1    3    3  501    0 -0.52644232063E+01 -0.46658942022E+01 -0.18396795860E+03  0.18416238626E+03  0.47000000000E+01 0. -1.
        -11    1    4    4    0    0 -0.28821111234E+01  0.10381567930E+02  0.57722199499E+01  0.12223012737E+02  0.00000000000E+00 0.  1.
         12    1    4    4    0    0  0.78513455954E+02  0.48412590542E+02 -0.17527932298E+03  0.19806812655E+03  0.00000000000E+00 0. -1.
         -5    1    5    5    0  502  0.58210217898E+01  0.33953570706E+02 -0.26046125364E+00  0.34769053747E+02  0.47000000000E+01 0.  1.
         13    1    6    6    0    0 -0.76613214507E+02 -0.88307748906E+02  0.13357322697E+03  0.17750957754E+03  0.00000000000E+00 0. -1.
        -14    1    6    6    0    0  0.42527109283E+00  0.22591392981E+00  0.73231889542E+02  0.73233472801E+02  0.00000000000E+00 0.  1.
</event>
<event>
12    1  0.8684423E-002  0.1886822E+03  0.7818608E-02  0.1160271E+00
         21   -1    0    0  503  502  0.00000000000E+00  0.00000000000E+00  0.12213333372E+03  0.12213333372E+03  0.00000000000E+00 0. -1.
         21   -1    0    0  501  503 -0.00000000000E+00 -0.00000000000E+00 -0.55293782135E+03  0.55293782135E+03  0.00000000000E+00 0. -1.
          6    2    1    2  501    0 -0.56237213488E+02  0.27923535851E+02 -0.45012646559E+03  0.48807255745E+03  0.17792874494E+03 0.  0.
         24    2    3    3    0    0 -0.65126668114E+02 -0.20384330941E+02 -0.41375722420E+03  0.42677423678E+03  0.79272976198E+02 0.  0.
         -6    2    1    2    0  502  0.56237213488E+02 -0.27923535851E+02  0.19321977960E+02  0.18699859762E+03  0.17507937813E+03 0.  0.
        -24    2    5    5    0    0  0.88103481156E+02 -0.50460177399E+02 -0.18271151549E+02  0.13260473204E+03  0.83317027579E+02 0.  0.
          5    1    3    3  501    0  0.88894546261E+01  0.48307866792E+02 -0.36369241395E+02  0.61298320671E+02  0.47000000000E+01 0. -1.
        -13    1    4    4    0    0 -0.20578860018E+02  0.42236125375E+01 -0.17727997734E+02  0.27488366378E+02  0.00000000000E+00 0.  1.
         14    1    4    4    0    0 -0.44547808096E+02 -0.24607943479E+02 -0.39602922646E+03  0.39928587040E+03  0.00000000000E+00 0. -1.
         -5    1    5    5    0  502 -0.31866267668E+02  0.22536641548E+02  0.37593129509E+02  0.54393865589E+02  0.47000000000E+01 0.  1.
         13    1    6    6    0    0  0.59013112062E+02  0.67666649577E+01  0.13593306322E+02  0.60935319205E+02  0.00000000000E+00 0. -1.
        -14    1    6    6    0    0  0.29090369094E+02 -0.57226842356E+02 -0.31864457871E+02  0.71669412831E+02  0.00000000000E+00 0.  1.
</event>
<event>
12    1  0.8684423E-002  0.2326336E+03  0.7818608E-02  0.1125045E+00
         21   -1    0    0  503  502  0.00000000000E+00  0.00000000000E+00  0.11274873626E+04  0.11274873626E+04  0.00000000000E+00 0.  1.
         21   -1    0    0  501  503 -0.00000000000E+00 -0.00000000000E+00 -0.71857604437E+02  0.71857604437E+02  0.00000000000E+00 0. -1.
          6    2    1    2  501    0 -0.11417548992E+03 -0.10495244328E+03  0.17911738065E+03  0.29248646435E+03  0.17150579561E+03 0.  0.
         24    2    3    3    0    0 -0.82281313543E+02 -0.79679022837E+01  0.44158599559E+02  0.12319617440E+03  0.79960074077E+02 0.  0.
         -6    2    1    2    0  502  0.11417548992E+03  0.10495244328E+03  0.87651237749E+03  0.90685850266E+03  0.17339936015E+03 0.  0.
        -24    2    5    5    0    0  0.14083406908E+02 -0.85841466004E+01  0.26469917413E+03  0.27658358794E+03  0.78490753639E+02 0.  0.
          5    1    3    3  501    0 -0.31894176381E+02 -0.96984541000E+02  0.13495878109E+03  0.16929028996E+03  0.47000000000E+01 0. -1.
        -13    1    4    4    0    0 -0.15210890256E+02 -0.68595293863E+01  0.52974027317E+02  0.55539822614E+02  0.00000000000E+00 0.  1.
         14    1    4    4    0    0 -0.67070423287E+02 -0.11083728974E+01 -0.88154277574E+01  0.67656351785E+02  0.00000000000E+00 0. -1.
         -5    1    5    5    0  502  0.10009208302E+03  0.11353658988E+03  0.61181320336E+03  0.63027491472E+03  0.47000000000E+01 0.  1.
         13    1    6    6    0    0  0.40799562567E+02 -0.22816223448E+02  0.12067423216E+03  0.12941195719E+03  0.00000000000E+00 0. -1.
        -14    1    6    6    0    0 -0.26716155659E+02  0.14232076847E+02  0.14402494197E+03  0.14717163074E+03  0.00000000000E+00 0.  1.
</event>
<event>
12    1  0.8684423E-002  0.1952128E+03  0.7818608E-02  0.1154914E+00
         21   -1    0    0  503  502  0.00000000000E+00  0.00000000000E+00  0.32793136020E+03  0.32793136020E+03  0.00000000000E+00 0.  1.
         21   -1    0    0  501  503 -0.00000000000E+00 -0.00000000000E+00 -0.23662901289E+03  0.23662901289E+03  0.00000000000E+00 0.  1.
          6    2    1    2  501    0 -0.49421433418E+02 -0.65360764751E+02 -0.15837700893E+03  0.24762535415E+03  0.17181539923E+03 0.  0.
         24    2    3    3    0    0 -0.39259300092E+01  0.27022838984E+02 -0.61436062163E+02  0.10611843478E+03  0.82104115086E+02 0.  0.
         -6    2    1    2    0  502  0.49421433418E+02  0.65360764751E+02  0.24967935623E+03  0.31693501894E+03  0.17718215952E+03 0.  0.
        -24    2    5    5    0    0  0.12878864122E+02 -0.22517006452E+02  0.17704335502E+03  0.19711873993E+03  0.82695630812E+02 0.  0.
          5    1    3    3  501    0 -0.45495503409E+02 -0.92383603735E+02 -0.96940946766E+02  0.14150691937E+03  0.47000000000E+01 0. -1.
        -13    1    4    4    0    0  0.12277725776E+02 -0.28630806235E+01 -0.69946362798E+02  0.71073437018E+02  0.00000000000E+00 0.  1.
         14    1    4    4    0    0 -0.16203655786E+02  0.29885919607E+02  0.85103006354E+01  0.35044997767E+02  0.00000000000E+00 0. -1.
         -5    1    5    5    0  502  0.36542569296E+02  0.87877771203E+02  0.72636001209E+02  0.11981627900E+03  0.47000000000E+01 0.  1.
         11    1    6    6    0    0 -0.35029026538E+02 -0.38340320755E+01  0.73342400793E+02  0.81368545866E+02  0.00000000000E+00 0. -1.
        -12    1    6    6    0    0  0.47907890661E+02 -0.18682974376E+02  0.10370095423E+03  0.11575019407E+03  0.00000000000E+00 0.  1.
</event>
<event>
12    1  0.8684423E-002  0.2552392E+03  0.7818608E-02  0.1110279E+00
         21   -1    0    0  503  502  0.00000000000E+00  0.00000000000E+00  0.54233341478E+03  0.54233341478E+03  0.00000000000E+00 0.  1.
         21   -1    0    0  501  503 -0.00000000000E+00 -0.00000000000E+00 -0.19955157253E+03  0.19955157253E+03  0.00000000000E+00 0. -1.
          6    2    1    2  501    0  0.11347570351E+03  0.14812571966E+03 -0.64027407980E+02  0.26163421408E+03  0.17185746679E+03 0.  0.
         24    2    3    3    0    0  0.49627633517E+02  0.12968300210E+03  0.11790693116E+02  0.16070263167E+03  0.80035819113E+02 0.  0.
         -6    2    1    2    0  502 -0.11347570351E+03 -0.14812571966E+03  0.40680925022E+03  0.48025077323E+03  0.17415244763E+03 0.  0.
        -24    2    5    5    0    0 -0.40311342568E+02 -0.10274417233E+03  0.12341993385E+03  0.18403446176E+03  0.80341980042E+02 0.  0.
          5    1    3    3  501    0  0.63848069991E+02  0.18442717562E+02 -0.75818101096E+02  0.10093158240E+03  0.47000000000E+01 0. -1.
        -13    1    4    4    0    0  0.26673737270E+02  0.21014849651E+01  0.15683693832E+02  0.31014234655E+02  0.00000000000E+00 0.  1.
         14    1    4    4    0    0  0.22953896247E+02  0.12758151713E+03 -0.38930007159E+01  0.12968839702E+03  0.00000000000E+00 0. -1.
         -5    1    5    5    0  502 -0.73164360940E+02 -0.45381547330E+02  0.28338931637E+03  0.29621631147E+03  0.47000000000E+01 0.  1.
         13    1    6    6    0    0 -0.20588509075E+02 -0.40863518429E+02  0.13676182692E+01  0.45777551530E+02  0.00000000000E+00 0. -1.
        -14    1    6    6    0    0 -0.19722833492E+02 -0.61880653900E+02  0.12205231558E+03  0.13825691023E+03  0.00000000000E+00 0.  1.
</event>
<event>
12    1  0.8684423E-002  0.2410461E+03  0.7818608E-02  0.1120221E+00
         21   -1    0    0  503  502  0.00000000000E+00  0.00000000000E+00  0.12432793342E+03  0.12432793342E+03  0.00000000000E+00 0.  1.
         21   -1    0    0  501  503 -0.00000000000E+00 -0.00000000000E+00 -0.48660637119E+03  0.48660637119E+03  0.00000000000E+00 0. -1.
          6    2    1    2  501    0  0.16654445846E+03 -0.14927554823E+02 -0.25724985654E+03  0.34800046478E+03  0.16421615712E+03 0.  0.
         24    2    3    3    0    0  0.91361776024E+02  0.79493509184E+01 -0.23724713155E+03  0.26677246738E+03  0.80443654974E+02 0.  0.
         -6    2    1    2    0  502 -0.16654445846E+03  0.14927554823E+02 -0.10502858123E+03  0.26293383983E+03  0.17361829603E+03 0.  0.
        -24    2    5    5    0    0 -0.14044948063E+03 -0.33261292613E+02 -0.12253067931E+03  0.20521446422E+03  0.79163367511E+02 0.  0.
          5    1    3    3  501    0  0.75182682434E+02 -0.22876905741E+02 -0.20002724991E+02  0.81227997398E+02  0.47000000000E+01 0. -1.
        -11    1    4    4    0    0  0.16619302354E+02  0.15494666239E+02 -0.58162503165E+01  0.23454523238E+02  0.00000000000E+00 0.  1.
         12    1    4    4    0    0  0.74742473670E+02 -0.75453153201E+01 -0.23143088123E+03  0.24331794414E+03  0.00000000000E+00 0. -1.
         -5    1    5    5    0  502 -0.26094977824E+02  0.48188847436E+02  0.17502098071E+02  0.57719375618E+02  0.47000000000E+01 0.  1.
         13    1    6    6    0    0  0.92732308512E+01 -0.30533809502E+01 -0.16865339309E+02  0.19487319355E+02  0.00000000000E+00 0. -1.
        -14    1    6    6    0    0 -0.14972271149E+03 -0.30207911663E+02 -0.10566534000E+03  0.18572714486E+03  0.00000000000E+00 0.  1.
</event>
<event>
12    1  0.8684423E-002  0.2445233E+03  0.7818608E-02  0.1116840E+00
         21   -1    0    0  501  502  0.00000000000E+00  0.00000000000E+00  0.29681606585E+03  0.29681606585E+03  0.00000000000E+00 0.  1.
         21   -1    0    0  502  503 -0.00000000000E+00 -0.00000000000E+00 -0.34625704887E+03  0.34625704887E+03  0.00000000000E+00 0. -1.
         -6    2    1    2    0  503 -0.17023431373E+03  0.33630955468E+02  0.18331209860E+03  0.30548511008E+03  0.17206703418E+03 0.  0.
        -24    2    3    3    0    0 -0.15707579973E+03  0.40850990117E+02  0.75691217812E+02  0.19672105640E+03  0.81415006736E+02 0.  0.
          6    2    1    2  501    0  0.17023431373E+03 -0.33630955468E+02 -0.23275308162E+03  0.33758800464E+03  0.17228145905E+03 0.  0.
         24    2    5    5    0    0  0.83181612386E+02 -0.22038359661E+02 -0.22167196858E+03  0.24894579034E+03  0.73693113250E+02 0.  0.
          5    1    5    5  501    0  0.87052701343E+02 -0.11592595807E+02 -0.11081113044E+02  0.88642214294E+02  0.47000000000E+01 0. -1.
        -11    1    6    6    0    0 -0.13104684047E+02 -0.25972863948E+01 -0.43309114692E+02  0.45322820477E+02  0.00000000000E+00 0.  1.
         12    1    6    6    0    0  0.96286296433E+02 -0.19441073267E+02 -0.17836285389E+03  0.20362296987E+03  0.00000000000E+00 0. -1.
         -5    1    3    3    0  503 -0.13158513995E+02 -0.72200346487E+01  0.10762088079E+03  0.10876405368E+03  0.47000000000E+01 0.  1.
         13    1    4    4    0    0 -0.84467832067E+02  0.48024150030E+01 -0.17347217674E+01  0.84622024932E+02  0.00000000000E+00 0. -1.
        -14    1    4    4    0    0 -0.72607967667E+02  0.36048575114E+02  0.77425939579E+02  0.11209903147E+03  0.00000000000E+00 0.  1.
</event>
<event>
12    1  0.8684423E-002  0.2669371E+03  0.7818608E-02  0.1103098E+00
         21   -1    0    0  503  502  0.00000000000E+00  0.00000000000E+00  0.95163716676E+03  0.95163716676E+03  0.00000000000E+00 0. -1.
         21   -1    0    0  501  503 -0.00000000000E+00 -0.00000000000E+00 -0.75217534366E+02  0.75217534366E+02  0.00000000000E+00 0. -1.
          6    2    1    2  501    0  0.16898762259E+03  0.11398897682E+03  0.47727021565E+03  0.54667173002E+03  0.17179295164E+03 0.  0.
         24    2    3    3    0    0  0.93370526285E+02 -0.77660565970E+01  0.18829545687E+03  0.22407176935E+03  0.77295613887E+02 0.  0.
         -6    2    1    2    0  502 -0.16898762259E+03 -0.11398897682E+03  0.39914941674E+03  0.48018297110E+03  0.17235174913E+03 0.  0.
        -24    2    5    5    0    0 -0.12823653496E+03 -0.32356950230E+02  0.34019924184E+03  0.37145555033E+03  0.68935626454E+02 0.  0.
          5    1    3    3  501    0  0.75617096304E+02  0.12175503341E+03  0.28897475878E+03  0.32259996067E+03  0.47000000000E+01 0. -1.
        -13    1    4    4    0    0  0.88109078962E+01 -0.15408136138E+02  0.25445343811E+00  0.17751267666E+02  0.00000000000E+00 0.  1.
         14    1    4    4    0    0  0.84559618389E+02  0.76420795409E+01  0.18804100343E+03  0.20632050168E+03  0.00000000000E+00 0. -1.
         -5    1    5    5    0  502 -0.40751087629E+02 -0.81632026586E+02  0.58950174901E+02  0.10872742077E+03  0.47000000000E+01 0.  1.
         11    1    6    6    0    0 -0.24282030846E+02  0.12946575679E+01  0.15121414888E+03  0.15315682153E+03  0.00000000000E+00 0. -1.
        -12    1    6    6    0    0 -0.10395450411E+03 -0.33651607798E+02  0.18898509296E+03  0.21829872879E+03  0.00000000000E+00 0.  1.
</event>
<event>
12    1  0.8684423E-002  0.2960806E+03  0.7818608E-02  0.1087272E+00
         21   -1    0    0  501  502  0.00000000000E+00  0.00000000000E+00  0.11131934149E+04  0.11131934149E+04  0.00000000000E+00 0. -1.
         21   -1    0    0  502  503 -0.00000000000E+00 -0.00000000000E+00 -0.19466635044E+03  0.19466635044E+03  0.00000000000E+00 0. -1.
         -6    2    1    2    0  503  0.15501185031E+03 -0.18470577657E+03 -0.45736775348E+02  0.29916335059E+03  0.17106127582E+03 0.  0.
        -24    2    3    3    0    0  0.24041818770E+02 -0.10297355515E+03 -0.58530205529E+02  0.14418249037E+03  0.78620884375E+02 0.  0.
          6    2    1    2  501    0 -0.15501185031E+03  0.18470577657E+03  0.96426383980E+03  0.10086964147E+04  0.17181038014E+03 0.  0.
         24    2    5    5    0    0 -0.12390647304E+03  0.16930912281E+03  0.56745638119E+03  0.61034625389E+03  0.80606525480E+02 0.  0.
          5    1    5    5  501    0 -0.31105377269E+02  0.15396653757E+02  0.39680745861E+03  0.39835016085E+03  0.47000000000E+01 0. -1.
        -11    1    6    6    0    0 -0.13591268210E+01 -0.26736937642E+01 -0.15785445140E+01  0.33893460790E+01  0.00000000000E+00 0.  1.
         12    1    6    6    0    0 -0.12254734622E+03  0.17198281658E+03  0.56903492571E+03  0.60695690781E+03  0.00000000000E+00 0. -1.
         -5    1    3    3    0  503  0.13097003154E+03 -0.81732221414E+02  0.12793430181E+02  0.15498086022E+03  0.47000000000E+01 0.  1.
         13    1    4    4    0    0  0.19003663744E+02 -0.82921903803E+02 -0.32178729777E+01  0.85132461920E+02  0.00000000000E+00 0. -1.
        -14    1    4    4    0    0  0.50381550255E+01 -0.20051651351E+02 -0.55312332551E+02  0.59050028452E+02  0.00000000000E+00 0.  1.
</event>
<event>
12    1  0.8684423E-002  0.1796368E+03  0.7818608E-02  0.1168437E+00
         21   -1    0    0  503  502  0.00000000000E+00  0.00000000000E+00  0.53162002670E+03  0.53162002670E+03  0.00000000000E+00 0. -1.
         21   -1    0    0  501  503 -0.00000000000E+00 -0.00000000000E+00 -0.80836006730E+02  0.80836006730E+02  0.00000000000E+00 0. -1.
          6    2    1    2  501    0  0.29895112421E+02 -0.43531356512E+02  0.71624606935E+02  0.19338937053E+03  0.17169935227E+03 0.  0.
         24    2    3    3    0    0 -0.43496620510E+02 -0.43842700783E+02  0.42848832760E+02  0.11441735918E+03  0.86262223507E+02 0.  0.
         -6    2    1    2    0  502 -0.29895112421E+02  0.43531356512E+02  0.37915941304E+03  0.41906666290E+03  0.17048844745E+03 0.  0.
        -24    2    5    5    0    0 -0.14514148995E+02 -0.42933571500E+02  0.19114142518E+03  0.21149592419E+03  0.78367910811E+02 0.  0.
          5    1    3    3  501    0  0.73391732932E+02  0.31134427140E+00  0.28775774175E+02  0.78972011354E+02  0.47000000000E+01 0. -1.
        -11    1    4    4    0    0  0.62107979154E+00  0.29554668681E+01  0.49651659532E+02  0.49743419854E+02  0.00000000000E+00 0.  1.
         12    1    4    4    0    0 -0.44117700302E+02 -0.46798167651E+02 -0.68028267725E+01  0.64673939323E+02  0.00000000000E+00 0. -1.
         -5    1    5    5    0  502 -0.15380963426E+02  0.86464928012E+02  0.18801798786E+03  0.20757073871E+03  0.47000000000E+01 0.  1.
         13    1    6    6    0    0 -0.14918848679E+02 -0.16465076927E+02  0.18220783456E+03  0.18355752716E+03  0.00000000000E+00 0. -1.
        -14    1    6    6    0    0  0.40469968345E+00 -0.26468494573E+02  0.89335906219E+01  0.27938397023E+02  0.00000000000E+00 0.  1.
</event>
<event>
12    1  0.8684423E-002  0.4433776E+03  0.7818608E-02  0.1029739E+00
         21   -1    0    0  503  502  0.00000000000E+00  0.00000000000E+00  0.17243768733E+04  0.17243768733E+04  0.00000000000E+00 0. -1.
         21   -1    0    0  501  503 -0.00000000000E+00 -0.00000000000E+00 -0.26290119297E+03  0.26290119297E+03  0.00000000000E+00 0.  1.
          6    2    1    2  501    0 -0.26164181318E+03 -0.31380990252E+03 -0.17139187090E+02  0.44370873682E+03  0.17219349023E+03 0.  0.
         24    2    3    3    0    0 -0.21669330005E+03 -0.30957261500E+03 -0.47600813479E+02  0.38904317069E+03  0.79357173438E+02 0.  0.
         -6    2    1    2    0  502  0.26164181318E+03  0.31380990252E+03  0.14786148675E+04  0.15435693295E+04  0.17138044041E+03 0.  0.
        -24    2    5    5    0    0  0.95056099976E+02  0.72664318273E+02  0.36199652538E+03  0.38911681660E+03  0.77811614074E+02 0.  0.
          5    1    3    3  501    0 -0.44948513135E+02 -0.42372875189E+01  0.30461626389E+02  0.54665566135E+02  0.47000000000E+01 0. -1.
        -11    1    4    4    0    0 -0.12462363333E+03 -0.12695380227E+03 -0.48995017821E+02  0.18452324967E+03  0.00000000000E+00 0.  1.
         12    1    4    4    0    0 -0.92069666713E+02 -0.18261881272E+03  0.13942043419E+01  0.20451992102E+03  0.00000000000E+00 0. -1.
         -5    1    5    5    0  502  0.16658571320E+03  0.24114558424E+03  0.11166183421E+04  0.11544525129E+04  0.47000000000E+01 0.  1.
         11    1    6    6    0    0  0.85285572195E+02  0.79173626895E+02  0.35842863330E+03  0.37684635753E+03  0.00000000000E+00 0. -1.
        -12    1    6    6    0    0  0.97705277814E+01 -0.65093086225E+01  0.35678920834E+01  0.12270459070E+02  0.00000000000E+00 0.  1.
</event>
<event>
12    1  0.8684423E-002  0.2211378E+03  0.7818608E-02  0.1133116E+00
         21   -1    0    0  501  502  0.00000000000E+00  0.00000000000E+00  0.28200745085E+04  0.28200745085E+04  0.00000000000E+00 0. -1.
         21   -1    0    0  502  503 -0.00000000000E+00 -0.00000000000E+00 -0.18161309082E+02  0.18161309082E+02  0.00000000000E+00 0.  1.
         -6    2    1    2    0  503  0.33375242857E+02 -0.13284694847E+03  0.10919795301E+04  0.11140620837E+04  0.17306881233E+03 0.  0.
        -24    2    3    3    0    0  0.14313190346E+02 -0.15820352990E+03  0.10199425314E+04  0.10352094538E+04  0.78374878965E+02 0.  0.
          6    2    1    2  501    0 -0.33375242857E+02  0.13284694847E+03  0.17099336694E+04  0.17241737339E+04  0.17360786940E+03 0.  0.
         24    2    5    5    0    0 -0.28605264651E+02  0.12545304093E+03  0.80119040741E+03  0.81537572070E+03  0.79842158869E+02 0.  0.
          5    1    5    5  501    0 -0.47699782059E+01  0.73939075361E+01  0.90874326196E+03  0.90879801315E+03  0.47000000000E+01 0. -1.
        -13    1    6    6    0    0 -0.55842592716E+02  0.83742259262E+02  0.57743393976E+03  0.58614086697E+03  0.00000000000E+00 0.  1.
         14    1    6    6    0    0  0.27237328065E+02  0.41710781668E+02  0.22375646765E+03  0.22923485373E+03  0.00000000000E+00 0. -1.
         -5    1    3    3    0  503  0.19062052511E+02  0.25356581435E+02  0.72036998714E+02  0.78852629961E+02  0.47000000000E+01 0.  1.
         11    1    4    4    0    0  0.28038573506E+02 -0.77254987613E+02  0.70368632050E+03  0.70846942939E+03  0.00000000000E+00 0. -1.
        -12    1    4    4    0    0 -0.13725383161E+02 -0.80948542288E+02  0.31625621085E+03  0.32674002440E+03  0.00000000000E+00 0.  1.
</event>
<event>
12    1  0.8684423E-002  0.1891548E+03  0.7818608E-02  0.1159302E+00
         21   -1    0    0  503  502  0.00000000000E+00  0.00000000000E+00  0.51540030786E+03  0.51540030786E+03  0.00000000000E+00 0.  1.
         21   -1    0    0  501  503 -0.00000000000E+00 -0.00000000000E+00 -0.95312959997E+02  0.95312959997E+02  0.00000000000E+00 0. -1.
          6    2    1    2  501    0 -0.60746796288E+02 -0.48785155520E+02  0.50648500514E+02  0.19581826172E+03  0.17236402281E+03 0.  0.
         24    2    3    3    0    0 -0.84415896616E+02 -0.85441299799E+02  0.48766770074E+02  0.15189184446E+03  0.79162334712E+02 0.  0.
         -6    2    1    2    0  502  0.60746796288E+02  0.48785155520E+02  0.36943884735E+03  0.41489500613E+03  0.17199604510E+03 0.  0.
        -24    2    5    5    0    0 -0.80203276558E+00 -0.34919131347E+02  0.16558021049E+03  0.18603893822E+03  0.77289659332E+02 0.  0.
          5    1    3    3  501    0  0.23669100328E+02  0.36656144279E+02  0.18817304392E+01  0.43926417259E+02  0.47000000000E+01 0. -1.
        -13    1    4    4    0    0 -0.25500079781E+02 -0.80803858707E+02  0.27472239695E+02  0.89074359973E+02  0.00000000000E+00 0.  1.
         14    1    4    4    0    0 -0.58915816835E+02 -0.46374410928E+01  0.21294530380E+02  0.62817484487E+02  0.00000000000E+00 0. -1.
         -5    1    5    5    0  502  0.61548829054E+02  0.83704286868E+02  0.20385863686E+03  0.22885606791E+03  0.47000000000E+01 0.  1.
         13    1    6    6    0    0 -0.17049388399E+02  0.19739210109E+02  0.70505977998E+02  0.75175867099E+02  0.00000000000E+00 0. -1.
        -14    1    6    6    0    0  0.16247355633E+02 -0.54658341457E+02  0.95074232489E+02  0.11086307113E+03  0.00000000000E+00 0.  1.
</event>
<event>
12    1  0.8684423E-002  0.2054432E+03  0.7818608E-02  0.1145433E+00
         21   -1    0    0  501  502  0.00000000000E+00  0.00000000000E+00  0.33722089266E+03  0.33722089266E+03  0.00000000000E+00 0. -1.
         21   -1    0    0  502  503 -0.00000000000E+00 -0.00000000000E+00 -0.23627021009E+03  0.23627021009E+03  0.00000000000E+00 0.  1.
         -6    2    1    2    0  503  0.81836935346E+02  0.75243202368E+02 -0.14664192413E+03  0.25240994616E+03  0.17276603694E+03 0.  0.
        -24    2    3    3    0    0 -0.22248438503E+02  0.26432889310E+02 -0.44537156628E+02  0.98579892997E+02  0.80874880709E+02 0.  0.
          6    2    1    2  501    0 -0.81836935346E+02 -0.75243202368E+02  0.24759260671E+03  0.32108115659E+03  0.17155811473E+03 0.  0.
         24    2    5    5    0    0 -0.49236454788E+02 -0.11257234803E+03  0.15034492165E+03  0.21183163166E+03  0.84689330393E+02 0.  0.
          5    1    5    5  501    0 -0.32600480558E+02  0.37329145667E+02  0.97247685055E+02  0.10924952493E+03  0.47000000000E+01 0. -1.
        -11    1    6    6    0    0 -0.46999075290E+02 -0.84014929432E+02  0.52029029611E+02  0.10942779066E+03  0.00000000000E+00 0.  1.
         12    1    6    6    0    0 -0.22373794988E+01 -0.28557418603E+02  0.98315892043E+02  0.10240384100E+03  0.00000000000E+00 0. -1.
         -5    1    3    3    0  503  0.10408537385E+03  0.48810313059E+02 -0.10210476750E+03  0.15383005317E+03  0.47000000000E+01 0.  1.
         13    1    4    4    0    0  0.56786034425E+01 -0.27000168435E+02 -0.15736237001E+02  0.31762946770E+02  0.00000000000E+00 0. -1.
        -14    1    4    4    0    0 -0.27927041946E+02  0.53433057744E+02 -0.28800919627E+02  0.66816946227E+02  0.00000000000E+00 0.  1.
</event>
<event>
12    1  0.8684423E-002  0.1733411E+03  0.7818608E-02  0.1174661E+00
         21   -1    0    0  503  502  0.00000000000E+00  0.00000000000E+00  0.64593817876E+03  0.64593817876E+03  0.00000000000E+00 0. -1.
         21   -1    0    0  501  503 -0.00000000000E+00 -0.00000000000E+00 -0.47047555657E+02  0.47047555657E+02  0.00000000000E+00 0. -1.
          6    2    1    2  501    0 -0.96869912581E+01  0.14313132747E+02  0.25519379692E+03  0.30849796811E+03  0.17247729930E+03 0.  0.
         24    2    3    3    0    0 -0.17796283515E+02 -0.59050696897E+02  0.17272811097E+03  0.19772481487E+03  0.73867513724E+02 0.  0.
         -6    2    1    2    0  502  0.96869912581E+01 -0.14313132747E+02  0.34369682618E+03  0.38448776630E+03  0.17147778439E+03 0.  0.
        -24    2    5    5    0    0  0.40688716497E+02 -0.53069153558E+02  0.30164849541E+03  0.31927052749E+03  0.80435988426E+02 0.  0.
          5    1    3    3  501    0  0.81092922568E+01  0.73363829644E+02  0.82465685942E+02  0.11077315324E+03  0.47000000000E+01 0. -1.
        -13    1    4    4    0    0 -0.90984801315E+01  0.32376802745E+01 -0.37614487544E+01  0.10364044143E+02  0.00000000000E+00 0.  1.
         14    1    4    4    0    0 -0.86978033834E+01 -0.62288377172E+02  0.17648955973E+03  0.18736077073E+03  0.00000000000E+00 0. -1.
         -5    1    5    5    0  502 -0.31001725238E+02  0.38756020812E+02  0.42048330775E+02  0.65217238809E+02  0.47000000000E+01 0.  1.
         11    1    6    6    0    0  0.47874525681E+02 -0.35268230677E+02  0.97362047133E+02  0.11408412039E+03  0.00000000000E+00 0. -1.
        -12    1    6    6    0    0 -0.71858091841E+01 -0.17800922881E+02  0.20428644828E+03  0.20518640710E+03  0.00000000000E+00 0.  1.
</event>
<event>
12    1  0.8684423E-002  0.2099767E+03  0.7818608E-02  0.1141622E+00
         21   -1    0    0  503  502  0.00000000000E+00  0.00000000000E+00  0.25201601612E+03  0.25201601612E+03  0.00000000000E+00 0. -1.
         21   -1    0    0  501  503 -0.00000000000E+00 -0.00000000000E+00 -0.30752003997E+03  0.30752003997E+03  0.00000000000E+00 0.  1.
          6    2    1    2  501    0 -0.10985940587E+03 -0.48000303396E+02 -0.21154232842E+03  0.29792917658E+03  0.17215841355E+03 0.  0.
         24    2    3    3    0    0 -0.92296025418E+02 -0.94858820803E+02 -0.18459850068E+03  0.24090065003E+03  0.80248143525E+02 0.  0.
         -6    2    1    2    0  502  0.10985940587E+03  0.48000303396E+02  0.15603830457E+03  0.26160687951E+03  0.17238645170E+03 0.  0.
        -24    2    5    5    0    0  0.92321678974E+02 -0.39087148662E+02  0.94567763749E+02  0.15347495287E+03  0.67530745731E+02 0.  0.
          5    1    3    3  501    0 -0.17563380454E+02  0.46858517407E+02 -0.26943827734E+02  0.57028526542E+02  0.47000000000E+01 0. -1.
        -13    1    4    4    0    0 -0.45788256013E+02 -0.36671456597E+02 -0.14526659411E+03  0.15666442954E+03  0.00000000000E+00 0.  1.
         14    1    4    4    0    0 -0.46507769406E+02 -0.58187364207E+02 -0.39331906570E+02  0.84236220492E+02  0.00000000000E+00 0. -1.
         -5    1    5    5    0  502  0.17537726898E+02  0.87087452058E+02  0.61470540823E+02  0.10813192664E+03  0.47000000000E+01 0.  1.
         13    1    6    6    0    0  0.68003987844E+02  0.57748553800E+01  0.66249321285E+02  0.95115003486E+02  0.00000000000E+00 0. -1.
        -14    1    6    6    0    0  0.24317691129E+02 -0.44862004042E+02  0.28318442464E+02  0.58359949384E+02  0.00000000000E+00 0.  1.
</event>
<event>
12    1  0.8684423E-002  0.1862198E+03  0.7818608E-02  0.1162103E+00
         21   -1    0    0  501  502  0.00000000000E+00  0.00000000000E+00  0.20977380040E+03  0.20977380040E+03  0.00000000000E+00 0. -1.
         21   -1    0    0  502  503 -0.00000000000E+00 -0.00000000000E+00 -0.28846499794E+03  0.28846499794E+03  0.00000000000E+00 0. -1.
         -6    2    1    2    0  503  0.23603926074E+02  0.62527124001E+02 -0.20254396381E+03  0.27459326805E+03  0.17294686762E+03 0.  0.
        -24    2    3    3    0    0  0.14157229269E+02  0.10685517274E+03 -0.17766640464E+03  0.22267796264E+03  0.80010428237E+02 0.  0.
          6    2    1    2  501    0 -0.23603926074E+02 -0.62527124001E+02  0.12385276626E+03  0.22364553029E+03  0.17381320131E+03 0.  0.
         24    2    5    5    0    0 -0.97901220863E+01  0.28325111967E+02  0.94784718294E+02  0.12714687034E+03  0.79271844661E+02 0.  0.
          5    1    5    5  501    0 -0.13813803987E+02 -0.90852235968E+02  0.29068047968E+02  0.96498659958E+02  0.47000000000E+01 0. -1.
        -13    1    6    6    0    0  0.19566896519E+02  0.20688944109E+02  0.92435230400E+02  0.96722115707E+02  0.00000000000E+00 0.  1.
         14    1    6    6    0    0 -0.29357018605E+02  0.76361678579E+01  0.23494878942E+01  0.30424754630E+02  0.00000000000E+00 0. -1.
         -5    1    3    3    0  503  0.94466968042E+01 -0.44328048736E+02 -0.24877559173E+02  0.51915305409E+02  0.47000000000E+01 0.  1.
         13    1    4    4    0    0 -0.29758514689E+02  0.36071616274E+02 -0.91922638256E+02  0.10313341903E+03  0.00000000000E+00 0. -1.
        -14    1    4    4    0    0  0.43915743958E+02  0.70783556463E+02 -0.85743766379E+02  0.11954454361E+03  0.00000000000E+00 0.  1.
</event>
<event>
12    1  0.8684423E-002  0.1978607E+03  0.7818608E-02  0.1152388E+00
         21   -1    0    0  501  502  0.00000000000E+00  0.00000000000E+00  0.29916587647E+03  0.29916587647E+03  0.00000000000E+00 0.  1.
         21   -1    0    0  502  503 -0.00000000000E+00 -0.00000000000E+00 -0.12883443402E+03  0.12883443402E+03  0.00000000000E+00 0. -1.
         -6    2    1    2    0  503 -0.39879759626E+02 -0.86160379300E+02  0.97752883320E+02  0.21724806615E+03  0.16919541915E+03 0.  0.
        -24    2    3    3    0    0  0.41871747268E+02 -0.53928480653E+02  0.50960750708E+02  0.11757962659E+03  0.81033611744E+02 0.  0.
          6    2    1    2  501    0  0.39879759626E+02  0.86160379300E+02  0.72578559135E+02  0.21075224433E+03  0.17359393727E+03 0.  0.
         24    2    5    5    0    0  0.23518030311E+02  0.83403731413E+02 -0.15878348562E+02  0.12062999507E+03  0.82402630987E+02 0.  0.
          5    1    5    5  501    0  0.16361729316E+02  0.27566478873E+01  0.88456907697E+02  0.90122249268E+02  0.47000000000E+01 0. -1.
        -13    1    6    6    0    0  0.13537659684E+02  0.13850013795E+01  0.24987247685E+02  0.28452574672E+02  0.00000000000E+00 0.  1.
         14    1    6    6    0    0  0.99803706264E+01  0.82018730033E+02 -0.40865596247E+02  0.92177420396E+02  0.00000000000E+00 0. -1.
         -5    1    3    3    0  503 -0.81751506894E+02 -0.32231898647E+02  0.46792132613E+02  0.99668439560E+02  0.47000000000E+01 0.  1.
         11    1    4    4    0    0  0.87653972565E+01  0.21435562701E+02  0.15999193756E+02  0.28147641788E+02  0.00000000000E+00 0. -1.
        -12    1    4    4    0    0  0.33106350011E+02 -0.75364043354E+02  0.34961556952E+02  0.89431984805E+02  0.00000000000E+00 0.  1.
</event>
<event>
12    1  0.8684423E-002  0.2160930E+03  0.7818608E-02  0.1136994E+00
         21   -1    0    0  503  502  0.00000000000E+00  0.00000000000E+00  0.18846815844E+03  0.18846815844E+03  0.00000000000E+00 0. -1.
         21   -1    0    0  501  503 -0.00000000000E+00 -0.00000000000E+00 -0.38704251258E+03  0.38704251258E+03  0.00000000000E+00 0. -1.
          6    2    1    2  501    0  0.92625729728E+02 -0.91424172337E+02 -0.27263732672E+03  0.34788976268E+03  0.17250585486E+03 0.  0.
         24    2    3    3    0    0  0.38244135205E+02 -0.10683362755E+03 -0.17396257337E+03  0.23407585281E+03  0.10794670018E+03 0.  0.
         -6    2    1    2    0  502 -0.92625729728E+02  0.91424172337E+02  0.74062972584E+02  0.22762090835E+03  0.17142942837E+03 0.  0.
        -24    2    5    5    0    0 -0.11382906413E+03  0.10759565495E+03  0.90072989731E+02  0.19616444814E+03  0.76377132926E+02 0.  0.
          5    1    3    3  501    0  0.54381594523E+02  0.15409455212E+02 -0.98674753348E+02  0.11381390987E+03  0.47000000000E+01 0. -1.
        -11    1    4    4    0    0  0.20328942762E+02 -0.41047032486E+02  0.15016907935E+01  0.45829901429E+02  0.00000000000E+00 0.  1.
         12    1    4    4    0    0  0.17915192443E+02 -0.65786595063E+02 -0.17546426417E+03  0.18824595138E+03  0.00000000000E+00 0. -1.
         -5    1    5    5    0  502  0.21203334398E+02 -0.16171482608E+02 -0.16010017146E+02  0.31456460201E+02  0.47000000000E+01 0.  1.
         11    1    6    6    0    0 -0.45675525967E+02  0.94239278340E+02  0.57191417750E+02  0.11932373410E+03  0.00000000000E+00 0. -1.
        -12    1    6    6    0    0 -0.68153538159E+02  0.13356376606E+02  0.32881571981E+02  0.76840714049E+02  0.00000000000E+00 0.  1.
</event>
<event>
12    1  0.8684423E-002  0.2038848E+03  0.7818608E-02  0.1146776E+00
         21   -1    0    0  501  502  0.00000000000E+00  0.00000000000E+00  0.20789369522E+03  0.20789369522E+03  0.00000000000E+00 0.  1.
         21   -1    0    0  502  503 -0.00000000000E+00 -0.00000000000E+00 -0.20912542726E+03  0.20912542726E+03  0.00000000000E+00 0.  1.
         -6    2    1    2    0  503  0.10634672643E+03  0.21642873333E+01 -0.47271342457E+02  0.20929307448E+03  0.17393878476E+03 0.  0.
        -24    2    3    3    0    0  0.28392042995E+02 -0.50970033582E+02  0.92375741959E+01  0.99222477175E+02  0.79722736850E+02 0.  0.
          6    2    1    2  501    0 -0.10634672643E+03 -0.21642873333E+01  0.46039610422E+02  0.20772604800E+03  0.17238374322E+03 0.  0.
         24    2    5    5    0    0 -0.95994758761E+02 -0.62789384531E+02  0.19034401419E+02  0.14039153265E+03  0.78676384525E+02 0.  0.
          5    1    5    5  501    0 -0.10351967670E+02  0.60625097197E+02  0.27005209003E+02  0.67334515356E+02  0.47000000000E+01 0. -1.
        -13    1    6    6    0    0 -0.10606910696E+03 -0.43686206753E+02  0.26143561278E+02  0.11765468927E+03  0.00000000000E+00 0.  1.
         14    1    6    6    0    0  0.10074348196E+02 -0.19103177778E+02 -0.71091598591E+01  0.22736843375E+02  0.00000000000E+00 0. -1.
         -5    1    3    3    0  503  0.77954683437E+02  0.53134320916E+02 -0.56508916653E+02  0.11007059730E+03  0.47000000000E+01 0.  1.
         13    1    4    4    0    0 -0.19568469486E+02 -0.38690771928E+02 -0.12542993269E+02  0.45135656753E+02  0.00000000000E+00 0. -1.
        -14    1    4    4    0    0  0.47960512481E+02 -0.12279261655E+02  0.21780567465E+02  0.54086820421E+02  0.00000000000E+00 0.  1.
</event>
<event>
12    1  0.8684423E-002  0.2120007E+03  0.7818608E-02  0.1140663E+00
         21   -1    0    0  501  502  0.00000000000E+00  0.00000000000E+00  0.52305928361E+03  0.52305928361E+03  0.00000000000E+00 0. -1.
         21   -1    0    0  502  503 -0.00000000000E+00 -0.00000000000E+00 -0.97308611089E+02  0.97308611089E+02  0.00000000000E+00 0. -1.
         -6    2    1    2    0  503  0.98644288641E+02  0.76713687801E+02  0.99066334653E+02  0.23092346161E+03  0.16702042055E+03 0.  0.
        -24    2    3    3    0    0  0.89453469060E+02  0.11610662893E+03  0.85203441137E+02  0.18790550266E+03  0.81031963694E+02 0.  0.
          6    2    1    2  501    0 -0.98644288641E+02 -0.76713687801E+02  0.32668433787E+03  0.38944443309E+03  0.17125601969E+03 0.  0.
         24    2    5    5    0    0 -0.74228276649E+02 -0.66130893862E+02  0.10320933565E+03  0.16434155931E+03  0.80454017755E+02 0.  0.
          5    1    5    5  501    0 -0.24416011992E+02 -0.10582793939E+02  0.22347500222E+03  0.22510287378E+03  0.47000000000E+01 0. -1.
        -13    1    6    6    0    0  0.16048775956E+02 -0.51474369323E+01  0.47828649444E+01  0.17519563742E+02  0.00000000000E+00 0.  1.
         14    1    6    6    0    0 -0.90277052604E+02 -0.60983456930E+02  0.98426470705E+02  0.14682199556E+03  0.00000000000E+00 0. -1.
         -5    1    3    3    0  503  0.91908195807E+01 -0.39392941130E+02  0.13862893516E+02  0.43017958948E+02  0.47000000000E+01 0.  1.
         13    1    4    4    0    0  0.48288263576E+02  0.11016579007E+03  0.40678073250E+02  0.12697623142E+03  0.00000000000E+00 0. -1.
        -14    1    4    4    0    0  0.41165205484E+02  0.59408388583E+01  0.44525367887E+02  0.60929271244E+02  0.00000000000E+00 0.  1.
</event>
<event>
12    1  0.8684423E-002  0.1979051E+03  0.7818608E-02  0.1151604E+00
         21   -1    0    0  501  502  0.00000000000E+00  0.00000000000E+00  0.10137980294E+04  0.10137980294E+04  0.00000000000E+00 0.  1.
         21   -1    0    0  502  503 -0.00000000000E+00 -0.00000000000E+00 -0.47507327988E+02  0.47507327988E+02  0.00000000000E+00 0. -1.
         -6    2    1    2    0  503 -0.95289619387E+02 -0.14694981287E+02  0.25319139289E+03  0.32136010102E+03  0.17283049227E+03 0.  0.
        -24    2    3    3    0    0 -0.10815088206E+03 -0.58035722974E+02  0.22607227237E+03  0.26843214371E+03  0.76696707945E+02 0.  0.
          6    2    1    2  501    0  0.95289619387E+02  0.14694981287E+02  0.71309930854E+03  0.73994525639E+03  0.17237257488E+03 0.  0.
         24    2    5    5    0    0  0.15569153773E+02  0.23986130131E+02  0.16324762815E+03  0.18424692229E+03  0.80494765609E+02 0.  0.
          5    1    5    5  501    0  0.79720465613E+02 -0.92911488438E+01  0.54985168040E+03  0.55569833410E+03  0.47000000000E+01 0. -1.
        -13    1    6    6    0    0 -0.17013693215E+02  0.34654901751E+02  0.13312149926E+03  0.13860649890E+03  0.00000000000E+00 0.  1.
         14    1    6    6    0    0  0.32582846988E+02 -0.10668771620E+02  0.30126128892E+02  0.45640423396E+02  0.00000000000E+00 0. -1.
         -5    1    3    3    0  503  0.12861262678E+02  0.43340741687E+02  0.27119120528E+02  0.52927957318E+02  0.47000000000E+01 0.  1.
         13    1    4    4    0    0 -0.87127834069E+02 -0.20482975326E+02  0.95207876233E+02  0.13067268821E+03  0.00000000000E+00 0. -1.
        -14    1    4    4    0    0 -0.21023047996E+02 -0.37552747648E+02  0.13086439613E+03  0.13775945549E+03  0.00000000000E+00 0.  1.
</event>
<event>
12    1  0.8684423E-002  0.1744230E+03  0.7818608E-02  0.1173470E+00
         21   -1    0    0  501  502  0.00000000000E+00  0.00000000000E+00  0.22537145591E+03  0.22537145591E+03  0.00000000000E+00 0. -1.
         21   -1    0    0  502  503 -0.00000000000E+00 -0.00000000000E+00 -0.20968393807E+03  0.20968393807E+03  0.00000000000E+00 0. -1.
         -6    2    1    2    0  503  0.55843338007E+01 -0.27870137213E+02 -0.12239437398E+03  0.21308161051E+03  0.17209143100E+03 0.  0.
        -24    2    3    3    0    0 -0.33343672712E+01 -0.74086750005E+02 -0.36475590324E+02  0.11500181692E+03  0.79968648066E+02 0.  0.
          6    2    1    2  501    0 -0.55843338007E+01  0.27870137213E+02  0.13808189181E+03  0.22197378347E+03  0.17145793177E+03 0.  0.
         24    2    5    5    0    0  0.39033563299E+02 -0.61612431052E+01  0.13953550135E+03  0.16564355563E+03  0.80037812336E+02 0.  0.
          5    1    5    5  501    0 -0.44617897099E+02  0.34031380318E+02 -0.14536095326E+01  0.56330227841E+02  0.47000000000E+01 0. -1.
        -11    1    6    6    0    0  0.38697597020E+01 -0.74577624919E+01 -0.94000487926E+01  0.12607703155E+02  0.00000000000E+00 0.  1.
         12    1    6    6    0    0  0.35163803597E+02  0.12965193868E+01  0.14893555014E+03  0.15303585247E+03  0.00000000000E+00 0. -1.
         -5    1    3    3    0  503  0.89187010720E+01  0.46216612792E+02 -0.85918783653E+02  0.98079793592E+02  0.47000000000E+01 0.  1.
         11    1    4    4    0    0 -0.17113541691E+02 -0.34215979360E+02 -0.56557201793E+02  0.68281209915E+02  0.00000000000E+00 0. -1.
        -12    1    4    4    0    0  0.13779174419E+02 -0.39870770645E+02  0.20081611469E+02  0.46720607003E+02  0.00000000000E+00 0.  1.
</event>
<event>
12    1  0.8684423E-002  0.2275135E+03  0.7818608E-02  0.1129055E+00
         21   -1    0    0  501  502  0.00000000000E+00  0.00000000000E+00  0.42415598986E+03  0.42415598986E+03  0.00000000000E+00 0.  1.
         21   -1    0    0  502  503 -0.00000000000E+00 -0.00000000000E+00 -0.14097340412E+03  0.14097340412E+03  0.00000000000E+00 0.  1.
         -6    2    1    2    0  503  0.14420289153E+03 -0.13992287683E+02  0.33830813632E+02  0.23001500121E+03  0.17541983579E+03 0.  0.
        -24    2    3    3    0    0  0.13468337134E+03 -0.56754101620E+02  0.62017839415E+02  0.17771019819E+03  0.79837732742E+02 0.  0.
          6    2    1    2  501    0 -0.14420289153E+03  0.13992287683E+02  0.24935177211E+03  0.33511439278E+03  0.17069004644E+03 0.  0.
         24    2    5    5    0    0 -0.38681852411E+01  0.83805227328E+01  0.63980701363E+02  0.10249916206E+03  0.79544654483E+02 0.  0.
          5    1    5    5  501    0 -0.14033470629E+03  0.56117649499E+01  0.18537107075E+03  0.23261523073E+03  0.47000000000E+01 0. -1.
        -13    1    6    6    0    0 -0.35305989917E+02  0.20008525461E+02  0.53954318850E+02  0.67512388031E+02  0.00000000000E+00 0.  1.
         14    1    6    6    0    0  0.31437804676E+02 -0.11628002728E+02  0.10026382513E+02  0.34986774024E+02  0.00000000000E+00 0. -1.
         -5    1    3    3    0  503  0.95195201946E+01  0.42761813937E+02 -0.28187025784E+02  0.52304803016E+02  0.47000000000E+01 0.  1.
         13    1    4    4    0    0  0.16097632071E+02  0.12240076942E+02  0.31062479824E+02  0.37065224870E+02  0.00000000000E+00 0. -1.
        -14    1    4    4    0    0  0.11858573927E+03 -0.68994178562E+02  0.30955359591E+02  0.14064497332E+03  0.00000000000E+00 0.  1.
</event>
<event>
12    1  0.8684423E-002  0.2411559E+03  0.7818608E-02  0.1120296E+00
         21   -1    0    0  503  502  0.00000000000E+00  0.00000000000E+00  0.23963136014E+03  0.23963136014E+03  0.00000000000E+00 0.  1.
         21   -1    0    0  501  503 -0.00000000000E+00 -0.00000000000E+00 -0.23528842091E+03  0.23528842091E+03  0.00000000000E+00 0.  1.
          6    2    1    2  501    0 -0.14975177289E+03 -0.29522657454E+02  0.77949843240E+01  0.23373916944E+03  0.17685037960E+03 0.  0.
         24    2    3    3    0    0 -0.13400088364E+03 -0.43668400681E+02  0.63601224590E+02  0.17386748151E+03  0.79508611625E+02 0.  0.
         -6    2    1    2    0  502  0.14975177289E+03  0.29522657454E+02 -0.34520450910E+01  0.24118061161E+03  0.18670562395E+03 0.  0.
        -24    2    5    5    0    0  0.61403997549E+02  0.17791671335E+02  0.71839986120E+02  0.12441621033E+03  0.78939314048E+02 0.  0.
          5    1    3    3  501    0 -0.15750889250E+02  0.14145743227E+02 -0.55806240266E+02  0.59871687936E+02  0.47000000000E+01 0. -1.
        -13    1    4    4    0    0 -0.10436625018E+03 -0.84728553026E+01  0.72029225427E+02  0.12709174942E+03  0.00000000000E+00 0.  1.
         14    1    4    4    0    0 -0.29634633454E+02 -0.35195545378E+02 -0.84280008370E+01  0.46775732090E+02  0.00000000000E+00 0. -1.
         -5    1    5    5    0  502  0.88347775338E+02  0.11730986119E+02 -0.75292031211E+02  0.11676440128E+03  0.47000000000E+01 0.  1.
         13    1    6    6    0    0  0.22037305553E+02 -0.21195683286E+02  0.60607868340E+02  0.67883823777E+02  0.00000000000E+00 0. -1.
        -14    1    6    6    0    0  0.39366691996E+02  0.38987354621E+02  0.11232117780E+02  0.56532386549E+02  0.00000000000E+00 0.  1.
</event>
<event>
12    1  0.8684423E-002  0.2267369E+03  0.7818608E-02  0.1129074E+00
         21   -1    0    0  503  502  0.00000000000E+00  0.00000000000E+00  0.87034497812E+02  0.87034497812E+02  0.00000000000E+00 0. -1.
         21   -1    0    0  501  503 -0.00000000000E+00 -0.00000000000E+00 -0.73225872155E+03  0.73225872155E+03  0.00000000000E+00 0. -1.
          6    2    1    2  501    0  0.12007998425E+03  0.84222263591E+02 -0.50417326754E+03  0.55281127932E+03  0.17290758961E+03 0.  0.
         24    2    3    3    0    0  0.29413195347E+02  0.54325834612E+02 -0.13593380511E+03  0.17236857041E+03  0.86119059021E+02 0.  0.
         -6    2    1    2    0  502 -0.12007998425E+03 -0.84222263591E+02 -0.14105095620E+03  0.26648194004E+03  0.17206004714E+03 0.  0.
        -24    2    5    5    0    0 -0.12319346330E+03 -0.81068085607E+02 -0.16875260454E+03  0.23803701236E+03  0.80221654247E+02 0.  0.
          5    1    3    3  501    0  0.90666788899E+02  0.29896428979E+02 -0.36823946243E+03  0.38044270891E+03  0.47000000000E+01 0. -1.
        -13    1    4    4    0    0 -0.82371236005E+01 -0.18557486539E+02 -0.47965987128E+02  0.52086144348E+02  0.00000000000E+00 0.  1.
         14    1    4    4    0    0  0.37650318947E+02  0.72883321151E+02 -0.87967817979E+02  0.12028242606E+03  0.00000000000E+00 0. -1.
         -5    1    5    5    0  502  0.31134790515E+01 -0.31541779839E+01  0.27701648335E+02  0.28444927685E+02  0.47000000000E+01 0.  1.
         11    1    6    6    0    0 -0.10160999488E+03 -0.48575298889E+02 -0.71884228116E+02  0.13360947936E+03  0.00000000000E+00 0. -1.
        -12    1    6    6    0    0 -0.21583468413E+02 -0.32492786718E+02 -0.96868376423E+02  0.10442753300E+03  0.00000000000E+00 0.  1.
</event>
<event>
12    1  0.8684423E-002  0.1925736E+03  0.7818608E-02  0.1156597E+00
         21   -1    0    0  503  502  0.00000000000E+00  0.00000000000E+00  0.43777549489E+02  0.43777549489E+02  0.00000000000E+00 0.  1.
         21   -1    0    0  501  503 -0.00000000000E+00 -0.00000000000E+00 -0.84375709361E+03  0.84375709361E+03  0.00000000000E+00 0. -1.
          6    2    1    2  501    0 -0.78048456773E+02  0.31914232559E+02 -0.43699819308E+03  0.47754791752E+03  0.17313149028E+03 0.  0.
         24    2    3    3    0    0 -0.10895648990E+03 -0.10904085777E+02 -0.26540437820E+03  0.29795047265E+03  0.79652899563E+02 0.  0.
         -6    2    1    2    0  502  0.78048456773E+02 -0.31914232559E+02 -0.36298135105E+03  0.40998672559E+03  0.17094903950E+03 0.  0.
        -24    2    5    5    0    0  0.56055270595E+01  0.39598219221E+02 -0.16959454257E+03  0.19139451045E+03  0.79184018983E+02 0.  0.
          5    1    3    3  501    0  0.30908033126E+02  0.42818318337E+02 -0.17159381488E+03  0.17959744486E+03  0.47000000000E+01 0. -1.
        -13    1    4    4    0    0 -0.67462558843E+02  0.68300537273E+00 -0.67589659014E+02  0.95498823802E+02  0.00000000000E+00 0.  1.
         14    1    4    4    0    0 -0.41493931057E+02 -0.11587091150E+02 -0.19781471919E+03  0.20245164885E+03  0.00000000000E+00 0. -1.
         -5    1    5    5    0  502  0.72442929714E+02 -0.71512451780E+02 -0.19338680848E+03  0.21859221514E+03  0.47000000000E+01 0.  1.
         13    1    6    6    0    0 -0.34551067792E+02  0.27652260292E+02 -0.64167926662E+02  0.77948358526E+02  0.00000000000E+00 0. -1.
        -14    1    6    6    0    0  0.40156594851E+02  0.11945958928E+02 -0.10542661591E+03  0.11344615192E+03  0.00000000000E+00 0.  1.
</event>
<event>
12    1  0.8684423E-002  0.3621241E+03  0.7818608E-02  0.1057775E+00
         21   -1    0    0  501  502  0.00000000000E+00  0.00000000000E+00  0.22315912823E+03  0.22315912823E+03  0.00000000000E+00 0.  1.
         21   -1    0    0  502  503 -0.00000000000E+00 -0.00000000000E+00 -0.93893500275E+03  0.93893500275E+03  0.00000000000E+00 0.  1.
         -6    2    1    2    0  503  0.19531425778E+03 -0.25142246209E+03 -0.21373446742E+01  0.36183556027E+03  0.17192873728E+03 0.  0.
        -24    2    3    3    0    0  0.22907228391E+02 -0.83442377927E+02  0.19541778334E+02  0.12010520051E+03  0.80969170318E+02 0.  0.
          6    2    1    2  501    0 -0.19531425778E+03  0.25142246209E+03 -0.71363852984E+03  0.80025857071E+03  0.17254829754E+03 0.  0.
         24    2    5    5    0    0 -0.20807828002E+03  0.17383302391E+03 -0.53800748403E+03  0.60777118039E+03  0.80120309656E+02 0.  0.
          5    1    5    5  501    0  0.12764022238E+02  0.77589438175E+02 -0.17563104581E+03  0.19248739032E+03  0.47000000000E+01 0. -1.
        -11    1    6    6    0    0 -0.99753317779E+02  0.93497673530E+02 -0.18623407238E+03  0.23103174907E+03  0.00000000000E+00 0.  1.
         12    1    6    6    0    0 -0.10832496224E+03  0.80335350383E+02 -0.35177341165E+03  0.37673943132E+03  0.00000000000E+00 0. -1.
         -5    1    3    3    0  503  0.17240702939E+03 -0.16798008416E+03 -0.21679123008E+02  0.24173035977E+03  0.47000000000E+01 0.  1.
         11    1    4    4    0    0  0.17693312859E+02  0.98908821498E+01  0.17220621552E+02  0.26597606589E+02  0.00000000000E+00 0. -1.
        -12    1    4    4    0    0  0.52139155319E+01 -0.93333260077E+02  0.23211567815E+01  0.93507593919E+02  0.00000000000E+00 0.  1.
</event>
<event>
12    1  0.8684423E-002  0.2813089E+03  0.7818608E-02  0.1095031E+00
         21   -1    0    0  501  502  0.00000000000E+00  0.00000000000E+00  0.35653621999E+03  0.35653621999E+03  0.00000000000E+00 0.  1.
         21   -1    0    0  502  503 -0.00000000000E+00 -0.00000000000E+00 -0.36453829036E+03  0.36453829036E+03  0.00000000000E+00 0. -1.
         -6    2    1    2    0  503  0.79020926808E+02 -0.20751785085E+03 -0.22973608702E+03  0.36319880148E+03  0.17270418182E+03 0.  0.
        -24    2    3    3    0    0 -0.24616190850E+02 -0.11530657562E+03 -0.12519309566E+03  0.18943200810E+03  0.79433061502E+02 0.  0.
          6    2    1    2  501    0 -0.79020926808E+02  0.20751785085E+03  0.22173401665E+03  0.35787570888E+03  0.17204965437E+03 0.  0.
         24    2    5    5    0    0 -0.71376082334E+02  0.13279248938E+03  0.62846214034E+02  0.18206402805E+03  0.80431793016E+02 0.  0.
          5    1    5    5  501    0 -0.76448444739E+01  0.74725361469E+02  0.15888780261E+03  0.17581168082E+03  0.47000000000E+01 0. -1.
        -13    1    6    6    0    0 -0.43634043605E+02  0.51623651864E+02  0.68324874552E+02  0.96110455600E+02  0.00000000000E+00 0.  1.
         14    1    6    6    0    0 -0.27742038730E+02  0.81168837516E+02 -0.54786605177E+01  0.85953572455E+02  0.00000000000E+00 0. -1.
         -5    1    3    3    0  503  0.10363711766E+03 -0.92211275232E+02 -0.10454299137E+03  0.17376679338E+03  0.47000000000E+01 0.  1.
         13    1    4    4    0    0 -0.13812010350E+00 -0.59087755331E+02 -0.11212025935E+03  0.12673726549E+03  0.00000000000E+00 0. -1.
        -14    1    4    4    0    0 -0.24478070747E+02 -0.56218820286E+02 -0.13072836310E+02  0.62694742611E+02  0.00000000000E+00 0.  1.
</event>
<event>
12    1  0.8684423E-002  0.1896774E+03  0.7818608E-02  0.1158957E+00
         21   -1    0    0  503  502  0.00000000000E+00  0.00000000000E+00  0.58276411029E+03  0.58276411029E+03  0.00000000000E+00 0.  1.
         21   -1    0    0  501  503 -0.00000000000E+00 -0.00000000000E+00 -0.12962244096E+03  0.12962244096E+03  0.00000000000E+00 0.  1.
          6    2    1    2  501    0 -0.15047256092E+01  0.79410188239E+02 -0.32013968611E+02  0.19147053160E+03  0.17125369511E+03 0.  0.
         24    2    3    3    0    0 -0.21268992400E+02 -0.19687441071E+02 -0.14386427080E+02  0.88787589503E+02  0.82681929054E+02 0.  0.
         -6    2    1    2    0  502  0.15047256092E+01 -0.79410188239E+02  0.48515563794E+03  0.52091601966E+03  0.17224768304E+03 0.  0.
        -24    2    5    5    0    0  0.52922831773E+02 -0.11844025110E+01  0.25712047083E+03  0.27436942643E+03  0.79783561624E+02 0.  0.
          5    1    3    3  501    0  0.19764266791E+02  0.99097629311E+02 -0.17627541531E+02  0.10268294209E+03  0.47000000000E+01 0. -1.
        -13    1    4    4    0    0 -0.21030065642E+02  0.30666575543E+02 -0.42970767210E+01  0.37432170453E+02  0.00000000000E+00 0.  1.
         14    1    4    4    0    0 -0.23892675806E+00 -0.50354016615E+02 -0.10089350359E+02  0.51355419051E+02  0.00000000000E+00 0. -1.
         -5    1    5    5    0  502 -0.51418106164E+02 -0.78225785728E+02  0.22803516710E+03  0.24654659322E+03  0.47000000000E+01 0.  1.
         13    1    6    6    0    0  0.48666734517E+02 -0.26586285021E+01  0.60467626556E+02  0.77665006377E+02  0.00000000000E+00 0. -1.
        -14    1    6    6    0    0  0.42560972557E+01  0.14742259910E+01  0.19665284428E+03  0.19670442005E+03  0.00000000000E+00 0.  1.
</event>
<event>
12    1  0.8684423E-002  0.1765574E+03  0.7818608E-02  0.1171223E+00
         21   -1    0    0  501  502  0.00000000000E+00  0.00000000000E+00  0.18059845633E+03  0.18059845633E+03  0.00000000000E+00 0. -1.
         21   -1    0    0  502  503 -0.00000000000E+00 -0.00000000000E+00 -0.22522953415E+03  0.22522953415E+03  0.00000000000E+00 0. -1.
         -6    2    1    2    0  503  0.18255929303E+02  0.35936155216E+02  0.75925970066E+02  0.19219066385E+03  0.17189477053E+03 0.  0.
        -24    2    3    3    0    0  0.18992002349E+02 -0.38182393144E+01 -0.74712847918E+01  0.99680416821E+02  0.97494052621E+02 0.  0.
          6    2    1    2  501    0 -0.18255929303E+02 -0.35936155216E+02 -0.12055704788E+03  0.21363732663E+03  0.17170387104E+03 0.  0.
         24    2    5    5    0    0  0.35368412978E+01  0.21628156754E+02 -0.11407214261E+02  0.88240552179E+02  0.84711180495E+02 0.  0.
          5    1    5    5  501    0 -0.21792770601E+02 -0.57564311970E+02 -0.10914983362E+03  0.12539677445E+03  0.47000000000E+01 0. -1.
        -11    1    6    6    0    0  0.51538303673E+01  0.30438851153E+02 -0.44386100797E+02  0.54066732571E+02  0.00000000000E+00 0.  1.
         12    1    6    6    0    0 -0.16169890695E+01 -0.88106943994E+01  0.32978886536E+02  0.34173819608E+02  0.00000000000E+00 0. -1.
         -5    1    3    3    0  503 -0.73607304523E+00  0.39754394530E+02  0.83397254857E+02  0.92510247031E+02  0.47000000000E+01 0.  1.
         11    1    4    4    0    0  0.14227043745E+01  0.43278175679E+02  0.13289674391E+02  0.45295033097E+02  0.00000000000E+00 0. -1.
        -12    1    4    4    0    0  0.17569297974E+02 -0.47096414994E+02 -0.20760959183E+02  0.54385383724E+02  0.00000000000E+00 0.  1.
</event>
<event>
12    1  0.8684423E-002  0.1863256E+03  0.7818608E-02  0.1162549E+00
         21   -1    0    0  503  502  0.00000000000E+00  0.00000000000E+00  0.31725234404E+03  0.31725234404E+03  0.00000000000E+00 0.  1.
         21   -1    0    0  501  503 -0.00000000000E+00 -0.00000000000E+00 -0.15922237651E+03  0.15922237651E+03  0.00000000000E+00 0. -1.
          6    2    1    2  501    0 -0.24950386992E+01 -0.63846769694E+02 -0.57088558818E+02  0.19188166751E+03  0.17168819284E+03 0.  0.
         24    2    3    3    0    0  0.37593797481E+02 -0.22240799229E+02  0.22474918869E+02  0.93440778925E+02  0.79486542436E+02 0.  0.
         -6    2    1    2    0  502  0.24950386992E+01  0.63846769694E+02  0.21511852635E+03  0.28459305304E+03  0.17502739854E+03 0.  0.
        -24    2    5    5    0    0 -0.20381838303E+02 -0.19435614500E+02  0.16248670688E+03  0.18334333482E+03  0.80122943440E+02 0.  0.
          5    1    3    3  501    0 -0.40088836180E+02 -0.41605970465E+02 -0.79563477687E+02  0.98440888590E+02  0.47000000000E+01 0. -1.
        -11    1    4    4    0    0  0.20172153921E+02  0.10011355324E+02  0.45067696332E+02  0.50380951578E+02  0.00000000000E+00 0.  1.
         12    1    4    4    0    0  0.17421643560E+02 -0.32252154552E+02 -0.22592777463E+02  0.43059827347E+02  0.00000000000E+00 0. -1.
         -5    1    5    5    0  502  0.22876877003E+02  0.83282384194E+02  0.52631819473E+02  0.10124971822E+03  0.47000000000E+01 0.  1.
         13    1    6    6    0    0  0.22003646755E+02 -0.33635314877E+02  0.79541336525E+02  0.89119689708E+02  0.00000000000E+00 0. -1.
        -14    1    6    6    0    0 -0.42385485058E+02  0.14199700377E+02  0.82945370355E+02  0.94223645110E+02  0.00000000000E+00 0.  1.
</event>
<event>
12    1  0.8684423E-002  0.2504186E+03  0.7818608E-02  0.1114271E+00
         21   -1    0    0  501  502  0.00000000000E+00  0.00000000000E+00  0.27196104159E+03  0.27196104159E+03  0.00000000000E+00 0.  1.
         21   -1    0    0  502  503 -0.00000000000E+00 -0.00000000000E+00 -0.40991781397E+03  0.40991781397E+03  0.00000000000E+00 0.  1.
         -6    2    1    2    0  503  0.73851393187E+02 -0.15354331576E+03 -0.29942250443E+03  0.39033744599E+03  0.18352086393E+03 0.  0.
        -24    2    3    3    0    0  0.77002775412E+02 -0.14896060383E+02 -0.13311459389E+03  0.17374242356E+03  0.79470841217E+02 0.  0.
          6    2    1    2  501    0 -0.73851393187E+02  0.15354331576E+03  0.16146573205E+03  0.29154140958E+03  0.17290353606E+03 0.  0.
         24    2    5    5    0    0 -0.81107588777E+02  0.75428627095E+02  0.35897279092E+02  0.14340605479E+03  0.83718356183E+02 0.  0.
          5    1    5    5  501    0  0.72561955903E+01  0.78114688661E+02  0.12556845296E+03  0.14813535478E+03  0.47000000000E+01 0. -1.
        -11    1    6    6    0    0 -0.17205841430E+02  0.64527071483E+02  0.41028911542E+02  0.78378284720E+02  0.00000000000E+00 0.  1.
         12    1    6    6    0    0 -0.63901747347E+02  0.10901555612E+02 -0.51316324494E+01  0.65027770071E+02  0.00000000000E+00 0. -1.
         -5    1    3    3    0  503 -0.31513822254E+01 -0.13864725537E+03 -0.16630791054E+03  0.21659502243E+03  0.47000000000E+01 0.  1.
         13    1    4    4    0    0  0.37531200540E+02  0.32602009515E+02 -0.64335638356E+02  0.81305328245E+02  0.00000000000E+00 0. -1.
        -14    1    4    4    0    0  0.39471574872E+02 -0.47498069898E+02 -0.68778955534E+02  0.92437095320E+02  0.00000000000E+00 0.  1.
</event>
<event>
12    1  0.8684423E-002  0.2160572E+03  0.7818608E-02  0.1136974E+00
         21   -1    0    0  501  502  0.00000000000E+00  0.00000000000E+00  0.95714029970E+02  0.95714029970E+02  0.00000000000E+00 0. -1.
         21   -1    0    0  502  503 -0.00000000000E+00 -0.00000000000E+00 -0.49179562138E+03  0.49179562138E+03  0.00000000000E+00 0.  1.
         -6    2    1    2    0  503  0.16869937291E+02 -0.13133494500E+03 -0.22927845928E+03  0.31503863941E+03  0.17072571531E+03 0.  0.
        -24    2    3    3    0    0 -0.69451000439E+01 -0.14060163737E+03 -0.23760067525E+03  0.28775536854E+03  0.80820890856E+02 0.  0.
          6    2    1    2  501    0 -0.16869937291E+02  0.13133494500E+03 -0.16680313213E+03  0.27247101194E+03  0.16995206647E+03 0.  0.
         24    2    5    5    0    0 -0.74194924754E+02  0.67602013481E+02 -0.11133041137E+03  0.17025871573E+03  0.80738161369E+02 0.  0.
          5    1    5    5  501    0  0.57324987463E+02  0.63732931522E+02 -0.55472720763E+02  0.10221229621E+03  0.47000000000E+01 0. -1.
        -13    1    6    6    0    0 -0.50874527682E+02  0.18750976682E+02 -0.10173700836E+03  0.11528328397E+03  0.00000000000E+00 0.  1.
         14    1    6    6    0    0 -0.23320397071E+02  0.48851036799E+02 -0.95934030088E+01  0.54975431760E+02  0.00000000000E+00 0. -1.
         -5    1    3    3    0  503  0.23815037335E+02  0.92666923671E+01  0.83222159684E+01  0.27283270869E+02  0.47000000000E+01 0.  1.
         13    1    4    4    0    0  0.20589331337E+02 -0.87051181521E+02 -0.83743799474E+02  0.12253510811E+03  0.00000000000E+00 0. -1.
        -14    1    4    4    0    0 -0.27534431381E+02 -0.53550455849E+02 -0.15385687578E+03  0.16522026043E+03  0.00000000000E+00 0.  1.
</event>
<event>
12    1  0.8684423E-002  0.2168439E+03  0.7818608E-02  0.1136692E+00
         21   -1    0    0  503  502  0.00000000000E+00  0.00000000000E+00  0.65075547336E+03  0.65075547336E+03  0.00000000000E+00 0. -1.
         21   -1    0    0  501  503 -0.00000000000E+00 -0.00000000000E+00 -0.10551639567E+03  0.10551639567E+03  0.00000000000E+00 0.  1.
          6    2    1    2  501    0  0.89865842885E+02 -0.91704291240E+02  0.58898431538E+02  0.22470048407E+03  0.17474477261E+03 0.  0.
         24    2    3    3    0    0  0.99494670275E+02 -0.45451461673E+02 -0.15700149803E+02  0.13627493969E+03  0.79745468232E+02 0.  0.
         -6    2    1    2    0  502 -0.89865842885E+02  0.91704291240E+02  0.48634064616E+03  0.53157138496E+03  0.17191674279E+03 0.  0.
        -24    2    5    5    0    0 -0.65041440139E+02  0.65275362835E+02  0.47960561856E+03  0.49439357135E+03  0.76890780370E+02 0.  0.
          5    1    3    3  501    0 -0.96288273904E+01 -0.46252829567E+02  0.74598581341E+02  0.88425544374E+02  0.47000000000E+01 0. -1.
        -11    1    4    4    0    0  0.69304072596E+02 -0.16931928709E+02 -0.45981411321E+02  0.84876586143E+02  0.00000000000E+00 0.  1.
         12    1    4    4    0    0  0.30190597679E+02 -0.28519532964E+02  0.30281261518E+02  0.51398353551E+02  0.00000000000E+00 0. -1.
         -5    1    5    5    0  502 -0.24824402746E+02  0.26428928405E+02  0.67350275992E+01  0.37177813614E+02  0.47000000000E+01 0.  1.
         11    1    6    6    0    0 -0.28788743348E+02  0.66870888352E+02  0.40427597832E+03  0.41077922793E+03  0.00000000000E+00 0. -1.
        -12    1    6    6    0    0 -0.36252696791E+02 -0.15955255166E+01  0.75329640244E+02  0.83614343420E+02  0.00000000000E+00 0.  1.
</event>
<event>
12    1  0.8684423E-002  0.1818175E+03  0.7818608E-02  0.1166089E+00
         21   -1    0    0  503  502  0.00000000000E+00  0.00000000000E+00  0.56733758489E+02  0.56733758489E+02  0.00000000000E+00 0.  1.
         21   -1    0    0  501  503 -0.00000000000E+00 -0.00000000000E+00 -0.58227666333E+03  0.58227666333E+03  0.00000000000E+00 0.  1.
          6    2    1    2  501    0 -0.56422513609E+02  0.97096995965E+01 -0.26004442496E+03  0.31730223840E+03  0.17256833206E+03 0.  0.
         24    2    3    3    0    0  0.28967888820E+02 -0.11070172176E+02 -0.16285114846E+03  0.18618417368E+03  0.84748821117E+02 0.  0.
         -6    2    1    2    0  502  0.56422513609E+02 -0.97096995965E+01 -0.26549847988E+03  0.32170818342E+03  0.17242080545E+03 0.  0.
        -24    2    5    5    0    0  0.10587394366E+02 -0.47100147089E+02 -0.23900555348E+03  0.25672457880E+03  0.80332670762E+02 0.  0.
          5    1    3    3  501    0 -0.85390402428E+02  0.20779871773E+02 -0.97193276496E+02  0.13111806471E+03  0.47000000000E+01 0. -1.
        -11    1    4    4    0    0  0.16590583506E+01 -0.39504215270E+02 -0.36447128046E+02  0.53774795597E+02  0.00000000000E+00 0.  1.
         12    1    4    4    0    0  0.27308830469E+02  0.28434043094E+02 -0.12640402041E+03  0.13240937809E+03  0.00000000000E+00 0. -1.
         -5    1    5    5    0  502  0.45835119243E+02  0.37390447493E+02 -0.26492926400E+02  0.64983604616E+02  0.47000000000E+01 0.  1.
         11    1    6    6    0    0  0.44541609333E+02 -0.35499433968E+02 -0.12899118373E+03  0.14100670287E+03  0.00000000000E+00 0. -1.
        -12    1    6    6    0    0 -0.33954214967E+02 -0.11600713121E+02 -0.11001436976E+03  0.11571787594E+03  0.00000000000E+00 0.  1.
</event>
<event>
12    1  0.8684423E-002  0.1762277E+03  0.7818608E-02  0.1171605E+00
         21   -1    0    0  501  502  0.00000000000E+00  0.00000000000E+00  0.11713411766E+03  0.11713411766E+03  0.00000000000E+00 0.  1.
         21   -1    0    0  502  503 -0.00000000000E+00 -0.00000000000E+00 -0.26654349414E+03  0.26654349414E+03  0.00000000000E+00 0.  1.
         -6    2    1    2    0  503 -0.36760414927E+02 -0.13337740284E+02 -0.91301997926E+02  0.19811718091E+03  0.17142094133E+03 0.  0.
        -24    2    3    3    0    0  0.11441953828E+02 -0.65406078834E+02 -0.29923464567E+02  0.10418106118E+03  0.74494337511E+02 0.  0.
          6    2    1    2  501    0  0.36760414927E+02  0.13337740284E+02 -0.58107378551E+02  0.18556043089E+03  0.17183417195E+03 0.  0.
         24    2    5    5    0    0  0.74282297933E+02  0.46442993955E+02 -0.13967883711E+02  0.11867071173E+03  0.78821472793E+02 0.  0.
          5    1    5    5  501    0 -0.37521883006E+02 -0.33105253671E+02 -0.44139494840E+02  0.66889719163E+02  0.47000000000E+01 0. -1.
        -11    1    6    6    0    0  0.26943895538E+02 -0.47904953267E+01  0.26443616533E+02  0.38055054955E+02  0.00000000000E+00 0.  1.
         12    1    6    6    0    0  0.47338402394E+02  0.51233489282E+02 -0.40411500244E+02  0.80615656775E+02  0.00000000000E+00 0. -1.
         -5    1    3    3    0  503 -0.48202368754E+02  0.52068338550E+02 -0.61378533359E+02  0.93936119731E+02  0.47000000000E+01 0.  1.
         13    1    4    4    0    0  0.31735376923E+02 -0.10285174793E+01 -0.45838549639E+01  0.32081205136E+02  0.00000000000E+00 0. -1.
        -14    1    4    4    0    0 -0.20293423095E+02 -0.64377561354E+02 -0.25339609603E+02  0.72099856045E+02  0.00000000000E+00 0.  1.
</event>
<event>
12    1  0.8684423E-002  0.2164335E+03  0.7818608E-02  0.1137458E+00
         21   -1    0    0  503  502  0.00000000000E+00  0.00000000000E+00  0.19497302664E+04  0.19497302664E+04  0.00000000000E+00 0.  1.
         21   -1    0    0  501  503 -0.00000000000E+00 -0.00000000000E+00 -0.24039544787E+02  0.24039544787E+02  0.00000000000E+00 0. -1.
          6    2    1    2  501    0  0.12572181028E+03 -0.32223389964E+02  0.11185291487E+04  0.11392764892E+04  0.17320260380E+03 0.  0.
         24    2    3    3    0    0  0.12947739551E+02  0.54573105744E+00  0.69768986783E+03  0.70233301845E+03  0.79577480229E+02 0.  0.
         -6    2    1    2    0  502 -0.12572181028E+03  0.32223389964E+02  0.80716157295E+03  0.83449332200E+03  0.16740662823E+03 0.  0.
        -24    2    5    5    0    0 -0.93323383160E+02  0.77764098755E+02  0.44340930588E+03  0.46644248850E+03  0.78741816356E+02 0.  0.
          5    1    3    3  501    0  0.11277407073E+03 -0.32769121021E+02  0.42083928083E+03  0.43694347073E+03  0.47000000000E+01 0. -1.
        -11    1    4    4    0    0  0.41456151775E+02  0.86907351729E+01  0.55395578410E+03  0.55557281443E+03  0.00000000000E+00 0.  1.
         12    1    4    4    0    0 -0.28508412225E+02 -0.81450041155E+01  0.14373408372E+03  0.14676020402E+03  0.00000000000E+00 0. -1.
         -5    1    5    5    0  502 -0.32398427120E+02 -0.45540708792E+02  0.36375226708E+03  0.36805083350E+03  0.47000000000E+01 0.  1.
         13    1    6    6    0    0 -0.53909903386E+02  0.60490082888E+02  0.15558999638E+03  0.17542398577E+03  0.00000000000E+00 0. -1.
        -14    1    6    6    0    0 -0.39413479774E+02  0.17274015867E+02  0.28781930949E+03  0.29101850273E+03  0.00000000000E+00 0.  1.
</event>
<event>
12    1  0.8684423E-002  0.1946298E+03  0.7818608E-02  0.1154757E+00
         21   -1    0    0  503  502  0.00000000000E+00  0.00000000000E+00  0.14149543235E+03  0.14149543235E+03  0.00000000000E+00 0.  1.
         21   -1    0    0  501  503 -0.00000000000E+00 -0.00000000000E+00 -0.77245807887E+03  0.77245807887E+03  0.00000000000E+00 0.  1.
          6    2    1    2  501    0  0.79251299035E+02 -0.41410894764E+02 -0.68631849918E+03  0.71338198093E+03  0.17287318414E+03 0.  0.
         24    2    3    3    0    0  0.44018530288E+00  0.57916417964E+00 -0.50261517273E+03  0.50907006535E+03  0.80807118411E+02 0.  0.
         -6    2    1    2    0  502 -0.79251299035E+02  0.41410894764E+02  0.55355852665E+02  0.20057153028E+03  0.17078945439E+03 0.  0.
        -24    2    5    5    0    0  0.73087693191E+01  0.61845829120E+02  0.46210385589E+02  0.11103962790E+03  0.79473734904E+02 0.  0.
          5    1    3    3  501    0  0.78811113732E+02 -0.41990058944E+02 -0.18370332645E+03  0.20431191558E+03  0.47000000000E+01 0. -1.
        -11    1    4    4    0    0  0.39364517279E+02  0.10169914734E+02 -0.26327350808E+03  0.26639431759E+03  0.00000000000E+00 0.  1.
         12    1    4    4    0    0 -0.38924331976E+02 -0.95907505542E+01 -0.23934166465E+03  0.24267574776E+03  0.00000000000E+00 0. -1.
         -5    1    5    5    0  502 -0.86560068354E+02 -0.20434934356E+02  0.91454670761E+01  0.89531902379E+02  0.47000000000E+01 0.  1.
         11    1    6    6    0    0 -0.15840319295E+02  0.67589348964E+02  0.13767223637E+02  0.70772680148E+02  0.00000000000E+00 0. -1.
        -12    1    6    6    0    0  0.23149088615E+02 -0.57435198433E+01  0.32443161952E+02  0.40266947753E+02  0.00000000000E+00 0.  1.
</event>
<event>
12    1  0.8684423E-002  0.2033931E+03  0.7818608E-02  0.1147351E+00
         21   -1    0    0  501  502  0.00000000000E+00  0.00000000000E+00  0.40877098068E+03  0.40877098068E+03  0.00000000000E+00 0. -1.
         21   -1    0    0  502  503 -0.00000000000E+00 -0.00000000000E+00 -0.54531056324E+03  0.54531056324E+03  0.00000000000E+00 0.  1.
         -6    2    1    2    0  503  0.20400389502E+02  0.10695150989E+03 -0.49922055703E+03  0.53826156371E+03  0.16926176487E+03 0.  0.
        -24    2    3    3    0    0  0.39603011053E+02  0.91424665353E+02 -0.19628666473E+03  0.23428647150E+03  0.80217380042E+02 0.  0.
          6    2    1    2  501    0 -0.20400389502E+02 -0.10695150989E+03  0.36268097447E+03  0.41581998021E+03  0.17179629024E+03 0.  0.
         24    2    5    5    0    0 -0.75995016914E+02 -0.61370881810E+02  0.27355846226E+03  0.30121950710E+03  0.79732875638E+02 0.  0.
          5    1    5    5  501    0  0.55594627412E+02 -0.45580628081E+02  0.89122512212E+02  0.11460047311E+03  0.47000000000E+01 0. -1.
        -13    1    6    6    0    0  0.28284168288E+01 -0.30842971098E+02  0.28866203792E+02  0.42338475755E+02  0.00000000000E+00 0.  1.
         14    1    6    6    0    0 -0.78823433743E+02 -0.30527910712E+02  0.24469225846E+03  0.25888103135E+03  0.00000000000E+00 0. -1.
         -5    1    3    3    0  503 -0.19202621551E+02  0.15526844537E+02 -0.30293389230E+03  0.30397509220E+03  0.47000000000E+01 0.  1.
         13    1    4    4    0    0  0.54842153528E+01  0.89829225562E+02 -0.11436196874E+03  0.14552672015E+03  0.00000000000E+00 0. -1.
        -14    1    4    4    0    0  0.34118795701E+02  0.15954397912E+01 -0.81924695984E+02  0.88759751353E+02  0.00000000000E+00 0.  1.
</event>
<event>
12    1  0.8684423E-002  0.1803131E+03  0.7818608E-02  0.1169231E+00
         21   -1    0    0  501  502  0.00000000000E+00  0.00000000000E+00  0.15871897820E+03  0.15871897820E+03  0.00000000000E+00 0.  1.
         21   -1    0    0  502  503 -0.00000000000E+00 -0.00000000000E+00 -0.23296727262E+03  0.23296727262E+03  0.00000000000E+00 0.  1.
         -6    2    1    2    0  503  0.25390869126E+01  0.43495630561E+02 -0.11473734195E+03  0.21372284856E+03  0.17496994462E+03 0.  0.
        -24    2    3    3    0    0 -0.11206998900E+02  0.17789291809E+02  0.10936794474E+02  0.84626569403E+02  0.81240304333E+02 0.  0.
          6    2    1    2  501    0 -0.25390869126E+01 -0.43495630561E+02  0.40489047523E+02  0.17796340226E+03  0.16772982064E+03 0.  0.
         24    2    5    5    0    0  0.18410934549E+02 -0.42382158351E+02 -0.34544166633E+02  0.99910750500E+02  0.81569901065E+02 0.  0.
          5    1    5    5  501    0 -0.20950021462E+02 -0.11134722097E+01  0.75033214157E+02  0.78052651757E+02  0.47000000000E+01 0. -1.
        -11    1    6    6    0    0 -0.16224114829E+02 -0.53967021785E+02 -0.14237557631E+02  0.58123742048E+02  0.00000000000E+00 0.  1.
         12    1    6    6    0    0  0.34635049378E+02  0.11584863435E+02 -0.20306609002E+02  0.41787008452E+02  0.00000000000E+00 0. -1.
         -5    1    3    3    0  503  0.13746085813E+02  0.25706338752E+02 -0.12567413642E+03  0.12909627916E+03  0.47000000000E+01 0.  1.
         13    1    4    4    0    0  0.13550107901E+02 -0.37518021415E+01  0.38993713855E+02  0.41451069511E+02  0.00000000000E+00 0. -1.
        -14    1    4    4    0    0 -0.24757106802E+02  0.21541093951E+02 -0.28056919380E+02  0.43175499891E+02  0.00000000000E+00 0.  1.
</event>
<event>
12    1  0.8684423E-002  0.1815463E+03  0.7818608E-02  0.1166909E+00
         21   -1    0    0  501  502  0.00000000000E+00  0.00000000000E+00  0.95110811492E+03  0.95110811492E+03  0.00000000000E+00 0. -1.
         21   -1    0    0  502  503 -0.00000000000E+00 -0.00000000000E+00 -0.34192583095E+02  0.34192583095E+02  0.00000000000E+00 0. -1.
         -6    2    1    2    0  503  0.18921029771E+02 -0.48316321588E+02  0.46288825903E+03  0.49632236940E+03  0.17139977163E+03 0.  0.
        -24    2    3    3    0    0  0.44943096846E+02 -0.83271641783E+02  0.25520676226E+03  0.28406611746E+03  0.81295875087E+02 0.  0.
          6    2    1    2  501    0 -0.18921029771E+02  0.48316321588E+02  0.45402727279E+03  0.48897832862E+03  0.17397289766E+03 0.  0.
         24    2    5    5    0    0 -0.78672228472E+02  0.15607919450E+02  0.26523221724E+03  0.28821551255E+03  0.79291398822E+02 0.  0.
          5    1    5    5  501    0  0.59751198701E+02  0.32708402137E+02  0.18879505555E+03  0.20076281607E+03  0.47000000000E+01 0. -1.
        -11    1    6    6    0    0  0.70376289168E+01 -0.90874865974E+01  0.39918763106E+01  0.12167403581E+02  0.00000000000E+00 0.  1.
         12    1    6    6    0    0 -0.85709857389E+02  0.24695406048E+02  0.26124034093E+03  0.27604810897E+03  0.00000000000E+00 0. -1.
         -5    1    3    3    0  503 -0.26022067075E+02  0.34955320195E+02  0.20768149678E+03  0.21225625194E+03  0.47000000000E+01 0.  1.
         13    1    4    4    0    0  0.55424528491E+02 -0.32860145194E+02  0.87707026886E+02  0.10883101610E+03  0.00000000000E+00 0. -1.
        -14    1    4    4    0    0 -0.10481431645E+02 -0.50411496588E+02  0.16749973537E+03  0.17523510135E+03  0.00000000000E+00 0.  1.
</event>
<event>
12    1  0.8684423E-002  0.2294845E+03  0.7818608E-02  0.1127374E+00
         21   -1    0    0  503  502  0.00000000000E+00  0.00000000000E+00  0.20642254438E+03  0.20642254438E+03  0.00000000000E+00 0.  1.
         21   -1    0    0  501  503 -0.00000000000E+00 -0.00000000000E+00 -0.48553428531E+03  0.48553428531E+03  0.00000000000E+00 0.  1.
          6    2    1    2  501    0 -0.11129253585E+03 -0.98752890759E+02 -0.37942171958E+03  0.44342301227E+03  0.17471395064E+03 0.  0.
         24    2    3    3    0    0 -0.14003464179E+03 -0.46225114309E+02 -0.25078435083E+03  0.30145492221E+03  0.78967192002E+02 0.  0.
         -6    2    1    2    0  502  0.11129253585E+03  0.98752890759E+02  0.10030997865E+03  0.24853381742E+03  0.17195582170E+03 0.  0.
        -24    2    5    5    0    0  0.33436936313E+02 -0.50985918382E+01  0.77118639613E+02  0.11659992101E+03  0.80648823023E+02 0.  0.
          5    1    3    3  501    0  0.28742105944E+02 -0.52527776450E+02 -0.12863736876E+03  0.14196809005E+03  0.47000000000E+01 0. -1.
        -11    1    4    4    0    0 -0.14350506130E+03 -0.58005865298E+02 -0.22809636179E+03  0.27565618674E+03  0.00000000000E+00 0.  1.
         12    1    4    4    0    0  0.34704195061E+01  0.11780750989E+02 -0.22687989040E+02  0.25798735474E+02  0.00000000000E+00 0. -1.
         -5    1    5    5    0  502  0.77855599536E+02  0.10385148260E+03  0.23191339032E+02  0.13193389641E+03  0.47000000000E+01 0.  1.
         11    1    6    6    0    0 -0.13361624386E+02  0.13430573316E+01  0.66942918788E+02  0.68276578598E+02  0.00000000000E+00 0. -1.
        -12    1    6    6    0    0  0.46798560699E+02 -0.64416491698E+01  0.10175720825E+02  0.48323342412E+02  0.00000000000E+00 0.  1.
</event>
<event>
12    1  0.8684423E-002  0.1799249E+03  0.7818608E-02  0.1169583E+00
         21   -1    0    0  501  502  0.00000000000E+00  0.00000000000E+00  0.17064884617E+04  0.17064884617E+04  0.00000000000E+00 0.  1.
         21   -1    0    0  502  503 -0.00000000000E+00 -0.00000000000E+00 -0.54374176684E+02  0.54374176684E+02  0.00000000000E+00 0.  1.
         -6    2    1    2    0  503 -0.45525810247E+02  0.27658714096E+02  0.11389616524E+03  0.21294438076E+03  0.17185857260E+03 0.  0.
        -24    2    3    3    0    0 -0.22241903640E+01 -0.35311340299E+02  0.18826860662E+02  0.90876691719E+02  0.81561538968E+02 0.  0.
          6    2    1    2  501    0  0.45525810247E+02 -0.27658714096E+02  0.15382181198E+04  0.15479182577E+04  0.16461574775E+03 0.  0.
         24    2    5    5    0    0  0.38925470761E+02  0.51207645056E+00  0.41053390216E+03  0.41985312538E+03  0.78886675502E+02 0.  0.
          5    1    5    5  501    0  0.66003394860E+01 -0.28170790546E+02  0.11276842176E+04  0.11280651323E+04  0.47000000000E+01 0. -1.
        -11    1    6    6    0    0  0.34901793820E+02 -0.30508749089E+02  0.13906202340E+03  0.14658501061E+03  0.00000000000E+00 0.  1.
         12    1    6    6    0    0  0.40236769415E+01  0.31020825539E+02  0.27147187876E+03  0.27326811477E+03  0.00000000000E+00 0. -1.
         -5    1    3    3    0  503 -0.43301619883E+02  0.62970054395E+02  0.95069304574E+02  0.12206768904E+03  0.47000000000E+01 0.  1.
         13    1    4    4    0    0  0.15207477451E+02  0.27302852026E+01  0.40789688623E+02  0.43617892266E+02  0.00000000000E+00 0. -1.
        -14    1    4    4    0    0 -0.17431667815E+02 -0.38041625502E+02 -0.21962827962E+02  0.47258799453E+02  0.00000000000E+00 0.  1.
</event>
<event>
12    1  0.8684423E-002  0.1777760E+03  0.7818608E-02  0.1170269E+00
         21   -1    0    0  501  502  0.00000000000E+00  0.00000000000E+00  0.95483722633E+02  0.95483722633E+02  0.00000000000E+00 0. -1.
         21   -1    0    0  502  503 -0.00000000000E+00 -0.00000000000E+00 -0.42400905039E+03  0.42400905039E+03  0.00000000000E+00 0.  1.
         -6    2    1    2    0  503 -0.39319818930E+02  0.19231698021E+02 -0.28780021011E+03  0.33827986491E+03  0.17230322021E+03 0.  0.
        -24    2    3    3    0    0 -0.77925323188E+01  0.75785265172E+02 -0.20847496454E+03  0.23577688767E+03  0.79528610834E+02 0.  0.
          6    2    1    2  501    0  0.39319818930E+02 -0.19231698021E+02 -0.40725117649E+02  0.18121290812E+03  0.17106629268E+03 0.  0.
         24    2    5    5    0    0 -0.43446902177E+02 -0.14678752895E+02 -0.26074324523E+02  0.96905167241E+02  0.81287403349E+02 0.  0.
          5    1    5    5  501    0  0.82766721108E+02 -0.45529451265E+01 -0.14650793126E+02  0.84307740875E+02  0.47000000000E+01 0. -1.
        -13    1    6    6    0    0 -0.28691700782E+02 -0.48033661149E+02 -0.91371565282E+01  0.56691568390E+02  0.00000000000E+00 0.  1.
         14    1    6    6    0    0 -0.14755201395E+02  0.33354908254E+02 -0.16937167995E+02  0.40213598851E+02  0.00000000000E+00 0. -1.
         -5    1    3    3    0  503 -0.31527286612E+02 -0.56553567151E+02 -0.79325245568E+02  0.10250297724E+03  0.47000000000E+01 0.  1.
         13    1    4    4    0    0  0.16284760917E+02 -0.56910043034E+01 -0.79386185848E+02  0.81238829826E+02  0.00000000000E+00 0. -1.
        -14    1    4    4    0    0 -0.24077293235E+02  0.81476269475E+02 -0.12908877869E+03  0.15453805784E+03  0.00000000000E+00 0.  1.
</event>
<event>
12    1  0.8684423E-002  0.1986789E+03  0.7818608E-02  0.1151041E+00
         21   -1    0    0  501  502  0.00000000000E+00  0.00000000000E+00  0.35241547856E+03  0.35241547856E+03  0.00000000000E+00 0.  1.
         21   -1    0    0  502  503 -0.00000000000E+00 -0.00000000000E+00 -0.23249085611E+03  0.23249085611E+03  0.00000000000E+00 0.  1.
         -6    2    1    2    0  503  0.71628994981E+02  0.71900154276E+02 -0.15105168010E+03  0.24889823451E+03  0.16980393393E+03 0.  0.
        -24    2    3    3    0    0  0.18928001509E+02 -0.14723391788E+02 -0.11723531444E+03  0.14190912277E+03  0.76282584291E+02 0.  0.
          6    2    1    2  501    0 -0.71628994981E+02 -0.71900154276E+02  0.27097630255E+03  0.33600810015E+03  0.17080088325E+03 0.  0.
         24    2    5    5    0    0 -0.97273336865E+02 -0.98575423511E+02  0.20180214946E+03  0.25741830619E+03  0.79755003922E+02 0.  0.
          5    1    5    5  501    0  0.25644341884E+02  0.26675269234E+02  0.69174153088E+02  0.78589793961E+02  0.47000000000E+01 0. -1.
        -11    1    6    6    0    0 -0.41704234639E+02  0.27579722212E+01  0.74940637342E+02  0.85807626251E+02  0.00000000000E+00 0.  1.
         12    1    6    6    0    0 -0.55569102226E+02 -0.10133339573E+03  0.12686151212E+03  0.17161067994E+03  0.00000000000E+00 0. -1.
         -5    1    3    3    0  503  0.52700993473E+02  0.86623546064E+02 -0.33816365657E+02  0.10698911174E+03  0.47000000000E+01 0.  1.
         13    1    4    4    0    0 -0.12417503997E+01 -0.13272790791E+02  0.76684370708E+01  0.15379006682E+02  0.00000000000E+00 0. -1.
        -14    1    4    4    0    0  0.20169751908E+02 -0.14506009974E+01 -0.12490375151E+03  0.12653011608E+03  0.00000000000E+00 0.  1.
</event>
<event>
12    1  0.8684423E-002  0.2483303E+03  0.7818608E-02  0.1114612E+00
         21   -1    0    0  501  502  0.00000000000E+00  0.00000000000E+00  0.37287979664E+03  0.37287979664E+03  0.00000000000E+00 0. -1.
         21   -1    0    0  502  503 -0.00000000000E+00 -0.00000000000E+00 -0.16981464148E+03  0.16981464148E+03  0.00000000000E+00 0.  1.
         -6    2    1    2    0  503  0.22882494235E+02 -0.17855390414E+03  0.15050199581E+03  0.29037699795E+03  0.17106386226E+03 0.  0.
        -24    2    3    3    0    0 -0.23487777636E+02 -0.17014752116E+03  0.15296448339E+03  0.24295313019E+03  0.78270273000E+02 0.  0.
          6    2    1    2  501    0 -0.22882494235E+02  0.17855390414E+03  0.52563159349E+02  0.25231744017E+03  0.16880787799E+03 0.  0.
         24    2    5    5    0    0 -0.54582499802E+02  0.43464551085E+02  0.15268247196E+02  0.10855713921E+03  0.81750330978E+02 0.  0.
          5    1    5    5  501    0  0.31700005567E+02  0.13508935305E+03  0.37294912153E+02  0.14376030097E+03  0.47000000000E+01 0. -1.
        -13    1    6    6    0    0  0.16863963510E+02  0.23893135437E+02  0.18155441210E+02  0.34422307183E+02  0.00000000000E+00 0.  1.
         14    1    6    6    0    0 -0.71446463312E+02  0.19571415648E+02 -0.28871940142E+01  0.74134832026E+02  0.00000000000E+00 0. -1.
         -5    1    3    3    0  503  0.46370271872E+02 -0.84063829785E+01 -0.24624875792E+01  0.47423867760E+02  0.47000000000E+01 0.  1.
         13    1    4    4    0    0 -0.10819284356E+02 -0.38275162117E+02  0.85468759323E+02  0.94270641078E+02  0.00000000000E+00 0. -1.
        -14    1    4    4    0    0 -0.12668493280E+02 -0.13187235904E+03  0.67495724069E+02  0.14868248911E+03  0.00000000000E+00 0.  1.
</event>
<event>
12    1  0.8684423E-002  0.1925662E+03  0.7818608E-02  0.1156523E+00
         21   -1    0    0  501  502  0.00000000000E+00  0.00000000000E+00  0.17260726128E+03  0.17260726128E+03  0.00000000000E+00 0.  1.
         21   -1    0    0  502  503 -0.00000000000E+00 -0.00000000000E+00 -0.44343521756E+03  0.44343521756E+03  0.00000000000E+00 0. -1.
         -6    2    1    2    0  503 -0.78958970677E+02 -0.36103071501E+02 -0.35770289685E+03  0.40624267973E+03  0.17188310447E+03 0.  0.
        -24    2    3    3    0    0 -0.49416799799E+02 -0.86987750324E+02 -0.20314528645E+03  0.24079741589E+03  0.81893218772E+02 0.  0.
          6    2    1    2  501    0  0.78958970677E+02  0.36103071501E+02  0.86874940572E+02  0.20979979911E+03  0.17009041591E+03 0.  0.
         24    2    5    5    0    0  0.49370075887E+02  0.87453042640E+02  0.48447000749E+02  0.13901054293E+03  0.83014336743E+02 0.  0.
          5    1    5    5  501    0  0.29588894790E+02 -0.51349971139E+02  0.38427939823E+02  0.70789256176E+02  0.47000000000E+01 0. -1.
        -13    1    6    6    0    0  0.24138274525E+02  0.59307655082E+02  0.70508092549E+02  0.95244135585E+02  0.00000000000E+00 0.  1.
         14    1    6    6    0    0  0.25231801362E+02  0.28145387558E+02 -0.22061091800E+02  0.43766407348E+02  0.00000000000E+00 0. -1.
         -5    1    3    3    0  503 -0.29542170878E+02  0.50884678823E+02 -0.15455761039E+03  0.16544526385E+03  0.47000000000E+01 0.  1.
         11    1    4    4    0    0 -0.33607958593E+02 -0.79663059866E+02 -0.20575164021E+03  0.22318027564E+03  0.00000000000E+00 0. -1.
        -12    1    4    4    0    0 -0.15808841206E+02 -0.73246904572E+01  0.26063537514E+01  0.17617140246E+02  0.00000000000E+00 0.  1.
</event>
<event>
12    1  0.8684423E-002  0.1935973E+03  0.7818608E-02  0.1155813E+00
         21   -1    0    0  503  502  0.00000000000E+00  0.00000000000E+00  0.39541357217E+03  0.39541357217E+03  0.00000000000E+00 0.  1.
         21   -1    0    0  501  503 -0.00000000000E+00 -0.00000000000E+00 -0.23585322943E+03  0.23585322943E+03  0.00000000000E+00 0. -1.
          6    2    1    2  501    0 -0.19242157860E+02 -0.75215335693E+02 -0.16517309465E+03  0.25448393425E+03  0.17734800319E+03 0.  0.
         24    2    3    3    0    0 -0.43273592773E+02  0.22099086796E+02 -0.74897623012E+02  0.11950483414E+03  0.79440405218E+02 0.  0.
         -6    2    1    2    0  502  0.19242157860E+02  0.75215335693E+02  0.32473343740E+03  0.37678286734E+03  0.17460216607E+03 0.  0.
        -24    2    5    5    0    0  0.17951713141E+02  0.76284659501E+02  0.34157925452E+03  0.35921356868E+03  0.78844070945E+02 0.  0.
          5    1    3    3  501    0  0.24031434912E+02 -0.97314422489E+02 -0.90275471638E+02  0.13497910011E+03  0.47000000000E+01 0. -1.
        -11    1    4    4    0    0 -0.64804515163E+02  0.10660707862E+02 -0.67138178058E+02  0.93919171795E+02  0.00000000000E+00 0.  1.
         12    1    4    4    0    0  0.21530922391E+02  0.11438378934E+02 -0.77594449538E+01  0.25585662345E+02  0.00000000000E+00 0. -1.
         -5    1    5    5    0  502  0.12904447192E+01 -0.10693238079E+01 -0.16845817124E+02  0.17569298664E+02  0.47000000000E+01 0.  1.
         11    1    6    6    0    0 -0.28415635980E+02  0.10357587354E+02  0.10583712452E+03  0.11007372489E+03  0.00000000000E+00 0. -1.
        -12    1    6    6    0    0  0.46367349121E+02  0.65927072147E+02  0.23574213000E+03  0.24913984379E+03  0.00000000000E+00 0.  1.
</event>
<event>
12    1  0.8684423E-002  0.1914411E+03  0.7818608E-02  0.1160877E+00
         21   -1    0    0  501  502  0.00000000000E+00  0.00000000000E+00  0.34639736432E+02  0.34639736432E+02  0.00000000000E+00 0.  1.
         21   -1    0    0  502  503 -0.00000000000E+00 -0.00000000000E+00 -0.11930412042E+04  0.11930412042E+04  0.00000000000E+00 0.  1.
         -6    2    1    2    0  503 -0.37604331418E+02 -0.11524358402E+02 -0.82271390173E+03  0.84124097564E+03  0.17111784954E+03 0.  0.
        -24    2    3    3    0    0 -0.59157649634E+02  0.50678280561E+02 -0.51232776702E+03  0.52391565923E+03  0.77071145667E+02 0.  0.
          6    2    1    2  501    0  0.37604331418E+02  0.11524358402E+02 -0.33568756607E+03  0.38643996502E+03  0.18735743372E+03 0.  0.
         24    2    5    5    0    0  0.33589349695E+02  0.81771357406E+02 -0.12278827899E+03  0.16216567450E+03  0.58360476552E+02 0.  0.
          5    1    5    5  501    0  0.40149817230E+01 -0.70246999004E+02 -0.21289928708E+03  0.22427429052E+03  0.47000000000E+01 0. -1.
        -11    1    6    6    0    0  0.21135546786E+02  0.38068717202E+02 -0.10445009564E+03  0.11316254260E+03  0.00000000000E+00 0.  1.
         12    1    6    6    0    0  0.12453802909E+02  0.43702640204E+02 -0.18338183347E+02  0.49003131902E+02  0.00000000000E+00 0. -1.
         -5    1    3    3    0  503  0.21553318216E+02 -0.62202638964E+02 -0.31038613471E+03  0.31732531641E+03  0.47000000000E+01 0.  1.
         13    1    4    4    0    0  0.65899193088E+01  0.41982526334E+02 -0.17072438651E+03  0.17593400951E+03  0.00000000000E+00 0. -1.
        -14    1    4    4    0    0 -0.65747568943E+02  0.86957542274E+01 -0.34160338051E+03  0.34798164972E+03  0.00000000000E+00 0.  1.
</event>
<event>
12    1  0.8684423E-002  0.2176478E+03  0.7818608E-02  0.1136756E+00
         21   -1    0    0  501  502  0.00000000000E+00  0.00000000000E+00  0.44435943035E+03  0.44435943035E+03  0.00000000000E+00 0. -1.
         21   -1    0    0  502  503 -0.00000000000E+00 -0.00000000000E+00 -0.10416470176E+03  0.10416470176E+03  0.00000000000E+00 0.  1.
         -6    2    1    2    0  503  0.10109712597E+03 -0.87444243580E+02  0.15602375904E+03  0.26779465658E+03  0.17176565457E+03 0.  0.
        -24    2    3    3    0    0  0.13602929462E+03 -0.51558321617E+02  0.13161350694E+03  0.21188395805E+03  0.80065391696E+02 0.  0.
          6    2    1    2  501    0 -0.10109712597E+03  0.87444243580E+02  0.18417096955E+03  0.28072947553E+03  0.16438664116E+03 0.  0.
         24    2    5    5    0    0 -0.10027870170E+03  0.90930107893E+02  0.78253376144E+02  0.17464720716E+03  0.77807156203E+02 0.  0.
          5    1    5    5  501    0 -0.81842427446E+00 -0.34858643138E+01  0.10591759341E+03  0.10608226837E+03  0.47000000000E+01 0. -1.
        -11    1    6    6    0    0 -0.10896336140E+03  0.60864557751E+02  0.63929910492E+02  0.14023031759E+03  0.00000000000E+00 0.  1.
         12    1    6    6    0    0  0.86846596972E+01  0.30065550143E+02  0.14323465652E+02  0.34416889571E+02  0.00000000000E+00 0. -1.
         -5    1    3    3    0  503 -0.34932168650E+02 -0.35885921963E+02  0.24410252100E+02  0.55910698523E+02  0.47000000000E+01 0.  1.
         11    1    4    4    0    0  0.10354247573E+03 -0.47781295082E+01  0.10952475605E+03  0.15079637591E+03  0.00000000000E+00 0. -1.
        -12    1    4    4    0    0  0.32486818894E+02 -0.46780192108E+02  0.22088750895E+02  0.61087582139E+02  0.00000000000E+00 0.  1.
</event>
<event>
12    1  0.8684423E-002  0.2016461E+03  0.7818608E-02  0.1148645E+00
         21   -1    0    0  503  502  0.00000000000E+00  0.00000000000E+00  0.11694249759E+03  0.11694249759E+03  0.00000000000E+00 0.  1.
         21   -1    0    0  501  503 -0.00000000000E+00 -0.00000000000E+00 -0.34645714390E+03  0.34645714390E+03  0.00000000000E+00 0.  1.
          6    2    1    2  501    0 -0.19157031899E+02  0.10282556280E+03 -0.10199294845E+03  0.22597284049E+03  0.17239801294E+03 0.  0.
         24    2    3    3    0    0 -0.29026562976E+02  0.13948388970E+03 -0.81059974145E+02  0.18236641908E+03  0.79928058639E+02 0.  0.
         -6    2    1    2    0  502  0.19157031899E+02 -0.10282556280E+03 -0.12752169785E+03  0.23742680100E+03  0.17079114197E+03 0.  0.
        -24    2    5    5    0    0  0.74627815711E+02 -0.84949298521E+02 -0.10874560725E+03  0.17601670200E+03  0.79815901237E+02 0.  0.
          5    1    3    3  501    0  0.98695310771E+01 -0.36658326891E+02 -0.20932974310E+02  0.43606421403E+02  0.47000000000E+01 0. -1.
        -11    1    4    4    0    0 -0.13475414067E+02  0.57586693105E+02 -0.79378727935E+02  0.98988870362E+02  0.00000000000E+00 0.  1.
         12    1    4    4    0    0 -0.15551148909E+02  0.81897196591E+02 -0.16812462099E+01  0.83377548720E+02  0.00000000000E+00 0. -1.
         -5    1    5    5    0  502 -0.55470783811E+02 -0.17876264283E+02 -0.18776090593E+02  0.61410099001E+02  0.47000000000E+01 0.  1.
         13    1    6    6    0    0 -0.16268310205E+02 -0.14930890867E+02 -0.85174056877E+01  0.23667184427E+02  0.00000000000E+00 0. -1.
        -14    1    6    6    0    0  0.90896125916E+02 -0.70018407654E+02 -0.10022820157E+03  0.15234951758E+03  0.00000000000E+00 0.  1.
</event>
<event>
12    1  0.8684423E-002  0.1911666E+03  0.7818608E-02  0.1157612E+00
         21   -1    0    0  501  502  0.00000000000E+00  0.00000000000E+00  0.15643058695E+02  0.15643058695E+02  0.00000000000E+00 0. -1.
         21   -1    0    0  502  503 -0.00000000000E+00 -0.00000000000E+00 -0.25047850616E+04  0.25047850616E+04  0.00000000000E+00 0. -1.
         -6    2    1    2    0  503 -0.80626714065E+02  0.10552641617E+01 -0.15792006258E+04  0.15906227672E+04  0.17234961722E+03 0.  0.
        -24    2    3    3    0    0 -0.10302661798E+03  0.30279877127E+01 -0.15374994849E+04  0.15430126582E+04  0.79748006072E+02 0.  0.
          6    2    1    2  501    0  0.80626714065E+02 -0.10552641617E+01 -0.90994137718E+03  0.92980535312E+03  0.17332889023E+03 0.  0.
         24    2    5    5    0    0  0.29899018057E+02  0.43259852095E+02 -0.75682363106E+03  0.76246061060E+03  0.76149905520E+02 0.  0.
          5    1    5    5  501    0  0.50727696009E+02 -0.44315116257E+02 -0.15311774612E+03  0.16734474252E+03  0.47000000000E+01 0. -1.
        -11    1    6    6    0    0  0.44671803540E+02  0.55808649186E+02 -0.52794769779E+03  0.53276537703E+03  0.00000000000E+00 0.  1.
         12    1    6    6    0    0 -0.14772785483E+02 -0.12548797090E+02 -0.22887593326E+03  0.22969523357E+03  0.00000000000E+00 0. -1.
         -5    1    3    3    0  503  0.22399903915E+02 -0.19727235511E+01 -0.41701140836E+02  0.47610109017E+02  0.47000000000E+01 0.  1.
         11    1    4    4    0    0 -0.39153842387E+02  0.34009247908E+02 -0.40774227428E+03  0.41102726740E+03  0.00000000000E+00 0. -1.
        -12    1    4    4    0    0 -0.63872775594E+02 -0.30981260196E+02 -0.11297572106E+04  0.11319853908E+04  0.00000000000E+00 0.  1.
</event>
<event>
12    1  0.8684423E-002  0.1897871E+03  0.7818608E-02  0.1158789E+00
         21   -1    0    0  501  502  0.00000000000E+00  0.00000000000E+00  0.36103395756E+03  0.36103395756E+03  0.00000000000E+00 0. -1.
         21   -1    0    0  502  503 -0.00000000000E+00 -0.00000000000E+00 -0.14474746589E+03  0.14474746589E+03  0.00000000000E+00 0. -1.
         -6    2    1    2    0  503  0.72160852208E+02  0.32051279275E+02 -0.33205341942E+02  0.19267004781E+03  0.17258238466E+03 0.  0.
        -24    2    3    3    0    0  0.14947076580E+02 -0.44422471390E+01  0.42292850161E+02  0.91046917555E+02  0.79105672133E+02 0.  0.
          6    2    1    2  501    0 -0.72160852208E+02 -0.32051279275E+02  0.24949183361E+03  0.31311137564E+03  0.17192465042E+03 0.  0.
         24    2    5    5    0    0 -0.74403522493E+02 -0.40698583391E+02  0.64333003584E+02  0.12767759292E+03  0.70502294528E+02 0.  0.
          5    1    5    5  501    0  0.22426702847E+01  0.86473041161E+01  0.18515883003E+03  0.18543378272E+03  0.47000000000E+01 0. -1.
        -13    1    6    6    0    0 -0.20915183505E+02 -0.11313294531E+02 -0.14599953931E+02  0.27903300683E+02  0.00000000000E+00 0.  1.
         14    1    6    6    0    0 -0.53488338988E+02 -0.29385288860E+02  0.78932957515E+02  0.99774292235E+02  0.00000000000E+00 0. -1.
         -5    1    3    3    0  503  0.57213775628E+02  0.36493526414E+02 -0.75498192103E+02  0.10162313025E+03  0.47000000000E+01 0.  1.
         13    1    4    4    0    0  0.18600651076E+02  0.35485249990E+02  0.16236828614E+02  0.43229871510E+02  0.00000000000E+00 0. -1.
        -14    1    4    4    0    0 -0.36535744954E+01 -0.39927497129E+02  0.26056021547E+02  0.47817046045E+02  0.00000000000E+00 0.  1.
</event>
<event>
12    1  0.8684423E-002  0.2329138E+03  0.7818608E-02  0.1126857E+00
         21   -1    0    0  503  502  0.00000000000E+00  0.00000000000E+00  0.18809985171E+03  0.18809985171E+03  0.00000000000E+00 0. -1.
         21   -1    0    0  501  503 -0.00000000000E+00 -0.00000000000E+00 -0.27708504047E+03  0.27708504047E+03  0.00000000000E+00 0.  1.
          6    2    1    2  501    0 -0.10582720136E+03  0.78071249277E+02 -0.14980558037E+02  0.22079684302E+03  0.17672665973E+03 0.  0.
         24    2    3    3    0    0 -0.56019118537E+02  0.52334766868E+02 -0.78503835377E+02  0.13594103353E+03  0.80249878275E+02 0.  0.
         -6    2    1    2    0  502  0.10582720136E+03 -0.78071249277E+02 -0.74004630719E+02  0.24438804915E+03  0.19223505583E+03 0.  0.
        -24    2    5    5    0    0  0.92263652217E+02 -0.10573079871E+03 -0.11191786210E+03  0.19531133722E+03  0.77002125121E+02 0.  0.
          5    1    3    3  501    0 -0.49808082823E+02  0.25736482409E+02  0.63523277340E+02  0.84855809496E+02  0.47000000000E+01 0. -1.
        -11    1    4    4    0    0  0.16001040324E+01  0.19762821390E+02 -0.65568090173E+02  0.68500393364E+02  0.00000000000E+00 0.  1.
         12    1    4    4    0    0 -0.57619222569E+02  0.32571945478E+02 -0.12935745204E+02  0.67440640164E+02  0.00000000000E+00 0. -1.
         -5    1    5    5    0  502  0.13563549143E+02  0.27659549433E+02  0.37913231382E+02  0.49076711932E+02  0.47000000000E+01 0.  1.
         13    1    6    6    0    0  0.10336262639E+02 -0.40477397913E+02  0.34288971789E+00  0.41777693097E+02  0.00000000000E+00 0. -1.
        -14    1    6    6    0    0  0.81927389578E+02 -0.65253400796E+02 -0.11226075182E+03  0.15353364412E+03  0.00000000000E+00 0.  1.
</event>
<event>
12    1  0.8684423E-002  0.1842833E+03  0.7818608E-02  0.1164175E+00
         21   -1    0    0  501  502  0.00000000000E+00  0.00000000000E+00  0.38787049041E+03  0.38787049041E+03  0.00000000000E+00 0. -1.
         21   -1    0    0  502  503 -0.00000000000E+00 -0.00000000000E+00 -0.91659505419E+02  0.91659505419E+02  0.00000000000E+00 0. -1.
         -6    2    1    2    0  503 -0.41298057620E+01  0.60165798252E+02  0.20493083531E+03  0.27560297346E+03  0.17413607651E+03 0.  0.
        -24    2    3    3    0    0  0.79967900219E+01  0.95788302983E+02  0.88295734845E+02  0.15295773780E+03  0.79753276555E+02 0.  0.
          6    2    1    2  501    0  0.41298057620E+01 -0.60165798252E+02  0.91280149679E+02  0.20392702237E+03  0.17209644434E+03 0.  0.
         24    2    5    5    0    0 -0.38922943100E+02 -0.91001400795E+02  0.74028984937E+02  0.14803367524E+03  0.81470411487E+02 0.  0.
          5    1    5    5  501    0  0.43052748862E+02  0.30835602544E+02  0.17251164741E+02  0.55893347133E+02  0.47000000000E+01 0. -1.
        -11    1    6    6    0    0 -0.15412035194E+02  0.77374846061E+01 -0.65402483803E+01  0.18443815921E+02  0.00000000000E+00 0.  1.
         12    1    6    6    0    0 -0.23510907906E+02 -0.98738885402E+02  0.80569233318E+02  0.12958985932E+03  0.00000000000E+00 0. -1.
         -5    1    3    3    0  503 -0.12126595784E+02 -0.35622504732E+02  0.11663510047E+03  0.12264523566E+03  0.47000000000E+01 0.  1.
         11    1    4    4    0    0 -0.35788998380E+02  0.49010897282E+02  0.46569183874E+02  0.76495812593E+02  0.00000000000E+00 0. -1.
        -12    1    4    4    0    0  0.43785788402E+02  0.46777405701E+02  0.41726550971E+02  0.76461925205E+02  0.00000000000E+00 0.  1.
</event>
<event>
12    1  0.8684423E-002  0.1791426E+03  0.7818608E-02  0.1168998E+00
         21   -1    0    0  501  502  0.00000000000E+00  0.00000000000E+00  0.62132303671E+03  0.62132303671E+03  0.00000000000E+00 0. -1.
         21   -1    0    0  502  503 -0.00000000000E+00 -0.00000000000E+00 -0.99058710854E+02  0.99058710854E+02  0.00000000000E+00 0. -1.
         -6    2    1    2    0  503  0.11955459231E+02 -0.49746747460E+02  0.10273969906E+02  0.17795552648E+03  0.17013213412E+03 0.  0.
        -24    2    3    3    0    0 -0.81487475599E+01  0.72696528786E+01 -0.52400529903E+02  0.90747545400E+02  0.73280635384E+02 0.  0.
          6    2    1    2  501    0 -0.11955459231E+02  0.49746747460E+02  0.51199035595E+03  0.54242622108E+03  0.17168112547E+03 0.  0.
         24    2    5    5    0    0  0.89056788963E+01 -0.34372253908E+02  0.19028036519E+03  0.20921367386E+03  0.79391315613E+02 0.  0.
          5    1    5    5  501    0 -0.20861138127E+02  0.84119001368E+02  0.32170999076E+03  0.33321254723E+03  0.47000000000E+01 0. -1.
        -11    1    6    6    0    0 -0.14042334228E+02 -0.33245593015E+02  0.28979332624E+02  0.46284536563E+02  0.00000000000E+00 0.  1.
         12    1    6    6    0    0  0.22948013124E+02 -0.11266608929E+01  0.16130103257E+03  0.16292913729E+03  0.00000000000E+00 0. -1.
         -5    1    3    3    0  503  0.20104206791E+02 -0.57016400338E+02  0.62674499809E+02  0.87207981083E+02  0.47000000000E+01 0.  1.
         11    1    4    4    0    0 -0.10521111984E+02 -0.30673439788E+02 -0.38337398542E+02  0.50212646144E+02  0.00000000000E+00 0. -1.
        -12    1    4    4    0    0  0.23723644237E+01  0.37943092666E+02 -0.14063131361E+02  0.40534899257E+02  0.00000000000E+00 0.  1.
</event>
<event>
12    1  0.8684423E-002  0.1930762E+03  0.7818608E-02  0.1156083E+00
         21   -1    0    0  501  502  0.00000000000E+00  0.00000000000E+00  0.18578545292E+03  0.18578545292E+03  0.00000000000E+00 0. -1.
         21   -1    0    0  502  503 -0.00000000000E+00 -0.00000000000E+00 -0.28754481884E+03  0.28754481884E+03  0.00000000000E+00 0. -1.
         -6    2    1    2    0  503 -0.72945313787E+02 -0.39578950000E+02 -0.18210450866E+03  0.26420407121E+03  0.17249413638E+03 0.  0.
        -24    2    3    3    0    0 -0.45089812910E+02  0.10447597059E+01 -0.19287425364E+03  0.21356523111E+03  0.79846399225E+02 0.  0.
          6    2    1    2  501    0  0.72945313787E+02  0.39578950000E+02  0.80345142731E+02  0.20912620055E+03  0.17432989907E+03 0.  0.
         24    2    5    5    0    0  0.33865592356E+02 -0.89334218439E+01 -0.23737838334E+02  0.87734142343E+02  0.76857728254E+02 0.  0.
          5    1    5    5  501    0  0.39079721430E+02  0.48512371844E+02  0.10408298107E+03  0.12139205821E+03  0.47000000000E+01 0. -1.
        -11    1    6    6    0    0  0.15723684806E+02 -0.30126566106E+02  0.17283312462E+02  0.38125544440E+02  0.00000000000E+00 0.  1.
         12    1    6    6    0    0  0.18141907550E+02  0.21193144262E+02 -0.41021150796E+02  0.49608597903E+02  0.00000000000E+00 0. -1.
         -5    1    3    3    0  503 -0.27855500877E+02 -0.40623709706E+02  0.10769744989E+02  0.50638840099E+02  0.47000000000E+01 0.  1.
         13    1    4    4    0    0 -0.27937446275E+02 -0.37598097238E+02 -0.12623976705E+03  0.13464990384E+03  0.00000000000E+00 0. -1.
        -14    1    4    4    0    0 -0.17152366635E+02  0.38642856944E+02 -0.66634486598E+02  0.78915327270E+02  0.00000000000E+00 0.  1.
</event>
<event>
12    1  0.8684423E-002  0.2098703E+03  0.7818608E-02  0.1142084E+00
         21   -1    0    0  503  502  0.00000000000E+00  0.00000000000E+00  0.12309842664E+02  0.12309842664E+02  0.00000000000E+00 0.  1.
         21   -1    0    0  501  503 -0.00000000000E+00 -0.00000000000E+00 -0.36927006157E+04  0.36927006157E+04  0.00000000000E+00 0.  1.
          6    2    1    2  501    0 -0.21318700282E+02  0.11380396275E+03 -0.22224771382E+04  0.22323642553E+04  0.17504202177E+03 0.  0.
         24    2    3    3    0    0 -0.68676227507E+02  0.28071818202E+02 -0.13680905875E+04  0.13723693692E+04  0.78875717104E+02 0.  0.
         -6    2    1    2    0  502  0.21318700282E+02 -0.11380396275E+03 -0.14579136348E+04  0.14726462031E+04  0.17253650042E+03 0.  0.
        -24    2    5    5    0    0 -0.39663674496E+02 -0.16056869206E+02 -0.55973762468E+03  0.56709908697E+03  0.80399849735E+02 0.  0.
          5    1    3    3  501    0  0.47357527226E+02  0.85732144551E+02 -0.85438655071E+03  0.85999488605E+03  0.47000000000E+01 0. -1.
        -13    1    4    4    0    0 -0.77727837395E+02  0.44376252273E+02 -0.11052854752E+04  0.11089034449E+04  0.00000000000E+00 0.  1.
         14    1    4    4    0    0  0.90516098872E+01 -0.16304434072E+02 -0.26280511231E+03  0.26346592430E+03  0.00000000000E+00 0. -1.
         -5    1    5    5    0  502  0.60982374778E+02 -0.97747093547E+02 -0.89817601013E+03  0.90554711611E+03  0.47000000000E+01 0.  1.
         11    1    6    6    0    0 -0.30037586021E+02  0.18248351245E+02 -0.45717081170E+03  0.45851980325E+03  0.00000000000E+00 0. -1.
        -12    1    6    6    0    0 -0.96260884753E+01 -0.34305220451E+02 -0.10256681297E+03  0.10857928372E+03  0.00000000000E+00 0.  1.
</event>
<event>
12    1  0.8684423E-002  0.2344268E+03  0.7818608E-02  0.1123671E+00
         21   -1    0    0  501  502  0.00000000000E+00  0.00000000000E+00  0.64844099064E+03  0.64844099064E+03  0.00000000000E+00 0.  1.
         21   -1    0    0  502  503 -0.00000000000E+00 -0.00000000000E+00 -0.23482396827E+03  0.23482396827E+03  0.00000000000E+00 0. -1.
         -6    2    1    2    0  503  0.12310391638E+03  0.10248400977E+03 -0.14661348625E+03  0.27596426527E+03  0.17030330258E+03 0.  0.
        -24    2    3    3    0    0  0.39145863779E+02  0.10958410972E+03 -0.57418742265E+02  0.15317518445E+03  0.81391949320E+02 0.  0.
          6    2    1    2  501    0 -0.12310391638E+03 -0.10248400977E+03  0.56023050862E+03  0.60730069363E+03  0.17116764650E+03 0.  0.
         24    2    5    5    0    0  0.58082427182E+01 -0.55977540204E+02  0.21502191535E+03  0.23585452075E+03  0.78903169706E+02 0.  0.
          5    1    5    5  501    0 -0.12891215910E+03 -0.46506469571E+02  0.34520859327E+03  0.37144617288E+03  0.47000000000E+01 0. -1.
        -13    1    6    6    0    0 -0.30639977075E+02 -0.47754487153E+02  0.10073813404E+03  0.11561777929E+03  0.00000000000E+00 0.  1.
         14    1    6    6    0    0  0.36448219793E+02 -0.82230530516E+01  0.11428378131E+03  0.12023674147E+03  0.00000000000E+00 0. -1.
         -5    1    3    3    0  503  0.83958052601E+02 -0.71000999417E+01 -0.89194743984E+02  0.12278908083E+03  0.47000000000E+01 0.  1.
         11    1    4    4    0    0  0.58310793898E+02  0.43167848544E+02 -0.24189365548E+02  0.76477037328E+02  0.00000000000E+00 0. -1.
        -12    1    4    4    0    0 -0.19164930119E+02  0.66416261172E+02 -0.33229376717E+02  0.76698147120E+02  0.00000000000E+00 0.  1.
</event>
<event>
12    1  0.8684423E-002  0.2257140E+03  0.7818608E-02  0.1130032E+00
         21   -1    0    0  501  502  0.00000000000E+00  0.00000000000E+00  0.61632139665E+03  0.61632139665E+03  0.00000000000E+00 0.  1.
         21   -1    0    0  502  503 -0.00000000000E+00 -0.00000000000E+00 -0.11203319869E+03  0.11203319869E+03  0.00000000000E+00 0. -1.
         -6    2    1    2    0  503  0.14418491349E+03 -0.17885874332E+01  0.62761121648E+02  0.23247864256E+03  0.17121586532E+03 0.  0.
        -24    2    3    3    0    0  0.69084366233E+02 -0.63310183319E+02  0.31462647834E+02  0.13036750986E+03  0.84999767352E+02 0.  0.
          6    2    1    2  501    0 -0.14418491349E+03  0.17885874332E+01  0.44152707631E+03  0.49587595277E+03  0.17364997292E+03 0.  0.
         24    2    5    5    0    0 -0.10948971650E+03 -0.44443731338E+01  0.15657369244E+03  0.20871201445E+03  0.83890603393E+02 0.  0.
          5    1    5    5  501    0 -0.34695196982E+02  0.62329605670E+01  0.28495338387E+03  0.28716393832E+03  0.47000000000E+01 0. -1.
        -13    1    6    6    0    0 -0.36578157631E+02  0.37211034472E+02  0.77085206109E+02  0.93084648053E+02  0.00000000000E+00 0.  1.
         14    1    6    6    0    0 -0.72911558874E+02 -0.41655407606E+02  0.79488486327E+02  0.11562736639E+03  0.00000000000E+00 0. -1.
         -5    1    3    3    0  503  0.75100547253E+02  0.61521595886E+02  0.31298473815E+02  0.10211113270E+03  0.47000000000E+01 0.  1.
         11    1    4    4    0    0  0.26463780438E+02 -0.28814585117E+02 -0.29034458455E+02  0.48719726685E+02  0.00000000000E+00 0. -1.
        -12    1    4    4    0    0  0.42620585796E+02 -0.34495598202E+02  0.60497106288E+02  0.81647783179E+02  0.00000000000E+00 0.  1.
</event>
<event>
12    1  0.8684423E-002  0.2292699E+03  0.7818608E-02  0.1127547E+00
         21   -1    0    0  501  502  0.00000000000E+00  0.00000000000E+00  0.25992930548E+03  0.25992930548E+03  0.00000000000E+00 0.  1.
         21   -1    0    0  502  503 -0.00000000000E+00 -0.00000000000E+00 -0.21027327726E+03  0.21027327726E+03  0.00000000000E+00 0.  1.
         -6    2    1    2    0  503  0.13321700071E+03  0.69714939404E+02 -0.26300195049E+02  0.23077340552E+03  0.17308299275E+03 0.  0.
        -24    2    3    3    0    0  0.26861817737E+02  0.34543998677E+01 -0.63412704839E+02  0.10000141911E+03  0.72426670214E+02 0.  0.
          6    2    1    2  501    0 -0.13321700071E+03 -0.69714939404E+02  0.75956223261E+02  0.23942917723E+03  0.17014711576E+03 0.  0.
         24    2    5    5    0    0 -0.21305221943E+02 -0.48555613298E+02 -0.56235040741E+01  0.99253197754E+02  0.83713878190E+02 0.  0.
          5    1    5    5  501    0 -0.11191177877E+03 -0.21159326107E+02  0.81579727336E+02  0.14017597947E+03  0.47000000000E+01 0. -1.
        -11    1    6    6    0    0 -0.32505829960E+02  0.12173709594E+02 -0.12990258314E+02  0.37061772728E+02  0.00000000000E+00 0.  1.
         12    1    6    6    0    0  0.11200608017E+02 -0.60729322891E+02  0.73667542403E+01  0.62191425026E+02  0.00000000000E+00 0. -1.
         -5    1    3    3    0  503  0.10635518298E+03  0.66260539537E+02  0.37112509790E+02  0.13077198641E+03  0.47000000000E+01 0.  1.
         11    1    4    4    0    0 -0.63983168449E+01  0.28095877621E+02 -0.63508521297E+01  0.29506780924E+02  0.00000000000E+00 0. -1.
        -12    1    4    4    0    0  0.33260134582E+02 -0.24641477753E+02 -0.57061852709E+02  0.70494638185E+02  0.00000000000E+00 0.  1.
</event>
<event>
12    1  0.8684423E-002  0.1911667E+03  0.7818608E-02  0.1157513E+00
         21   -1    0    0  503  502  0.00000000000E+00  0.00000000000E+00  0.22623460483E+03  0.22623460483E+03  0.00000000000E+00 0.  1.
         21   -1    0    0  501  503 -0.00000000000E+00 -0.00000000000E+00 -0.27681183273E+03  0.27681183273E+03  0.00000000000E+00 0. -1.
          6    2    1    2  501    0  0.92219540980E+01 -0.81954564668E+02 -0.18788606817E+03  0.26804082583E+03  0.17246192215E+03 0.  0.
         24    2    3    3    0    0 -0.31042191752E+01 -0.25659272436E+02 -0.19260715138E+03  0.21002812807E+03  0.79663450700E+02 0.  0.
         -6    2    1    2    0  502 -0.92219540980E+01  0.81954564668E+02  0.13730884028E+03  0.23500561173E+03  0.17196605717E+03 0.  0.
        -24    2    5    5    0    0  0.14971823696E+02  0.11908580761E+03  0.98456303904E+02  0.17588135555E+03  0.82674194119E+02 0.  0.
          5    1    3    3  501    0  0.12326173273E+02 -0.56295292232E+02  0.47210832092E+01  0.58012697762E+02  0.47000000000E+01 0. -1.
        -13    1    4    4    0    0 -0.10653236659E+02  0.69424121479E+00  0.40880727899E+01  0.11431787319E+02  0.00000000000E+00 0.  1.
         14    1    4    4    0    0  0.75490174834E+01 -0.26353513651E+02 -0.19669522417E+03  0.19859634075E+03  0.00000000000E+00 0. -1.
         -5    1    5    5    0  502 -0.24193777794E+02 -0.37131242939E+02  0.38852536377E+02  0.59124256182E+02  0.47000000000E+01 0.  1.
         13    1    6    6    0    0 -0.41752097760E+01 -0.39838945107E+01 -0.94607370643E+01  0.11081937464E+02  0.00000000000E+00 0. -1.
        -14    1    6    6    0    0  0.19147033472E+02  0.12306970212E+03  0.10791704097E+03  0.16479941809E+03  0.00000000000E+00 0.  1.
</event>
<event>
12    1  0.8684423E-002  0.1791165E+03  0.7818608E-02  0.1168780E+00
         21   -1    0    0  501  502  0.00000000000E+00  0.00000000000E+00  0.25621051690E+03  0.25621051690E+03  0.00000000000E+00 0.  1.
         21   -1    0    0  502  503 -0.00000000000E+00 -0.00000000000E+00 -0.15071994137E+03  0.15071994137E+03  0.00000000000E+00 0.  1.
         -6    2    1    2    0  503  0.27325964317E+02 -0.41633417954E+02 -0.31441967952E+02  0.18185522153E+03  0.17205427758E+03 0.  0.
        -24    2    3    3    0    0  0.69462790621E+02 -0.27865664655E+02  0.21947892369E+02  0.11230214578E+03  0.80799055805E+02 0.  0.
          6    2    1    2  501    0 -0.27325964317E+02  0.41633417954E+02  0.13693254348E+03  0.22507523674E+03  0.17154676014E+03 0.  0.
         24    2    5    5    0    0  0.29380508940E+02  0.18680758299E+02  0.17296304034E+02  0.90623131946E+02  0.81860887329E+02 0.  0.
          5    1    5    5  501    0 -0.56706473256E+02  0.22952659654E+02  0.11963623945E+03  0.13445210479E+03  0.47000000000E+01 0. -1.
        -13    1    6    6    0    0 -0.22543046768E+02  0.16875795783E+02 -0.12412199892E+02  0.30774082392E+02  0.00000000000E+00 0.  1.
         14    1    6    6    0    0  0.51923555707E+02  0.18049625161E+01  0.29708503926E+02  0.59849049554E+02  0.00000000000E+00 0. -1.
         -5    1    3    3    0  503 -0.42136826304E+02 -0.13767753299E+02 -0.53389860321E+02  0.69553075755E+02  0.47000000000E+01 0.  1.
         13    1    4    4    0    0  0.62142383391E+01  0.25408259579E+02  0.12743605784E+02  0.29096321097E+02  0.00000000000E+00 0. -1.
        -14    1    4    4    0    0  0.63248552282E+02 -0.53273924234E+02  0.92042865845E+01  0.83205824679E+02  0.00000000000E+00 0.  1.
</event>
<event>
12    1  0.8684423E-002  0.2040051E+03  0.7818608E-02  0.1146924E+00
         21   -1    0    0  501  502  0.00000000000E+00  0.00000000000E+00  0.21817774792E+03  0.21817774792E+03  0.00000000000E+00 0. -1.
         21   -1    0    0  502  503 -0.00000000000E+00 -0.00000000000E+00 -0.21877207942E+03  0.21877207942E+03  0.00000000000E+00 0.  1.
         -6    2    1    2    0  503 -0.74799870126E+02  0.82650614881E+02 -0.81691727761E+02  0.21975353820E+03  0.17085647326E+03 0.  0.
        -24    2    3    3    0    0 -0.11204791539E+03  0.67202748871E+02 -0.90803563496E+02  0.17814621924E+03  0.80123925815E+02 0.  0.
          6    2    1    2  501    0  0.74799870126E+02 -0.82650614881E+02  0.81097396258E+02  0.21719628914E+03  0.16784306844E+03 0.  0.
         24    2    5    5    0    0  0.10106241754E+03 -0.48445370976E+02  0.12890123461E+02  0.13636286678E+03  0.76603589649E+02 0.  0.
          5    1    5    5  501    0 -0.26262547413E+02 -0.34205243905E+02  0.68207272797E+02  0.80833422355E+02  0.47000000000E+01 0. -1.
        -11    1    6    6    0    0 -0.10305632754E+01 -0.11429142417E+02 -0.19858754856E+02  0.22935943440E+02  0.00000000000E+00 0.  1.
         12    1    6    6    0    0  0.10209298081E+03 -0.37016228559E+02  0.32748878318E+02  0.11342692334E+03  0.00000000000E+00 0. -1.
         -5    1    3    3    0  503  0.37248045265E+02  0.15447866010E+02  0.91118357350E+01  0.41607318957E+02  0.47000000000E+01 0.  1.
         13    1    4    4    0    0 -0.92634448826E+01  0.46756019590E+02 -0.20112446308E+02  0.51734391612E+02  0.00000000000E+00 0. -1.
        -14    1    4    4    0    0 -0.10278447051E+03  0.20446729281E+02 -0.70691117188E+02  0.12641182763E+03  0.00000000000E+00 0.  1.
</event>
<event>
12    1  0.8684423E-002  0.1978142E+03  0.7818608E-02  0.1151946E+00
         21   -1    0    0  501  502  0.00000000000E+00  0.00000000000E+00  0.10136044257E+04  0.10136044257E+04  0.00000000000E+00 0.  1.
         21   -1    0    0  502  503 -0.00000000000E+00 -0.00000000000E+00 -0.38394523057E+02  0.38394523057E+02  0.00000000000E+00 0. -1.
         -6    2    1    2    0  503  0.95816354327E+02  0.20518707150E+02  0.46195301504E+03  0.50252467862E+03  0.17183909165E+03 0.  0.
        -24    2    3    3    0    0 -0.68702905460E+01  0.41241967597E+02  0.23523178991E+03  0.25272755196E+03  0.82396114936E+02 0.  0.
          6    2    1    2  501    0 -0.95816354327E+02 -0.20518707150E+02  0.51325688762E+03  0.54947427015E+03  0.16996337774E+03 0.  0.
         24    2    5    5    0    0 -0.99347443283E+02  0.15521740961E+01  0.20660863068E+03  0.24197656956E+03  0.77415826624E+02 0.  0.
          5    1    5    5  501    0  0.35310889556E+01 -0.22070881246E+02  0.30664825693E+03  0.30749770059E+03  0.47000000000E+01 0. -1.
        -13    1    6    6    0    0 -0.41733283575E+02 -0.14629894980E+02  0.16035585281E+03  0.16634211829E+03  0.00000000000E+00 0.  1.
         14    1    6    6    0    0 -0.57614159708E+02  0.16182069076E+02  0.46252777868E+02  0.75634451270E+02  0.00000000000E+00 0. -1.
         -5    1    3    3    0  503  0.10268664487E+03 -0.20723260447E+02  0.22672122514E+03  0.24979712666E+03  0.47000000000E+01 0.  1.
         11    1    4    4    0    0  0.32002484690E+02  0.39429062196E+02  0.10220660705E+03  0.11412712429E+03  0.00000000000E+00 0. -1.
        -12    1    4    4    0    0 -0.38872775236E+02  0.18129054013E+01  0.13302518285E+03  0.13860042768E+03  0.00000000000E+00 0.  1.
</event>
<event>
12    1  0.8684423E-002  0.2178287E+03  0.7818608E-02  0.1135700E+00
         21   -1    0    0  503  502  0.00000000000E+00  0.00000000000E+00  0.26200148092E+03  0.26200148092E+03  0.00000000000E+00 0. -1.
         21   -1    0    0  501  503 -0.00000000000E+00 -0.00000000000E+00 -0.22648546056E+03  0.22648546056E+03  0.00000000000E+00 0.  1.
          6    2    1    2  501    0  0.13307121753E+03 -0.11454860715E+02 -0.92592223114E+02  0.23577945151E+03  0.17081998480E+03 0.  0.
         24    2    3    3    0    0  0.16054720722E+03 -0.20024807439E+02 -0.99260768141E+02  0.20586401253E+03  0.79692489636E+02 0.  0.
         -6    2    1    2    0  502 -0.13307121753E+03  0.11454860715E+02  0.12810824347E+03  0.25270748997E+03  0.17207611883E+03 0.  0.
        -24    2    5    5    0    0 -0.87360407941E+02  0.37561466507E+02  0.15013241784E+03  0.19545203403E+03  0.81357544688E+02 0.  0.
          5    1    3    3  501    0 -0.27475989694E+02  0.85699467244E+01  0.66685450277E+01  0.29915438979E+02  0.47000000000E+01 0. -1.
        -13    1    4    4    0    0  0.21665179877E+02  0.10796898161E+02 -0.49587101312E+02  0.55180011286E+02  0.00000000000E+00 0.  1.
         14    1    4    4    0    0  0.13888202734E+03 -0.30821705600E+02 -0.49673666829E+02  0.15068400125E+03  0.00000000000E+00 0. -1.
         -5    1    5    5    0  502 -0.45710809586E+02 -0.26106605792E+02 -0.22024174364E+02  0.57255455944E+02  0.47000000000E+01 0.  1.
         11    1    6    6    0    0 -0.75337135846E+02  0.53452049876E+02  0.78892368426E+02  0.12147761715E+03  0.00000000000E+00 0. -1.
        -12    1    6    6    0    0 -0.12023272096E+02 -0.15890583368E+02  0.71240049410E+02  0.73974416873E+02  0.00000000000E+00 0.  1.
</event>
<event>
12    1  0.8684423E-002  0.2361542E+03  0.7818608E-02  0.1122877E+00
         21   -1    0    0  501  502  0.00000000000E+00  0.00000000000E+00  0.52768962334E+02  0.52768962334E+02  0.00000000000E+00 0. -1.
         21   -1    0    0  502  503 -0.00000000000E+00 -0.00000000000E+00 -0.11273498707E+04  0.11273498707E+04  0.00000000000E+00 0. -1.
         -6    2    1    2    0  503 -0.14690354647E+03  0.64995806255E+02 -0.70084525356E+03  0.73956261606E+03  0.17310022194E+03 0.  0.
        -24    2    3    3    0    0 -0.17131770431E+03  0.50680330188E+02 -0.50866188963E+03  0.54524967431E+03  0.81498697519E+02 0.  0.
          6    2    1    2  501    0  0.14690354647E+03 -0.64995806255E+02 -0.37373565484E+03  0.44055621701E+03  0.16913407064E+03 0.  0.
         24    2    5    5    0    0  0.32300161312E+01 -0.23571176457E+02 -0.94409163965E+02  0.12369116406E+03  0.76291418015E+02 0.  0.
          5    1    5    5  501    0  0.14367353034E+03 -0.41424629798E+02 -0.27932649087E+03  0.31686505294E+03  0.47000000000E+01 0. -1.
        -11    1    6    6    0    0 -0.22168714710E+02 -0.42379644006E+02 -0.63375402191E+02  0.79397277918E+02  0.00000000000E+00 0.  1.
         12    1    6    6    0    0  0.25398730842E+02  0.18808467549E+02 -0.31033761774E+02  0.44293886144E+02  0.00000000000E+00 0. -1.
         -5    1    3    3    0  503  0.24414157839E+02  0.14315476067E+02 -0.19218336393E+03  0.19431294174E+03  0.47000000000E+01 0.  1.
         13    1    4    4    0    0 -0.96158192923E+02 -0.44199048321E+01 -0.18646204443E+03  0.20984286416E+03  0.00000000000E+00 0. -1.
        -14    1    4    4    0    0 -0.75159511389E+02  0.55100235020E+02 -0.32219984520E+03  0.33540681015E+03  0.00000000000E+00 0.  1.
</event>
<event>
12    1  0.8684423E-002  0.2222753E+03  0.7818608E-02  0.1132251E+00
         21   -1    0    0  501  502  0.00000000000E+00  0.00000000000E+00  0.50302986495E+03  0.50302986495E+03  0.00000000000E+00 0. -1.
         21   -1    0    0  502  503 -0.00000000000E+00 -0.00000000000E+00 -0.59891645350E+03  0.59891645350E+03  0.00000000000E+00 0. -1.
         -6    2    1    2    0  503  0.66535860739E+02 -0.12376194214E+03 -0.55178664746E+03  0.59487377620E+03  0.17222736777E+03 0.  0.
        -24    2    3    3    0    0  0.73700613428E+02 -0.12214271964E+03 -0.55970879781E+03  0.58309217916E+03  0.79824348871E+02 0.  0.
          6    2    1    2  501    0 -0.66535860739E+02  0.12376194214E+03  0.45590005890E+03  0.50707254226E+03  0.17185360141E+03 0.  0.
         24    2    5    5    0    0  0.21228879932E+02  0.40800630893E+02  0.27153561637E+03  0.28662398467E+03  0.79412598565E+02 0.  0.
          5    1    5    5  501    0 -0.87764740671E+02  0.82961311243E+02  0.18436444254E+03  0.22044855758E+03  0.47000000000E+01 0. -1.
        -13    1    6    6    0    0  0.24540065652E+02 -0.18069316999E+02  0.64175543998E+02  0.71043757547E+02  0.00000000000E+00 0.  1.
         14    1    6    6    0    0 -0.33111857197E+01  0.58869947891E+02  0.20736007237E+03  0.21558022713E+03  0.00000000000E+00 0. -1.
         -5    1    3    3    0  503 -0.71647526892E+01 -0.16192224926E+01  0.79221503500E+01  0.11781597037E+02  0.47000000000E+01 0.  1.
         11    1    4    4    0    0  0.86923293360E+01 -0.38730953611E+01 -0.17752122038E+03  0.17777609835E+03  0.00000000000E+00 0. -1.
        -12    1    4    4    0    0  0.65008284092E+02 -0.11826962428E+03 -0.38218757742E+03  0.40531608081E+03  0.00000000000E+00 0.  1.
</event>
<event>
12    1  0.8684423E-002  0.2212939E+03  0.7818608E-02  0.1133104E+00
         21   -1    0    0  501  502  0.00000000000E+00  0.00000000000E+00  0.19924098613E+03  0.19924098613E+03  0.00000000000E+00 0. -1.
         21   -1    0    0  502  503 -0.00000000000E+00 -0.00000000000E+00 -0.26405249225E+03  0.26405249225E+03  0.00000000000E+00 0. -1.
         -6    2    1    2    0  503  0.13117966752E+03 -0.46255394970E+02  0.30372736121E+02  0.22239713651E+03  0.17085173834E+03 0.  0.
        -24    2    3    3    0    0  0.16503851639E+03 -0.44135315145E+02  0.16944642154E+02  0.18560963737E+03  0.70556209155E+02 0.  0.
          6    2    1    2  501    0 -0.13117966752E+03  0.46255394970E+02 -0.95184242248E+02  0.24089634187E+03  0.17211432485E+03 0.  0.
         24    2    5    5    0    0 -0.14515286261E+02 -0.44579768161E+01 -0.78030533344E+02  0.11244882861E+03  0.79532432567E+02 0.  0.
          5    1    5    5  501    0 -0.11666438126E+03  0.50713371787E+02 -0.17153708904E+02  0.12844751326E+03  0.47000000000E+01 0. -1.
        -11    1    6    6    0    0  0.30596388476E+02  0.12097296299E+02 -0.32754827759E+02  0.46425879712E+02  0.00000000000E+00 0.  1.
         12    1    6    6    0    0 -0.45111674736E+02 -0.16555273115E+02 -0.45275705585E+02  0.66022948902E+02  0.00000000000E+00 0. -1.
         -5    1    3    3    0  503 -0.33858848872E+02 -0.21200798254E+01  0.13428093967E+02  0.36787499141E+02  0.47000000000E+01 0.  1.
         13    1    4    4    0    0  0.73075933601E+02  0.10219367435E+02  0.26398829692E+02  0.78367249228E+02  0.00000000000E+00 0. -1.
        -14    1    4    4    0    0  0.91962582791E+02 -0.54354682580E+02 -0.94541875381E+01  0.10724238814E+03  0.00000000000E+00 0.  1.
</event>
<event>
12    1  0.8684423E-002  0.1901844E+03  0.7818608E-02  0.1158518E+00
         21   -1    0    0  503  502  0.00000000000E+00  0.00000000000E+00  0.36002150969E+02  0.36002150969E+02  0.00000000000E+00 0. -1.
         21   -1    0    0  501  503 -0.00000000000E+00 -0.00000000000E+00 -0.11161297993E+04  0.11161297993E+04  0.00000000000E+00 0. -1.
          6    2    1    2  501    0 -0.27793881312E+02  0.73404009595E+02 -0.72757330093E+03  0.75201930312E+03  0.17323243224E+03 0.  0.
         24    2    3    3    0    0  0.11298532102E+02  0.49485448163E+01 -0.16808787072E+03  0.18698797297E+03  0.80986571891E+02 0.  0.
         -6    2    1    2    0  502  0.27793881312E+02 -0.73404009595E+02 -0.35255434743E+03  0.40011264718E+03  0.17214794241E+03 0.  0.
        -24    2    5    5    0    0  0.63340417829E+02 -0.62670993062E+02 -0.33918393251E+03  0.36036831554E+03  0.82945288401E+02 0.  0.
          5    1    3    3  501    0 -0.39092413414E+02  0.68455464779E+02 -0.55948543021E+03  0.56503133016E+03  0.47000000000E+01 0. -1.
        -11    1    4    4    0    0  0.19498930205E+02  0.38516502293E+02 -0.63061131794E+02  0.76422742500E+02  0.00000000000E+00 0.  1.
         12    1    4    4    0    0 -0.82003981033E+01 -0.33567957477E+02 -0.10502673893E+03  0.11056523047E+03  0.00000000000E+00 0. -1.
         -5    1    5    5    0  502 -0.35546536516E+02 -0.10733016533E+02 -0.13370414919E+02  0.39744331638E+02  0.47000000000E+01 0.  1.
         13    1    6    6    0    0  0.79739077029E+02 -0.58964683282E+02 -0.23860730733E+03  0.25839621010E+03  0.00000000000E+00 0. -1.
        -14    1    6    6    0    0 -0.16398659200E+02 -0.37063097800E+01 -0.10057662518E+03  0.10197210544E+03  0.00000000000E+00 0.  1.
</event>
<event>
12    1  0.8684423E-002  0.1757626E+03  0.7818608E-02  0.1172790E+00
         21   -1    0    0  503  502  0.00000000000E+00  0.00000000000E+00  0.61559421450E+02  0.61559421450E+02  0.00000000000E+00 0.  1.
         21   -1    0    0  501  503 -0.00000000000E+00 -0.00000000000E+00 -0.63412760543E+03  0.63412760543E+03  0.00000000000E+00 0.  1.
          6    2    1    2  501    0  0.20104292778E+02 -0.21565444667E+02 -0.44854634031E+03  0.48057328212E+03  0.16996355225E+03 0.  0.
         24    2    3    3    0    0  0.33778346268E+02 -0.72502451341E+02 -0.23825719070E+03  0.26372039459E+03  0.79902287043E+02 0.  0.
         -6    2    1    2    0  502 -0.20104292778E+02  0.21565444667E+02 -0.12402184367E+03  0.21511374476E+03  0.17327219767E+03 0.  0.
        -24    2    5    5    0    0 -0.82542293105E+02  0.15124899723E+02 -0.64844280183E+02  0.12871896179E+03  0.72950652562E+02 0.  0.
          5    1    3    3  501    0 -0.13674053490E+02  0.50937006673E+02 -0.21028914961E+03  0.21685288753E+03  0.47000000000E+01 0. -1.
        -11    1    4    4    0    0 -0.59111562592E+01 -0.52103570887E+02 -0.19364891657E+03  0.20062309626E+03  0.00000000000E+00 0.  1.
         12    1    4    4    0    0  0.39689502528E+02 -0.20398880454E+02 -0.44608274135E+02  0.63097298326E+02  0.00000000000E+00 0. -1.
         -5    1    5    5    0  502  0.62438000327E+02  0.64405449447E+01 -0.59177563489E+02  0.86394782970E+02  0.47000000000E+01 0.  1.
         13    1    6    6    0    0 -0.52466203049E+02 -0.42907520576E+01 -0.74887506891E+02  0.91538252681E+02  0.00000000000E+00 0. -1.
        -14    1    6    6    0    0 -0.30076090056E+02  0.19415651780E+02  0.10043226708E+02  0.37180709109E+02  0.00000000000E+00 0.  1.
</event>
<event>
12    1  0.8684423E-002  0.2507876E+03  0.7818608E-02  0.1114384E+00
         21   -1    0    0  503  502  0.00000000000E+00  0.00000000000E+00  0.66549939109E+02  0.66549939109E+02  0.00000000000E+00 0. -1.
         21   -1    0    0  501  503 -0.00000000000E+00 -0.00000000000E+00 -0.10802197991E+04  0.10802197991E+04  0.00000000000E+00 0.  1.
          6    2    1    2  501    0 -0.32482657389E+02 -0.16541736967E+03 -0.28674759782E+03  0.38094435266E+03  0.18567817790E+03 0.  0.
         24    2    3    3    0    0 -0.55969659623E+02 -0.20390742696E+02 -0.15150359724E+03  0.18120103864E+03  0.79574438352E+02 0.  0.
         -6    2    1    2    0  502  0.32482657389E+02  0.16541736967E+03 -0.72692226218E+03  0.76582538556E+03  0.17220486838E+03 0.  0.
        -24    2    5    5    0    0 -0.24014063302E+02  0.19729953057E+02 -0.24697724836E+03  0.26106206568E+03  0.78674612447E+02 0.  0.
          5    1    3    3  501    0  0.23487002234E+02 -0.14502662697E+03 -0.13524400058E+03  0.19974331402E+03  0.47000000000E+01 0. -1.
        -13    1    4    4    0    0 -0.45777714076E+02  0.10544704640E+02 -0.30783505096E+02  0.56164170856E+02  0.00000000000E+00 0.  1.
         14    1    4    4    0    0 -0.10191945547E+02 -0.30935447336E+02 -0.12072009215E+03  0.12503686778E+03  0.00000000000E+00 0. -1.
         -5    1    5    5    0  502  0.56496720691E+02  0.14568741661E+03 -0.47994501382E+03  0.50476331988E+03  0.47000000000E+01 0.  1.
         13    1    6    6    0    0 -0.13553500908E+02  0.22400618993E+02 -0.17866183079E+02  0.31696776112E+02  0.00000000000E+00 0. -1.
        -14    1    6    6    0    0 -0.10460562394E+02 -0.26706659363E+01 -0.22911106529E+03  0.22936528957E+03  0.00000000000E+00 0.  1.
</event>
<event>
12    1  0.8684423E-002  0.2705354E+03  0.7818608E-02  0.1102066E+00
         21   -1    0    0  503  502  0.00000000000E+00  0.00000000000E+00  0.16609351142E+04  0.16609351142E+04  0.00000000000E+00 0.  1.
         21   -1    0    0  501  503 -0.00000000000E+00 -0.00000000000E+00 -0.47742120112E+02  0.47742120112E+02  0.00000000000E+00 0.  1.
          6    2    1    2  501    0  0.31236114046E+02 -0.19662151103E+03  0.54324385971E+03  0.60687996657E+03  0.18317666140E+03 0.  0.
         24    2    3    3    0    0 -0.25436861950E+02 -0.88791939319E+02  0.14535704326E+03  0.19073690048E+03  0.81980807178E+02 0.  0.
         -6    2    1    2    0  502 -0.31236114046E+02  0.19662151103E+03  0.10699491344E+04  0.11017972677E+04  0.17184398635E+03 0.  0.
        -24    2    5    5    0    0 -0.16750510285E+02  0.40809357751E+02  0.23063128300E+03  0.24800349554E+03  0.79805775641E+02 0.  0.
          5    1    3    3  501    0  0.56672975996E+02 -0.10782957172E+03  0.39788681645E+03  0.41614306608E+03  0.47000000000E+01 0. -1.
        -11    1    4    4    0    0  0.24717950452E+02 -0.38346927693E+02  0.88889738967E+02  0.99914211360E+02  0.00000000000E+00 0.  1.
         12    1    4    4    0    0 -0.50154812402E+02 -0.50445011627E+02  0.56467304298E+02  0.90822689124E+02  0.00000000000E+00 0. -1.
         -5    1    5    5    0  502 -0.14485603761E+02  0.15581215328E+03  0.83931785137E+03  0.85379377220E+03  0.47000000000E+01 0.  1.
         11    1    6    6    0    0 -0.14679248531E+02  0.56386737227E+02  0.94857622040E+02  0.11132346083E+03  0.00000000000E+00 0. -1.
        -12    1    6    6    0    0 -0.20712617539E+01 -0.15577379476E+02  0.13577366096E+03  0.13668003470E+03  0.00000000000E+00 0.  1.
</event>
<event>
12    1  0.8684423E-002  0.2016235E+03  0.7818608E-02  0.1148651E+00
         21   -1    0    0  503  502  0.00000000000E+00  0.00000000000E+00  0.43061090086E+03  0.43061090086E+03  0.00000000000E+00 0.  1.
         21   -1    0    0  501  503 -0.00000000000E+00 -0.00000000000E+00 -0.11673361156E+03  0.11673361156E+03  0.00000000000E+00 0.  1.
          6    2    1    2  501    0  0.10482806318E+03 -0.44080836287E+00  0.27867405301E+03  0.34396405872E+03  0.17222929114E+03 0.  0.
         24    2    3    3    0    0  0.10954109422E+03  0.44438311166E+02  0.14783800816E+03  0.20548478712E+03  0.79961905047E+02 0.  0.
         -6    2    1    2    0  502 -0.10482806318E+03  0.44080836287E+00  0.35203236292E+02  0.20338045370E+03  0.17069043312E+03 0.  0.
        -24    2    5    5    0    0 -0.10344717801E+03  0.45515726642E+02 -0.97195691104E+01  0.13955409906E+03  0.81288846292E+02 0.  0.
          5    1    3    3  501    0 -0.47130310358E+01 -0.44879119529E+02  0.13083604485E+03  0.13847927160E+03  0.47000000000E+01 0. -1.
        -13    1    4    4    0    0  0.13992968575E+02  0.31272479260E+02  0.72937505599E+01  0.35028130493E+02  0.00000000000E+00 0.  1.
         14    1    4    4    0    0  0.95548125644E+02  0.13165831907E+02  0.14054425760E+03  0.17045665663E+03  0.00000000000E+00 0. -1.
         -5    1    5    5    0  502 -0.13808851777E+01 -0.45074918279E+02  0.44922805402E+02  0.63826354642E+02  0.47000000000E+01 0.  1.
         11    1    6    6    0    0 -0.50550749454E+02  0.36149154163E+02  0.33506207690E+02  0.70603155530E+02  0.00000000000E+00 0. -1.
        -12    1    6    6    0    0 -0.52896428553E+02  0.93665724787E+01 -0.43225776801E+02  0.68950943530E+02  0.00000000000E+00 0.  1.
</event>
<event>
12    1  0.8684423E-002  0.2224234E+03  0.7818608E-02  0.1132145E+00
         21   -1    0    0  503  502  0.00000000000E+00  0.00000000000E+00  0.36756188456E+03  0.36756188456E+03  0.00000000000E+00 0. -1.
         21   -1    0    0  501  503 -0.00000000000E+00 -0.00000000000E+00 -0.19848083527E+03  0.19848083527E+03  0.00000000000E+00 0. -1.
          6    2    1    2  501    0  0.57410959931E+02  0.12796896128E+03 -0.76300282702E+02  0.23485669772E+03  0.17223200038E+03 0.  0.
         24    2    3    3    0    0  0.94139261843E+02  0.94819582193E+02 -0.18453861546E+02  0.15859302396E+03  0.83416116288E+02 0.  0.
         -6    2    1    2    0  502 -0.57410959931E+02 -0.12796896128E+03  0.24538133199E+03  0.33118602211E+03  0.17262708298E+03 0.  0.
        -24    2    5    5    0    0 -0.47897610364E+02 -0.16053798342E+03  0.18983797093E+03  0.26592960494E+03  0.81323270842E+02 0.  0.
          5    1    3    3  501    0 -0.36728301912E+02  0.33149379084E+02 -0.57846421156E+02  0.76263673761E+02  0.47000000000E+01 0. -1.
        -13    1    4    4    0    0  0.70280563878E+02  0.13041598169E+02 -0.16614603187E+02  0.73385870445E+02  0.00000000000E+00 0.  1.
         14    1    4    4    0    0  0.23858697965E+02  0.81777984024E+02 -0.18392583593E+01  0.85207153520E+02  0.00000000000E+00 0. -1.
         -5    1    5    5    0  502 -0.95133495668E+01  0.32569022140E+02  0.55543361064E+02  0.65256417167E+02  0.47000000000E+01 0.  1.
         11    1    6    6    0    0 -0.27286194605E+02 -0.81237838385E+02  0.38742754529E+02  0.94048518489E+02  0.00000000000E+00 0. -1.
        -12    1    6    6    0    0 -0.20611415759E+02 -0.79300145032E+02  0.15109521640E+03  0.17188108645E+03  0.00000000000E+00 0.  1.
</event>
<event>
12    1  0.8684423E-002  0.3223425E+03  0.7818608E-02  0.1074788E+00
         21   -1    0    0  501  502  0.00000000000E+00  0.00000000000E+00  0.17290600105E+04  0.17290600105E+04  0.00000000000E+00 0. -1.
         21   -1    0    0  502  503 -0.00000000000E+00 -0.00000000000E+00 -0.21629504267E+03  0.21629504267E+03  0.00000000000E+00 0.  1.
         -6    2    1    2    0  503  0.26958720418E+03  0.27871560797E+02 -0.71714544474E+02  0.32841967177E+03  0.17106262116E+03 0.  0.
        -24    2    3    3    0    0  0.21934663291E+03 -0.80186358954E+01 -0.10715264652E+03  0.25707424237E+03  0.80176259229E+02 0.  0.
          6    2    1    2  501    0 -0.26958720418E+03 -0.27871560797E+02  0.15844795124E+04  0.16169353814E+04  0.17450105483E+03 0.  0.
         24    2    5    5    0    0 -0.19153875268E+03 -0.86232350642E+02  0.11227573891E+04  0.11450170075E+04  0.79728793970E+02 0.  0.
          5    1    5    5  501    0 -0.78048451499E+02  0.58360789845E+02  0.46172212328E+03  0.47191837397E+03  0.47000000000E+01 0. -1.
        -13    1    6    6    0    0 -0.10696442694E+03 -0.47139480522E+02  0.41481835813E+03  0.43097307282E+03  0.00000000000E+00 0.  1.
         14    1    6    6    0    0 -0.84574325741E+02 -0.39092870119E+02  0.70793903095E+03  0.71404393465E+03  0.00000000000E+00 0. -1.
         -5    1    3    3    0  503  0.50240571275E+02  0.35890196692E+02  0.35438102041E+02  0.71345429405E+02  0.47000000000E+01 0.  1.
         11    1    4    4    0    0  0.31109283620E+02 -0.27910344512E+02 -0.53103399428E+01  0.42130447048E+02  0.00000000000E+00 0. -1.
        -12    1    4    4    0    0  0.18823734929E+03  0.19891708616E+02 -0.10184230657E+03  0.21494379532E+03  0.00000000000E+00 0.  1.
</event>
<event>
12    1  0.8684423E-002  0.2205514E+03  0.7818608E-02  0.1133577E+00
         21   -1    0    0  501  502  0.00000000000E+00  0.00000000000E+00  0.52688764028E+03  0.52688764028E+03  0.00000000000E+00 0.  1.
         21   -1    0    0  502  503 -0.00000000000E+00 -0.00000000000E+00 -0.12339045115E+03  0.12339045115E+03  0.00000000000E+00 0. -1.
         -6    2    1    2    0  503 -0.12887821077E+03 -0.41713031136E+02  0.38173124434E+02  0.22383052569E+03  0.17404983947E+03 0.  0.
        -24    2    3    3    0    0 -0.65944310453E+02  0.15021914252E+02  0.78767537045E+02  0.12975860547E+03  0.77837399833E+02 0.  0.
          6    2    1    2  501    0  0.12887821077E+03  0.41713031136E+02  0.36532406470E+03  0.42644756575E+03  0.17333863938E+03 0.  0.
         24    2    5    5    0    0  0.12572731892E+03  0.75855838102E+02  0.21110488076E+03  0.26839280914E+03  0.76863270969E+02 0.  0.
          5    1    5    5  501    0  0.31508918476E+01 -0.34142806965E+02  0.15421918395E+03  0.15805475660E+03  0.47000000000E+01 0. -1.
        -13    1    6    6    0    0  0.26997878303E+02  0.54374479443E+02  0.10888006127E+03  0.12466088877E+03  0.00000000000E+00 0.  1.
         14    1    6    6    0    0  0.98729440621E+02  0.21481358659E+02  0.10222481949E+03  0.14373192038E+03  0.00000000000E+00 0. -1.
         -5    1    3    3    0  503 -0.62933900319E+02 -0.56734945389E+02 -0.40594412610E+02  0.94071920215E+02  0.47000000000E+01 0.  1.
         11    1    4    4    0    0 -0.60768544673E+01  0.86976018585E+00 -0.15795541880E+02  0.16946497758E+02  0.00000000000E+00 0. -1.
        -12    1    4    4    0    0 -0.59867455985E+02  0.14152154067E+02  0.94563078924E+02  0.11281210771E+03  0.00000000000E+00 0.  1.
</event>
<event>
12    1  0.8684423E-002  0.1815275E+03  0.7818608E-02  0.1170123E+00
         21   -1    0    0  503  502  0.00000000000E+00  0.00000000000E+00  0.28409844867E+03  0.28409844867E+03  0.00000000000E+00 0.  1.
         21   -1    0    0  501  503 -0.00000000000E+00 -0.00000000000E+00 -0.11890518583E+03  0.11890518583E+03  0.00000000000E+00 0.  1.
          6    2    1    2  501    0  0.40179854603E+02 -0.37046546586E+02  0.14430766220E+02  0.16703425123E+03  0.15717928215E+03 0.  0.
         24    2    3    3    0    0  0.42721406658E+02  0.26968428162E+02  0.28333011240E+02  0.10130953064E+03  0.83117066653E+02 0.  0.
         -6    2    1    2    0  502 -0.40179854603E+02  0.37046546586E+02  0.15076249662E+03  0.23596938327E+03  0.17310503205E+03 0.  0.
        -24    2    5    5    0    0 -0.68638852156E+02  0.68045404865E+02  0.68692074258E+02  0.14361957015E+03  0.81034009621E+02 0.  0.
          5    1    3    3  501    0 -0.25415520549E+01 -0.64014974749E+02 -0.13902245020E+02  0.65724720582E+02  0.47000000000E+01 0. -1.
        -11    1    4    4    0    0 -0.10781093341E+02  0.19792160510E+01 -0.21440611597E+02  0.24080055969E+02  0.00000000000E+00 0.  1.
         12    1    4    4    0    0  0.53502500000E+02  0.24989212111E+02  0.49773622837E+02  0.77229474674E+02  0.00000000000E+00 0. -1.
         -5    1    5    5    0  502  0.28458997553E+02 -0.30998858278E+02  0.82070422365E+02  0.92349813121E+02  0.47000000000E+01 0.  1.
         13    1    6    6    0    0 -0.74935406537E+02  0.26673192806E+02  0.25619884768E+02  0.83565261101E+02  0.00000000000E+00 0. -1.
        -14    1    6    6    0    0  0.62965543813E+01  0.41372212058E+02  0.43072189490E+02  0.60054309047E+02  0.00000000000E+00 0.  1.
</event>
<event>
12    1  0.8684423E-002  0.1920909E+03  0.7818608E-02  0.1156641E+00
         21   -1    0    0  501  502  0.00000000000E+00  0.00000000000E+00  0.24753617763E+02  0.24753617763E+02  0.00000000000E+00 0. -1.
         21   -1    0    0  502  503 -0.00000000000E+00 -0.00000000000E+00 -0.18623646322E+04  0.18623646322E+04  0.00000000000E+00 0. -1.
         -6    2    1    2    0  503  0.50157354042E+01 -0.84800177425E+02 -0.13409358977E+04  0.13545911822E+04  0.17202314211E+03 0.  0.
        -24    2    3    3    0    0  0.44978150913E+02 -0.10348090484E+03 -0.80533216821E+03  0.81715336320E+03  0.80301843778E+02 0.  0.
          6    2    1    2  501    0 -0.50157354042E+01  0.84800177425E+02 -0.49667511673E+03  0.53252706777E+03  0.17228661770E+03 0.  0.
         24    2    5    5    0    0  0.24276242890E+02  0.12717848916E+01 -0.12838702991E+03  0.15372208200E+03  0.80970955531E+02 0.  0.
          5    1    5    5  501    0 -0.29291978294E+02  0.83528392534E+02 -0.36828808682E+03  0.37880498577E+03  0.47000000000E+01 0. -1.
        -13    1    6    6    0    0  0.12351385004E+02  0.38720077647E+01  0.90182125716E+01  0.15775845893E+02  0.00000000000E+00 0.  1.
         14    1    6    6    0    0  0.11924857886E+02 -0.26002228731E+01 -0.13740524248E+03  0.13794623611E+03  0.00000000000E+00 0. -1.
         -5    1    3    3    0  503 -0.39962415509E+02  0.18680727411E+02 -0.53560372950E+03  0.53743781899E+03  0.47000000000E+01 0.  1.
         13    1    4    4    0    0 -0.64089569496E+01 -0.72131562944E+02 -0.55402327068E+03  0.55873591396E+03  0.00000000000E+00 0. -1.
        -14    1    4    4    0    0  0.51387107863E+02 -0.31349341892E+02 -0.25130889754E+03  0.25841744924E+03  0.00000000000E+00 0.  1.
</event>
<event>
12    1  0.8684423E-002  0.2944672E+03  0.7818608E-02  0.1089094E+00
         21   -1    0    0  501  502  0.00000000000E+00  0.00000000000E+00  0.12715788211E+03  0.12715788211E+03  0.00000000000E+00 0.  1.
         21   -1    0    0  502  503 -0.00000000000E+00 -0.00000000000E+00 -0.82007060528E+03  0.82007060528E+03  0.00000000000E+00 0.  1.
         -6    2    1    2    0  503  0.22266763702E+03  0.87325200340E+02 -0.55746940676E+03  0.63046258840E+03  0.17176835769E+03 0.  0.
        -24    2    3    3    0    0  0.56158862482E+02 -0.85022351903E+01 -0.17317854540E+03  0.20080036581E+03  0.84284473548E+02 0.  0.
          6    2    1    2  501    0 -0.22266763702E+03 -0.87325200340E+02 -0.13544331641E+03  0.31676589900E+03  0.15744578629E+03 0.  0.
         24    2    5    5    0    0 -0.60366403613E+02  0.52506036992E+01 -0.42981163885E+02  0.10823937909E+03  0.78719192145E+02 0.  0.
          5    1    5    5  501    0 -0.16230123340E+03 -0.92575804039E+02 -0.92462152521E+02  0.20852651991E+03  0.47000000000E+01 0. -1.
        -11    1    6    6    0    0 -0.74061153711E+02 -0.14099841690E+02 -0.35869421321E+02  0.83489373040E+02  0.00000000000E+00 0.  1.
         12    1    6    6    0    0  0.13694750099E+02  0.19350445390E+02 -0.71117425646E+01  0.24750006047E+02  0.00000000000E+00 0. -1.
         -5    1    3    3    0  503  0.16650877453E+03  0.95827435530E+02 -0.38429086136E+03  0.42966222259E+03  0.47000000000E+01 0.  1.
         13    1    4    4    0    0  0.14326454156E+02 -0.37368604155E+02 -0.12312577386E+03  0.12946666001E+03  0.00000000000E+00 0. -1.
        -14    1    4    4    0    0  0.41832408327E+02  0.28866368965E+02 -0.50052771544E+02  0.71333705798E+02  0.00000000000E+00 0.  1.
</event>
<event>
12    1  0.8684423E-002  0.2183237E+03  0.7818608E-02  0.1135280E+00
         21   -1    0    0  501  502  0.00000000000E+00  0.00000000000E+00  0.50162552651E+02  0.50162552651E+02  0.00000000000E+00 0.  1.
         21   -1    0    0  502  503 -0.00000000000E+00 -0.00000000000E+00 -0.97203403141E+03  0.97203403141E+03  0.00000000000E+00 0.  1.
         -6    2    1    2    0  503 -0.91876262231E+02 -0.96627689803E+02 -0.54223430117E+03  0.58425864688E+03  0.17193595054E+03 0.  0.
        -24    2    3    3    0    0 -0.87313695822E+01 -0.10528332058E+03 -0.36269183412E+03  0.38615367321E+03  0.80052972395E+02 0.  0.
          6    2    1    2  501    0  0.91876262231E+02  0.96627689803E+02 -0.37963717759E+03  0.43793793718E+03  0.17287883681E+03 0.  0.
         24    2    5    5    0    0  0.23754437488E+00  0.92639563215E+02 -0.25570707328E+03  0.28368385938E+03  0.80673909344E+02 0.  0.
          5    1    5    5  501    0  0.91638717857E+02  0.39881265873E+01 -0.12393010431E+03  0.15425407780E+03  0.47000000000E+01 0. -1.
        -11    1    6    6    0    0  0.29017120212E+02  0.52126759774E+02 -0.20149458391E+03  0.21014104715E+03  0.00000000000E+00 0.  1.
         12    1    6    6    0    0 -0.28779575837E+02  0.40512803442E+02 -0.54212489363E+02  0.73542812232E+02  0.00000000000E+00 0. -1.
         -5    1    3    3    0  503 -0.83144892649E+02  0.86556307739E+01 -0.17954246704E+03  0.19810497366E+03  0.47000000000E+01 0.  1.
         13    1    4    4    0    0  0.11485707564E+02  0.40619278221E+01 -0.83402166267E+01  0.14764144041E+02  0.00000000000E+00 0. -1.
        -14    1    4    4    0    0 -0.20217077146E+02 -0.10934524840E+03 -0.35435161750E+03  0.37138952917E+03  0.00000000000E+00 0.  1.
</event>
<event>
12    1  0.8684423E-002  0.2241039E+03  0.7818608E-02  0.1131085E+00
         21   -1    0    0  503  502  0.00000000000E+00  0.00000000000E+00  0.33532980760E+03  0.33532980760E+03  0.00000000000E+00 0.  1.
         21   -1    0    0  501  503 -0.00000000000E+00 -0.00000000000E+00 -0.17806858425E+03  0.17806858425E+03  0.00000000000E+00 0.  1.
          6    2    1    2  501    0 -0.14225579387E+03  0.89402912485E+01  0.18261811486E+03  0.28908813680E+03  0.17293332608E+03 0.  0.
         24    2    3    3    0    0 -0.27003732948E+02 -0.35253684113E+02  0.12498374712E+03  0.15277982690E+03  0.75820278463E+02 0.  0.
         -6    2    1    2    0  502  0.14225579387E+03 -0.89402912485E+01 -0.25356891510E+02  0.22431025505E+03  0.17133440657E+03 0.  0.
        -24    2    5    5    0    0  0.15706534248E+03  0.29721133237E+02 -0.68080624974E+01  0.17870129177E+03  0.79592301107E+02 0.  0.
          5    1    3    3  501    0 -0.11525206092E+03  0.44193975361E+02  0.57634367736E+02  0.13630830990E+03  0.47000000000E+01 0. -1.
        -11    1    4    4    0    0 -0.27546927848E+02  0.18312154955E+02  0.35781239889E+02  0.48728486339E+02  0.00000000000E+00 0.  1.
         12    1    4    4    0    0  0.54319490055E+00 -0.53565839067E+02  0.89202507233E+02  0.10405134056E+03  0.00000000000E+00 0. -1.
         -5    1    5    5    0  502 -0.14809548614E+02 -0.38661424485E+02 -0.18548829013E+02  0.45608963276E+02  0.47000000000E+01 0.  1.
         11    1    6    6    0    0  0.56128252029E+02  0.49644686032E+02  0.52266433526E+01  0.75115200378E+02  0.00000000000E+00 0. -1.
        -12    1    6    6    0    0  0.10093709045E+03 -0.19923552795E+02 -0.12034705850E+02  0.10358609139E+03  0.00000000000E+00 0.  1.
</event>
<event>
12    1  0.8684423E-002  0.1714112E+03  0.7818608E-02  0.1176783E+00
         21   -1    0    0  501  502  0.00000000000E+00  0.00000000000E+00  0.99483476298E+02  0.99483476298E+02  0.00000000000E+00 0.  1.
         21   -1    0    0  502  503 -0.00000000000E+00 -0.00000000000E+00 -0.29943226471E+03  0.29943226471E+03  0.00000000000E+00 0.  1.
         -6    2    1    2    0  503  0.14778338033E+01 -0.85228569225E+01 -0.12945113533E+03  0.21357354511E+03  0.16965034527E+03 0.  0.
        -24    2    3    3    0    0  0.10780734622E+02 -0.15859305315E+02  0.24843058365E+01  0.81023863577E+02  0.78682608558E+02 0.  0.
          6    2    1    2  501    0 -0.14778338033E+01  0.85228569225E+01 -0.70497653079E+02  0.18534219590E+03  0.17119283690E+03 0.  0.
         24    2    5    5    0    0 -0.56102679796E+02  0.38371553858E+02 -0.62733161521E+02  0.12243594948E+03  0.80219856308E+02 0.  0.
          5    1    5    5  501    0  0.54624845993E+02 -0.29848696935E+02 -0.77644915588E+01  0.62906246412E+02  0.47000000000E+01 0. -1.
        -13    1    6    6    0    0  0.17313503256E+02 -0.84846316022E+00  0.13536868439E+01  0.17387057048E+02  0.00000000000E+00 0.  1.
         14    1    6    6    0    0 -0.73416183052E+02  0.39220017018E+02 -0.64086848365E+02  0.10504889244E+03  0.00000000000E+00 0. -1.
         -5    1    3    3    0  503 -0.93029008187E+01  0.73364483925E+01 -0.13193544117E+03  0.13254968153E+03  0.47000000000E+01 0.  1.
         11    1    4    4    0    0  0.27283204695E+02  0.18402036657E+02 -0.18332238873E+02  0.37670667549E+02  0.00000000000E+00 0. -1.
        -12    1    4    4    0    0 -0.16502470073E+02 -0.34261341972E+02  0.20816544709E+02  0.43353196028E+02  0.00000000000E+00 0.  1.
</event>
<event>
12    1  0.8684423E-002  0.2451110E+03  0.7818608E-02  0.1116438E+00
         21   -1    0    0  503  502  0.00000000000E+00  0.00000000000E+00  0.39436417374E+03  0.39436417374E+03  0.00000000000E+00 0. -1.
         21   -1    0    0  501  503 -0.00000000000E+00 -0.00000000000E+00 -0.15575171499E+03  0.15575171499E+03  0.00000000000E+00 0. -1.
          6    2    1    2  501    0  0.16214269233E+03 -0.61730100347E+02  0.16008084372E+03  0.29275466801E+03  0.17314318107E+03 0.  0.
         24    2    3    3    0    0  0.65369554179E+02 -0.14842973515E+02  0.54430884579E+01  0.10434456137E+03  0.79778868129E+02 0.  0.
         -6    2    1    2    0  502 -0.16214269233E+03  0.61730100347E+02  0.78531615032E+02  0.25736122072E+03  0.17310899863E+03 0.  0.
        -24    2    5    5    0    0 -0.13769745294E+02  0.82952239720E+01 -0.12329839670E+01  0.80572367341E+02  0.78942824267E+02 0.  0.
          5    1    3    3  501    0  0.96773138155E+02 -0.46887126832E+02  0.15463775526E+03  0.18841010664E+03  0.47000000000E+01 0. -1.
        -13    1    4    4    0    0 -0.16697597255E+02  0.15531373614E+01  0.11660050499E+02  0.20424954526E+02  0.00000000000E+00 0.  1.
         14    1    4    4    0    0  0.82067151434E+02 -0.16396110877E+02 -0.62169620410E+01  0.83919606848E+02  0.00000000000E+00 0. -1.
         -5    1    5    5    0  502 -0.14837294704E+03  0.53434876375E+02  0.79764598999E+02  0.17678885338E+03  0.47000000000E+01 0.  1.
         11    1    6    6    0    0 -0.39960069360E+02  0.25373587013E+02  0.79206170156E+01  0.47993356156E+02  0.00000000000E+00 0. -1.
        -12    1    6    6    0    0  0.26190324066E+02 -0.17078363041E+02 -0.91536009826E+01  0.32579011185E+02  0.00000000000E+00 0.  1.
</event>
<event>
12    1  0.8684423E-002  0.1762279E+03  0.7818608E-02  0.1172042E+00
         21   -1    0    0  501  502  0.00000000000E+00  0.00000000000E+00  0.25917944195E+03  0.25917944195E+03  0.00000000000E+00 0.  1.
         21   -1    0    0  502  503 -0.00000000000E+00 -0.00000000000E+00 -0.13968717956E+03  0.13968717956E+03  0.00000000000E+00 0.  1.
         -6    2    1    2    0  503 -0.22799459832E+02 -0.12290089609E+02  0.13796220084E+03  0.22380757779E+03  0.17431408820E+03 0.  0.
        -24    2    3    3    0    0  0.47222004324E+02 -0.34623661084E+02  0.66640297731E+02  0.12128588389E+03  0.82708045254E+02 0.  0.
          6    2    1    2  501    0  0.22799459832E+02  0.12290089609E+02 -0.18469938443E+02  0.17505904372E+03  0.17214432459E+03 0.  0.
         24    2    5    5    0    0 -0.17967409649E+02  0.58724288279E+02 -0.41898980543E+02  0.10880889302E+03  0.79451121997E+02 0.  0.
          5    1    5    5  501    0  0.40766869481E+02 -0.46434198669E+02  0.23429042100E+02  0.66250150695E+02  0.47000000000E+01 0. -1.
        -11    1    6    6    0    0  0.30858750444E+02  0.12902194946E+02 -0.13204999972E+02  0.35959715484E+02  0.00000000000E+00 0.  1.
         12    1    6    6    0    0 -0.48826160093E+02  0.45822093333E+02 -0.28693980571E+02  0.72849177537E+02  0.00000000000E+00 0. -1.
         -5    1    3    3    0  503 -0.70021464156E+02  0.22333571475E+02  0.71321903105E+02  0.10252169390E+03  0.47000000000E+01 0.  1.
         13    1    4    4    0    0  0.33110993598E+02  0.22220990501E+02  0.41485511390E+02  0.57542662183E+02  0.00000000000E+00 0. -1.
        -14    1    4    4    0    0  0.14111010726E+02 -0.56844651585E+02  0.25154786342E+02  0.63743221706E+02  0.00000000000E+00 0.  1.
</event>
<event>
12    1  0.8684423E-002  0.1940423E+03  0.7818608E-02  0.1155083E+00
         21   -1    0    0  501  502  0.00000000000E+00  0.00000000000E+00  0.23574512062E+03  0.23574512062E+03  0.00000000000E+00 0.  1.
         21   -1    0    0  502  503 -0.00000000000E+00 -0.00000000000E+00 -0.16357839482E+03  0.16357839482E+03  0.00000000000E+00 0.  1.
         -6    2    1    2    0  503  0.27611360479E+02 -0.82980398276E+02  0.22347891598E+01  0.19306422308E+03  0.17210655486E+03 0.  0.
        -24    2    3    3    0    0 -0.49209953516E+02 -0.96786948207E+01 -0.17601303509E+00  0.86750743315E+02  0.70783923504E+02 0.  0.
          6    2    1    2  501    0 -0.27611360479E+02  0.82980398276E+02  0.69931936636E+02  0.20625929236E+03  0.17321745350E+03 0.  0.
         24    2    5    5    0    0 -0.65612561582E+02  0.10821879919E+03  0.54991599022E+02  0.15802681519E+03  0.77020007929E+02 0.  0.
          5    1    5    5  501    0  0.38001201103E+02 -0.25238400914E+02  0.14940337615E+02  0.48232477170E+02  0.47000000000E+01 0. -1.
        -13    1    6    6    0    0 -0.79136481022E+01  0.15423391804E+02 -0.19262193269E+02  0.25914068198E+02  0.00000000000E+00 0.  1.
         14    1    6    6    0    0 -0.57698913479E+02  0.92795407386E+02  0.74253792291E+02  0.13211274699E+03  0.00000000000E+00 0. -1.
         -5    1    3    3    0  503  0.76821313995E+02 -0.73301703456E+02  0.24108021949E+01  0.10631347977E+03  0.47000000000E+01 0.  1.
         13    1    4    4    0    0 -0.32771700767E+02  0.20893144980E+02  0.22861417029E+02  0.45090489761E+02  0.00000000000E+00 0. -1.
        -14    1    4    4    0    0 -0.16438252748E+02 -0.30571839800E+02 -0.23037430064E+02  0.41660253554E+02  0.00000000000E+00 0.  1.
</event>
<event>
12    1  0.8684423E-002  0.2072142E+03  0.7818608E-02  0.1143908E+00
         21   -1    0    0  503  502  0.00000000000E+00  0.00000000000E+00  0.20999259281E+03  0.20999259281E+03  0.00000000000E+00 0.  1.
         21   -1    0    0  501  503 -0.00000000000E+00 -0.00000000000E+00 -0.64859324793E+03  0.64859324793E+03  0.00000000000E+00 0. -1.
          6    2    1    2  501    0 -0.10457031822E+03  0.43164568805E+02 -0.57466893426E+03  0.61069013275E+03  0.17291594136E+03 0.  0.
         24    2    3    3    0    0  0.15017767962E+02  0.19164121574E+02 -0.27459990410E+03  0.28674438932E+03  0.78895123823E+02 0.  0.
         -6    2    1    2    0  502  0.10457031822E+03 -0.43164568805E+02  0.13606827914E+03  0.24789570800E+03  0.17360752865E+03 0.  0.
        -24    2    5    5    0    0  0.99812110957E+01 -0.49524157713E+02  0.17994647184E+02  0.96399780263E+02  0.80105202923E+02 0.  0.
          5    1    3    3  501    0 -0.11958808618E+03  0.24000447231E+02 -0.30006903016E+03  0.32394574343E+03  0.47000000000E+01 0. -1.
        -11    1    4    4    0    0  0.25651776843E+01  0.40170421242E+02 -0.24539902392E+03  0.24867835415E+03  0.00000000000E+00 0.  1.
         12    1    4    4    0    0  0.12452590277E+02 -0.21006299668E+02 -0.29200880174E+02  0.38066035167E+02  0.00000000000E+00 0. -1.
         -5    1    5    5    0  502  0.94589107121E+02  0.63595889078E+01  0.11807363195E+03  0.15149592773E+03  0.47000000000E+01 0.  1.
         11    1    6    6    0    0 -0.32061873605E+02 -0.54622352339E+01  0.13870810042E+02  0.35358154986E+02  0.00000000000E+00 0. -1.
        -12    1    6    6    0    0  0.42043084701E+02 -0.44061922479E+02  0.41238371423E+01  0.61041625277E+02  0.00000000000E+00 0.  1.
</event>
<event>
12    1  0.8684423E-002  0.1806381E+03  0.7818608E-02  0.1167189E+00
         21   -1    0    0  503  502  0.00000000000E+00  0.00000000000E+00  0.92450612948E+02  0.92450612948E+02  0.00000000000E+00 0. -1.
         21   -1    0    0  501  503 -0.00000000000E+00 -0.00000000000E+00 -0.35538792819E+03  0.35538792819E+03  0.00000000000E+00 0.  1.
          6    2    1    2  501    0  0.54698751755E+02  0.54404424549E+01 -0.15008090996E+03  0.23484972471E+03  0.17207138578E+03 0.  0.
         24    2    3    3    0    0  0.45086106274E+02  0.34762404395E+02 -0.24468537480E+02  0.10541735424E+03  0.85281460528E+02 0.  0.
         -6    2    1    2    0  502 -0.54698751755E+02 -0.54404424549E+01 -0.11285640528E+03  0.21298881643E+03  0.17206427826E+03 0.  0.
        -24    2    5    5    0    0 -0.43266921011E+02  0.56779919201E+02 -0.35993188896E+02  0.11332887367E+03  0.80323958327E+02 0.  0.
          5    1    3    3  501    0  0.96126454806E+01 -0.29321961940E+02 -0.12561237248E+03  0.12943237047E+03  0.47000000000E+01 0. -1.
        -11    1    4    4    0    0  0.28534110121E+01  0.25398385418E+02 -0.49305390979E+02  0.55535947960E+02  0.00000000000E+00 0.  1.
         12    1    4    4    0    0  0.42232695262E+02  0.93640189765E+01  0.24836853499E+02  0.49881406278E+02  0.00000000000E+00 0. -1.
         -5    1    5    5    0  502 -0.11431830744E+02 -0.62220361656E+02 -0.76863216386E+02  0.99659942765E+02  0.47000000000E+01 0.  1.
         13    1    6    6    0    0 -0.20512621412E+02  0.38043249757E+01  0.22854271036E+02  0.30944437793E+02  0.00000000000E+00 0. -1.
        -14    1    6    6    0    0 -0.22754299599E+02  0.52975594225E+02 -0.58847459932E+02  0.82384435873E+02  0.00000000000E+00 0.  1.
</event>
<event>
12    1  0.8684423E-002  0.2131761E+03  0.7818608E-02  0.1139147E+00
         21   -1    0    0  503  502  0.00000000000E+00  0.00000000000E+00  0.17775658366E+03  0.17775658366E+03  0.00000000000E+00 0.  1.
         21   -1    0    0  501  503 -0.00000000000E+00 -0.00000000000E+00 -0.29713400085E+03  0.29713400085E+03  0.00000000000E+00 0.  1.
          6    2    1    2  501    0  0.11461791719E+03 -0.55079579645E+02 -0.14883265897E+03  0.25968917687E+03  0.17063493538E+03 0.  0.
         24    2    3    3    0    0  0.11497350673E+03  0.16414580789E+02 -0.11342049398E+03  0.17976638382E+03  0.77223044389E+02 0.  0.
         -6    2    1    2    0  502 -0.11461791719E+03  0.55079579645E+02  0.29455241775E+02  0.21520140764E+03  0.17109356372E+03 0.  0.
        -24    2    5    5    0    0 -0.14334366272E+03  0.40603952349E+02  0.50644009499E+02  0.17639720529E+03  0.79718703877E+02 0.  0.
          5    1    3    3  501    0 -0.35558953958E+00 -0.71494160434E+02 -0.35412164988E+02  0.79922793052E+02  0.47000000000E+01 0. -1.
        -13    1    4    4    0    0  0.26617611497E+02  0.28005832095E+02 -0.42903609220E+01  0.38874555560E+02  0.00000000000E+00 0.  1.
         14    1    4    4    0    0  0.88355895232E+02 -0.11591251306E+02 -0.10913013306E+03  0.14089182826E+03  0.00000000000E+00 0. -1.
         -5    1    5    5    0  502  0.28725745533E+02  0.14475627296E+02 -0.21188767724E+02  0.38804202346E+02  0.47000000000E+01 0.  1.
         11    1    6    6    0    0 -0.10926199996E+02  0.46248236265E+01  0.36584634125E+02  0.38460451037E+02  0.00000000000E+00 0. -1.
        -12    1    6    6    0    0 -0.13241746273E+03  0.35979128722E+02  0.14059375374E+02  0.13793675426E+03  0.00000000000E+00 0.  1.
</event>
<event>
12    1  0.8684423E-002  0.2688110E+03  0.7818608E-02  0.1102048E+00
         21   -1    0    0  503  502  0.00000000000E+00  0.00000000000E+00  0.46186154502E+03  0.46186154502E+03  0.00000000000E+00 0.  1.
         21   -1    0    0  501  503 -0.00000000000E+00 -0.00000000000E+00 -0.15997752665E+03  0.15997752665E+03  0.00000000000E+00 0. -1.
          6    2    1    2  501    0  0.31343780107E+02  0.20391362408E+03  0.10241295097E+03  0.28710330403E+03  0.17139631275E+03 0.  0.
         24    2    3    3    0    0  0.63240417124E+02  0.56358162041E+02  0.41203919443E+02  0.12413506980E+03  0.80846519955E+02 0.  0.
         -6    2    1    2    0  502 -0.31343780107E+02 -0.20391362408E+03  0.19947106740E+03  0.33473576763E+03  0.17232564745E+03 0.  0.
        -24    2    5    5    0    0  0.29072403236E+02 -0.95963774658E+02  0.15966003487E+03  0.20469618324E+03  0.79717940390E+02 0.  0.
          5    1    3    3  501    0 -0.31896637018E+02  0.14755546204E+03  0.61209031529E+02  0.16296823424E+03  0.47000000000E+01 0. -1.
        -11    1    4    4    0    0 -0.11976995264E+02  0.24826585408E+02 -0.82264520578E+01  0.28765991588E+02  0.00000000000E+00 0.  1.
         12    1    4    4    0    0  0.75217412388E+02  0.31531576633E+02  0.49430371501E+02  0.95369078207E+02  0.00000000000E+00 0. -1.
         -5    1    5    5    0  502 -0.60416183343E+02 -0.10794984942E+03  0.39811032530E+02  0.13003958440E+03  0.47000000000E+01 0.  1.
         13    1    6    6    0    0  0.56854314108E+02 -0.67137233407E+02  0.10618667219E+03  0.13789644844E+03  0.00000000000E+00 0. -1.
        -14    1    6    6    0    0 -0.27781910872E+02 -0.28826541251E+02  0.53473362679E+02  0.66799734793E+02  0.00000000000E+00 0.  1.
</event>
<event>
12    1  0.8684423E-002  0.1782273E+03  0.7818608E-02  0.1169886E+00
         21   -1    0    0  503  502  0.00000000000E+00  0.00000000000E+00  0.18173938741E+03  0.18173938741E+03  0.00000000000E+00 0.  1.
         21   -1    0    0  501  503 -0.00000000000E+00 -0.00000000000E+00 -0.50840797188E+03  0.50840797188E+03  0.00000000000E+00 0.  1.
          6    2    1    2  501    0  0.40688703055E+02 -0.21340520567E+02 -0.44368812654E+03  0.47814654570E+03  0.17220330182E+03 0.  0.
         24    2    3    3    0    0  0.11918787007E+02  0.42010673342E+02 -0.13769892594E+03  0.16431129796E+03  0.78295940346E+02 0.  0.
         -6    2    1    2    0  502 -0.40688703055E+02  0.21340520567E+02  0.11701954207E+03  0.21200081359E+03  0.17070378836E+03 0.  0.
        -24    2    5    5    0    0 -0.49665794381E+02  0.75683506434E+02  0.93033665686E+02  0.15174170185E+03  0.78584965813E+02 0.  0.
          5    1    3    3  501    0  0.28769916047E+02 -0.63351193909E+02 -0.30598920061E+03  0.31383524774E+03  0.47000000000E+01 0. -1.
        -11    1    4    4    0    0  0.45253632722E+02  0.26919865855E+02 -0.88792049458E+02  0.10323080209E+03  0.00000000000E+00 0.  1.
         12    1    4    4    0    0 -0.33334845714E+02  0.15090807487E+02 -0.48906876478E+02  0.61080495874E+02  0.00000000000E+00 0. -1.
         -5    1    5    5    0  502  0.89770913259E+01 -0.54342985866E+02  0.23985876385E+02  0.60259111739E+02  0.47000000000E+01 0.  1.
         13    1    6    6    0    0  0.89570375091E+01  0.25550116494E+02  0.63702000899E+02  0.69216919118E+02  0.00000000000E+00 0. -1.
        -14    1    6    6    0    0 -0.58622831890E+02  0.50133389940E+02  0.29331664787E+02  0.82524782731E+02  0.00000000000E+00 0.  1.
</event>
<event>
12    1  0.8684423E-002  0.2097270E+03  0.7818608E-02  0.1141977E+00
         21   -1    0    0  501  502  0.00000000000E+00  0.00000000000E+00  0.15806589130E+03  0.15806589130E+03  0.00000000000E+00 0.  1.
         21   -1    0    0  502  503 -0.00000000000E+00 -0.00000000000E+00 -0.44871407208E+03  0.44871407208E+03  0.00000000000E+00 0. -1.
         -6    2    1    2    0  503  0.11904572659E+03  0.12183877608E+02 -0.33280885678E+03  0.39285719028E+03  0.17104006813E+03 0.  0.
        -24    2    3    3    0    0  0.49138201404E+02  0.68166476830E+02 -0.14433166017E+03  0.18413043795E+03  0.77531662251E+02 0.  0.
          6    2    1    2  501    0 -0.11904572659E+03 -0.12183877608E+02  0.42160676006E+02  0.21392277311E+03  0.17223558970E+03 0.  0.
         24    2    5    5    0    0 -0.12946471851E+03 -0.51427924975E+02  0.10844255966E+02  0.16243045513E+03  0.82825781383E+02 0.  0.
          5    1    5    5  501    0  0.10418991916E+02  0.39244047366E+02  0.31316420039E+02  0.51492317974E+02  0.47000000000E+01 0. -1.
        -13    1    6    6    0    0 -0.47755011733E+02 -0.19378794906E+02  0.44833258900E+02  0.68308856975E+02  0.00000000000E+00 0.  1.
         14    1    6    6    0    0 -0.81709706775E+02 -0.32049130069E+02 -0.33989002934E+02  0.94121598158E+02  0.00000000000E+00 0. -1.
         -5    1    3    3    0  503  0.69907525187E+02 -0.55982599222E+02 -0.18847719662E+03  0.20872675233E+03  0.47000000000E+01 0.  1.
         13    1    4    4    0    0  0.68223725560E+01  0.16258718193E+02 -0.10498788958E+03  0.10645819669E+03  0.00000000000E+00 0. -1.
        -14    1    4    4    0    0  0.42315828848E+02  0.51907758637E+02 -0.39343770593E+02  0.77672241260E+02  0.00000000000E+00 0.  1.
</event>
<event>
12    1  0.8684423E-002  0.1731767E+03  0.7818608E-02  0.1175058E+00
         21   -1    0    0  503  502  0.00000000000E+00  0.00000000000E+00  0.74303837058E+02  0.74303837058E+02  0.00000000000E+00 0.  1.
         21   -1    0    0  501  503 -0.00000000000E+00 -0.00000000000E+00 -0.39940292885E+03  0.39940292885E+03  0.00000000000E+00 0.  1.
          6    2    1    2  501    0 -0.58049788404E+01 -0.15621190662E+02 -0.16837857507E+03  0.24153989324E+03  0.17237301444E+03 0.  0.
         24    2    3    3    0    0 -0.61141504089E+01 -0.54476632647E+02 -0.24773997142E+02  0.92697003718E+02  0.70525862094E+02 0.  0.
         -6    2    1    2    0  502  0.58049788404E+01  0.15621190662E+02 -0.15672051672E+03  0.23216687267E+03  0.17047702786E+03 0.  0.
        -24    2    5    5    0    0 -0.45896897798E+02  0.44094348108E+01 -0.15375726538E+03  0.17897233935E+03  0.79144382304E+02 0.  0.
          5    1    3    3  501    0  0.30917156854E+00  0.38855441986E+02 -0.14360457793E+03  0.14884288952E+03  0.47000000000E+01 0. -1.
        -11    1    4    4    0    0 -0.17012812514E+02  0.11531580907E+02 -0.14160080909E+02  0.24958386149E+02  0.00000000000E+00 0.  1.
         12    1    4    4    0    0  0.10898662105E+02 -0.66008213555E+02 -0.10613916233E+02  0.67738617569E+02  0.00000000000E+00 0. -1.
         -5    1    5    5    0  502  0.51701876638E+02  0.11211755851E+02 -0.29632513415E+01  0.53194533325E+02  0.47000000000E+01 0.  1.
         11    1    6    6    0    0  0.35935890636E+00  0.11590161577E+02  0.56036049458E+01  0.12878717816E+02  0.00000000000E+00 0. -1.
        -12    1    6    6    0    0 -0.46256256704E+02 -0.71807267658E+01 -0.15936087033E+03  0.16609362153E+03  0.00000000000E+00 0.  1.
</event>
<event>
12    1  0.8684423E-002  0.1997288E+03  0.7818608E-02  0.1150145E+00
         21   -1    0    0  503  502  0.00000000000E+00  0.00000000000E+00  0.90901935780E+02  0.90901935780E+02  0.00000000000E+00 0. -1.
         21   -1    0    0  501  503 -0.00000000000E+00 -0.00000000000E+00 -0.62878560367E+03  0.62878560367E+03  0.00000000000E+00 0. -1.
          6    2    1    2  501    0  0.36435442948E+01 -0.10267362279E+03 -0.46806457877E+03  0.50889689137E+03  0.17127886011E+03 0.  0.
         24    2    3    3    0    0 -0.50012735575E+02 -0.67858928266E+02 -0.18142715254E+03  0.21517225257E+03  0.79228648436E+02 0.  0.
         -6    2    1    2    0  502 -0.36435442948E+01  0.10267362279E+03 -0.69819089129E+02  0.21079064808E+03  0.17030221338E+03 0.  0.
        -24    2    5    5    0    0  0.41271431907E+02  0.18218329630E+02  0.88428814383E+00  0.91748180085E+02  0.79885592927E+02 0.  0.
          5    1    3    3  501    0  0.53656279870E+02 -0.34814694520E+02 -0.28663742623E+03  0.29372463880E+03  0.47000000000E+01 0. -1.
        -11    1    4    4    0    0 -0.42226060160E+02 -0.61598989221E+02 -0.18861638937E+03  0.20286354520E+03  0.00000000000E+00 0.  1.
         12    1    4    4    0    0 -0.77866754145E+01 -0.62599390452E+01  0.71892368371E+01  0.12308707372E+02  0.00000000000E+00 0. -1.
         -5    1    5    5    0  502 -0.44914976202E+02  0.84455293156E+02 -0.70703377273E+02  0.11904246800E+03  0.47000000000E+01 0.  1.
         11    1    6    6    0    0  0.42321936813E+02  0.35407203774E+02 -0.25063936321E+02  0.60605423178E+02  0.00000000000E+00 0. -1.
        -12    1    6    6    0    0 -0.10505049060E+01 -0.17188874144E+02  0.25948224465E+02  0.31142756907E+02  0.00000000000E+00 0.  1.
</event>
<event>
12    1  0.8684423E-002  0.2103717E+03  0.7818608E-02  0.1141416E+00
         21   -1    0    0  501  502  0.00000000000E+00  0.00000000000E+00  0.85266058247E+02  0.85266058247E+02  0.00000000000E+00 0. -1.
         21   -1    0    0  502  503 -0.00000000000E+00 -0.00000000000E+00 -0.51835615376E+03  0.51835615376E+03  0.00000000000E+00 0.  1.
         -6    2    1    2    0  503  0.70427120829E+02  0.97562282164E+02 -0.20222141749E+03  0.29128169266E+03  0.17167744329E+03 0.  0.
        -24    2    3    3    0    0  0.10647115423E+03  0.46012846697E+02 -0.11166526874E+03  0.18092308304E+03  0.82527213633E+02 0.  0.
          6    2    1    2  501    0 -0.70427120829E+02 -0.97562282164E+02 -0.23086867802E+03  0.31234051935E+03  0.17256267061E+03 0.  0.
         24    2    5    5    0    0  0.15291435777E+02 -0.27250245486E+02 -0.15538830596E+03  0.17813608568E+03  0.81305199755E+02 0.  0.
          5    1    5    5  501    0 -0.85718556606E+02 -0.70312036679E+02 -0.75480372062E+02  0.13420443366E+03  0.47000000000E+01 0. -1.
        -11    1    6    6    0    0 -0.22403452517E+02 -0.25961753062E+02 -0.12524227967E+03  0.12985205398E+03  0.00000000000E+00 0.  1.
         12    1    6    6    0    0  0.37694888294E+02 -0.12884924241E+01 -0.30146026284E+02  0.48284031697E+02  0.00000000000E+00 0. -1.
         -5    1    3    3    0  503 -0.36044033397E+02  0.51549435467E+02 -0.90556148751E+02  0.11035860962E+03  0.47000000000E+01 0.  1.
         13    1    4    4    0    0  0.67567466429E+02  0.40446274079E+02 -0.20088869542E+02  0.81270082355E+02  0.00000000000E+00 0. -1.
        -14    1    4    4    0    0  0.38903687797E+02  0.55665726176E+01 -0.91576399201E+02  0.99653000685E+02  0.00000000000E+00 0.  1.
</event>
<event>
12    1  0.8684423E-002  0.2029647E+03  0.7818608E-02  0.1147390E+00
         21   -1    0    0  503  502  0.00000000000E+00  0.00000000000E+00  0.19580254998E+03  0.19580254998E+03  0.00000000000E+00 0. -1.
         21   -1    0    0  501  503 -0.00000000000E+00 -0.00000000000E+00 -0.27697897882E+03  0.27697897882E+03  0.00000000000E+00 0.  1.
          6    2    1    2  501    0 -0.43881459471E+02  0.97162796779E+02 -0.15710209542E+03  0.25666268767E+03  0.17270922180E+03 0.  0.
         24    2    3    3    0    0  0.23604647376E+02  0.94983286830E+02 -0.14123272854E+03  0.18714253458E+03  0.74139331547E+02 0.  0.
         -6    2    1    2    0  502  0.43881459471E+02 -0.97162796779E+02  0.75925666587E+02  0.21611884112E+03  0.17197806569E+03 0.  0.
        -24    2    5    5    0    0  0.63453553403E+02 -0.12732394679E+03  0.50711309481E+02  0.17195306665E+03  0.82209971149E+02 0.  0.
          5    1    3    3  501    0 -0.67486106847E+02  0.21795099497E+01 -0.15869366878E+02  0.69520153093E+02  0.47000000000E+01 0. -1.
        -13    1    4    4    0    0  0.79081919776E+01  0.99895758869E+02 -0.13772926449E+03  0.17032631164E+03  0.00000000000E+00 0.  1.
         14    1    4    4    0    0  0.15696455398E+02 -0.49124720398E+01 -0.35034640584E+01  0.16816222942E+02  0.00000000000E+00 0. -1.
         -5    1    5    5    0  502 -0.19572093932E+02  0.30161150008E+02  0.25214357106E+02  0.44165774475E+02  0.47000000000E+01 0.  1.
         13    1    6    6    0    0  0.47454937257E+02 -0.16928273644E+02  0.25415017325E+01  0.50447960808E+02  0.00000000000E+00 0. -1.
        -14    1    6    6    0    0  0.15998616146E+02 -0.11039567314E+03  0.48169807748E+02  0.12150510584E+03  0.00000000000E+00 0.  1.
</event>
<event>
12    1  0.8684423E-002  0.2853585E+03  0.7818608E-02  0.1092889E+00
         21   -1    0    0  501  502  0.00000000000E+00  0.00000000000E+00  0.70122288116E+03  0.70122288116E+03  0.00000000000E+00 0. -1.
         21   -1    0    0  502  503 -0.00000000000E+00 -0.00000000000E+00 -0.67237666221E+03  0.67237666221E+03  0.00000000000E+00 0.  1.
         -6    2    1    2    0  503  0.22714168052E+03  0.23270572709E+01 -0.61041931324E+03  0.67353534567E+03  0.17157903619E+03 0.  0.
        -24    2    3    3    0    0  0.38845384390E+02  0.30165634839E+02 -0.17589631137E+03  0.19912749298E+03  0.79330427282E+02 0.  0.
          6    2    1    2  501    0 -0.22714168052E+03 -0.23270572709E+01  0.63926553219E+03  0.70006419770E+03  0.17271566819E+03 0.  0.
         24    2    5    5    0    0 -0.22300921708E+02  0.23562682646E+01  0.17728763872E+03  0.19466600414E+03  0.77207921965E+02 0.  0.
          5    1    5    5  501    0 -0.20484075881E+03 -0.46833255354E+01  0.46197789346E+03  0.50539819356E+03  0.47000000000E+01 0. -1.
        -13    1    6    6    0    0  0.80895560350E+01 -0.42435806738E+01  0.15758846056E+03  0.15785300693E+03  0.00000000000E+00 0.  1.
         14    1    6    6    0    0 -0.30390477743E+02  0.65998489384E+01  0.19699178162E+02  0.36812997212E+02  0.00000000000E+00 0. -1.
         -5    1    3    3    0  503  0.18829629613E+03 -0.27838577568E+02 -0.43452300187E+03  0.47440785269E+03  0.47000000000E+01 0.  1.
         11    1    4    4    0    0  0.35562378065E+02 -0.19649706482E+02 -0.55428647092E+02  0.68725021767E+02  0.00000000000E+00 0. -1.
        -12    1    4    4    0    0  0.32830063256E+01  0.49815341321E+02 -0.12046766428E+03  0.13040247121E+03  0.00000000000E+00 0.  1.
</event>
<event>
12    1  0.8684423E-002  0.3454098E+03  0.7818608E-02  0.1064791E+00
         21   -1    0    0  501  502  0.00000000000E+00  0.00000000000E+00  0.68750863610E+03  0.68750863610E+03  0.00000000000E+00 0.  1.
         21   -1    0    0  502  503 -0.00000000000E+00 -0.00000000000E+00 -0.17243462412E+03  0.17243462412E+03  0.00000000000E+00 0.  1.
         -6    2    1    2    0  503  0.32400721037E+02 -0.29470571761E+03  0.27377293585E+03  0.44074881751E+03  0.17721916663E+03 0.  0.
        -24    2    3    3    0    0  0.24030993772E+02 -0.12488396358E+03  0.21072631247E+03  0.25934747464E+03  0.81743750920E+02 0.  0.
          6    2    1    2  501    0 -0.32400721037E+02  0.29470571761E+03  0.24130107613E+03  0.41919444271E+03  0.17203634716E+03 0.  0.
         24    2    5    5    0    0 -0.34493831966E+02  0.31081318657E+03  0.22088620795E+03  0.39268617018E+03  0.87275712520E+02 0.  0.
          5    1    5    5  501    0  0.20931109290E+01 -0.16107468965E+02  0.20414868179E+02  0.26508272531E+02  0.47000000000E+01 0. -1.
        -11    1    6    6    0    0 -0.82733894003E+00  0.14680568720E+03  0.54372596658E+02  0.15655342076E+03  0.00000000000E+00 0.  1.
         12    1    6    6    0    0 -0.33666493026E+02  0.16400749938E+03  0.16651361129E+03  0.23613274942E+03  0.00000000000E+00 0. -1.
         -5    1    3    3    0  503  0.83697272647E+01 -0.16982175403E+03  0.63046623376E+02  0.18140134287E+03  0.47000000000E+01 0.  1.
         13    1    4    4    0    0  0.20662758751E+02  0.48094269709E+01  0.34803573385E+02  0.40759893367E+02  0.00000000000E+00 0. -1.
        -14    1    4    4    0    0  0.33682350216E+01 -0.12969339055E+03  0.17592273908E+03  0.21858758127E+03  0.00000000000E+00 0.  1.
</event>
<event>
12    1  0.8684423E-002  0.1899278E+03  0.7818608E-02  0.1158721E+00
         21   -1    0    0  503  502  0.00000000000E+00  0.00000000000E+00  0.76243953165E+02  0.76243953165E+02  0.00000000000E+00 0. -1.
         21   -1    0    0  501  503 -0.00000000000E+00 -0.00000000000E+00 -0.74340282051E+03  0.74340282051E+03  0.00000000000E+00 0. -1.
          6    2    1    2  501    0  0.74003624574E+02  0.27569478493E+02 -0.58214573333E+03  0.61234486799E+03  0.17273091768E+03 0.  0.
         24    2    3    3    0    0  0.53619694873E+02 -0.33436708126E+02 -0.48581059875E+03  0.49641468404E+03  0.80140598592E+02 0.  0.
         -6    2    1    2    0  502 -0.74003624574E+02 -0.27569478493E+02 -0.85013134015E+02  0.20730190569E+03  0.17178543172E+03 0.  0.
        -24    2    5    5    0    0  0.68488368988E+01  0.60274515490E+01 -0.89658202956E+02  0.11949791432E+03  0.78472424651E+02 0.  0.
          5    1    3    3  501    0  0.20383929700E+02  0.61006186619E+02 -0.96335134583E+02  0.11593018395E+03  0.47000000000E+01 0. -1.
        -13    1    4    4    0    0  0.40923773509E+02  0.12798538663E+01 -0.89928929591E+02  0.98810959117E+02  0.00000000000E+00 0.  1.
         14    1    4    4    0    0  0.12695921365E+02 -0.34716561993E+02 -0.39588166916E+03  0.39760372492E+03  0.00000000000E+00 0. -1.
         -5    1    5    5    0  502 -0.80852461472E+02 -0.33596930042E+02  0.46450689417E+01  0.87803991366E+02  0.47000000000E+01 0.  1.
         11    1    6    6    0    0 -0.15073951689E+02  0.22191076391E+02 -0.11037566358E+01  0.26849323448E+02  0.00000000000E+00 0. -1.
        -12    1    6    6    0    0  0.21922788587E+02 -0.16163624842E+02 -0.88554446321E+02  0.92648590872E+02  0.00000000000E+00 0.  1.
</event>
<event>
12    1  0.8684423E-002  0.1849746E+03  0.7818608E-02  0.1164859E+00
         21   -1    0    0  503  502  0.00000000000E+00  0.00000000000E+00  0.12432356405E+03  0.12432356405E+03  0.00000000000E+00 0.  1.
         21   -1    0    0  501  503 -0.00000000000E+00 -0.00000000000E+00 -0.11060029727E+04  0.11060029727E+04  0.00000000000E+00 0.  1.
          6    2    1    2  501    0 -0.58201765571E+02  0.54116372638E+01 -0.10250757083E+04  0.10403295882E+04  0.16759687691E+03 0.  0.
         24    2    3    3    0    0  0.16994530601E+02  0.34751431988E+02 -0.69099983737E+03  0.69660864906E+03  0.79286560053E+02 0.  0.
         -6    2    1    2    0  502  0.58201765571E+02 -0.54116372638E+01  0.43396299639E+02  0.18999694849E+03  0.17549606913E+03 0.  0.
        -24    2    5    5    0    0  0.47284933544E+02 -0.31648678289E+02 -0.35411823887E+02  0.10609003652E+03  0.82241077330E+02 0.  0.
          5    1    3    3  501    0 -0.75196296173E+02 -0.29339794724E+02 -0.33407587089E+03  0.34372093917E+03  0.47000000000E+01 0. -1.
        -13    1    4    4    0    0 -0.26588370808E+02  0.35702939011E+02 -0.36660947624E+03  0.36930224666E+03  0.00000000000E+00 0.  1.
         14    1    4    4    0    0  0.43582901410E+02 -0.95150702310E+00 -0.32439036112E+03  0.32730640240E+03  0.00000000000E+00 0. -1.
         -5    1    5    5    0  502  0.10916832027E+02  0.26237041025E+02  0.78808123526E+02  0.83906911974E+02  0.47000000000E+01 0.  1.
         13    1    6    6    0    0  0.47983528150E+02  0.16908419267E+02 -0.23756673773E+02  0.56148848293E+02  0.00000000000E+00 0. -1.
        -14    1    6    6    0    0 -0.69859460577E+00 -0.48557097556E+02 -0.11655150114E+02  0.49941188228E+02  0.00000000000E+00 0.  1.
</event>
<event>
12    1  0.8684423E-002  0.2075802E+03  0.7818608E-02  0.1143528E+00
         21   -1    0    0  501  502  0.00000000000E+00  0.00000000000E+00  0.37047986308E+03  0.37047986308E+03  0.00000000000E+00 0. -1.
         21   -1    0    0  502  503 -0.00000000000E+00 -0.00000000000E+00 -0.21676253544E+03  0.21676253544E+03  0.00000000000E+00 0. -1.
         -6    2    1    2    0  503  0.10013414461E+02  0.11535740369E+03 -0.12309842818E+03  0.24133533948E+03  0.17228442763E+03 0.  0.
        -24    2    3    3    0    0  0.48239261038E+02  0.10919659579E+03 -0.13866037417E+03  0.19934206545E+03  0.79117866841E+02 0.  0.
          6    2    1    2  501    0 -0.10013414461E+02 -0.11535740369E+03  0.27681575583E+03  0.34590705905E+03  0.17209628633E+03 0.  0.
         24    2    5    5    0    0  0.25345096821E+02 -0.13494139046E+03  0.18238819706E+03  0.24308483036E+03  0.83505853279E+02 0.  0.
          5    1    5    5  501    0 -0.35358511282E+02  0.19583986769E+02  0.94427558771E+02  0.10282222869E+03  0.47000000000E+01 0. -1.
        -13    1    6    6    0    0  0.32507712901E+02 -0.79148538349E+01  0.36628353452E+02  0.49608795449E+02  0.00000000000E+00 0.  1.
         14    1    6    6    0    0 -0.71626160796E+01 -0.12702653663E+03  0.14575984360E+03  0.19347603491E+03  0.00000000000E+00 0. -1.
         -5    1    3    3    0  503 -0.38225846577E+02  0.61608079053E+01  0.15561945992E+02  0.41993274029E+02  0.47000000000E+01 0.  1.
         11    1    4    4    0    0  0.47482639064E+02  0.55134824375E+02 -0.31447797519E+02  0.79267987486E+02  0.00000000000E+00 0. -1.
        -12    1    4    4    0    0  0.75662197427E+00  0.54061771413E+02 -0.10721257666E+03  0.12007407796E+03  0.00000000000E+00 0.  1.
</event>
<event>
12    1  0.8684423E-002  0.1962202E+03  0.7818608E-02  0.1153019E+00
         21   -1    0    0  501  502  0.00000000000E+00  0.00000000000E+00  0.11447018507E+03  0.11447018507E+03  0.00000000000E+00 0.  1.
         21   -1    0    0  502  503 -0.00000000000E+00 -0.00000000000E+00 -0.37069822694E+03  0.37069822694E+03  0.00000000000E+00 0.  1.
         -6    2    1    2    0  503 -0.18954590730E+02  0.91837049100E+02 -0.53913176171E+02  0.20349197628E+03  0.17236308696E+03 0.  0.
        -24    2    3    3    0    0 -0.74733314360E+02  0.80530061498E+02 -0.10808544994E+02  0.13194329909E+03  0.72263756131E+02 0.  0.
          6    2    1    2  501    0  0.18954590730E+02 -0.91837049100E+02 -0.20231486570E+03  0.28167643574E+03  0.17209587289E+03 0.  0.
         24    2    5    5    0    0  0.30568742676E+02 -0.24865359084E+01 -0.16527305544E+03  0.18414393633E+03  0.75187602322E+02 0.  0.
          5    1    5    5  501    0 -0.11614151946E+02 -0.89350513192E+02 -0.37041810265E+02  0.97532499408E+02  0.47000000000E+01 0. -1.
        -11    1    6    6    0    0  0.10701159597E+01 -0.23372086836E+02 -0.11294323733E+02  0.25980018088E+02  0.00000000000E+00 0.  1.
         12    1    6    6    0    0  0.29498626717E+02  0.20885550928E+02 -0.15397873170E+03  0.15816391824E+03  0.00000000000E+00 0. -1.
         -5    1    3    3    0  503  0.55778723629E+02  0.11306987602E+02 -0.43104631177E+02  0.71548677187E+02  0.47000000000E+01 0.  1.
         11    1    4    4    0    0 -0.17252332156E+02  0.30024265517E+02  0.29471341321E+02  0.45471523439E+02  0.00000000000E+00 0. -1.
        -12    1    4    4    0    0 -0.57480982204E+02  0.50505795981E+02 -0.40279886315E+02  0.86471775652E+02  0.00000000000E+00 0.  1.
</event>
<event>
12    1  0.8684423E-002  0.1882686E+03  0.7818608E-02  0.1160381E+00
         21   -1    0    0  501  502  0.00000000000E+00  0.00000000000E+00  0.37995314524E+03  0.37995314524E+03  0.00000000000E+00 0.  1.
         21   -1    0    0  502  503 -0.00000000000E+00 -0.00000000000E+00 -0.10135008558E+03  0.10135008558E+03  0.00000000000E+00 0. -1.
         -6    2    1    2    0  503 -0.60283257809E+02  0.47493414985E+02  0.20975553868E+03  0.28084117646E+03  0.17024889060E+03 0.  0.
        -24    2    3    3    0    0  0.29969799012E+02  0.22670043854E+02  0.92400298582E+02  0.13065410512E+03  0.84383412266E+02 0.  0.
          6    2    1    2  501    0  0.60283257809E+02 -0.47493414985E+02  0.68847520979E+02  0.20046205436E+03  0.17191671953E+03 0.  0.
         24    2    5    5    0    0  0.34235998337E+02  0.26748486777E+02 -0.56362148439E+01  0.92017429755E+02  0.80918819405E+02 0.  0.
          5    1    5    5  501    0  0.26047259473E+02 -0.74241901762E+02  0.74483735823E+02  0.10844462460E+03  0.47000000000E+01 0. -1.
        -11    1    6    6    0    0  0.36844279955E+02 -0.18319365026E+02  0.13038952715E+02  0.43163808778E+02  0.00000000000E+00 0.  1.
         12    1    6    6    0    0 -0.26082816185E+01  0.45067851803E+02 -0.18675167558E+02  0.48853620976E+02  0.00000000000E+00 0. -1.
         -5    1    3    3    0  503 -0.90253056821E+02  0.24823371131E+02  0.11735524009E+03  0.15018707134E+03  0.47000000000E+01 0.  1.
         13    1    4    4    0    0  0.28975931777E+02 -0.27745909991E+02  0.28292257351E+02  0.49090650531E+02  0.00000000000E+00 0. -1.
        -14    1    4    4    0    0  0.99386723489E+00  0.50415953845E+02  0.64108041231E+02  0.81563454590E+02  0.00000000000E+00 0.  1.
</event>
<event>
12    1  0.8684423E-002  0.2997970E+03  0.7818608E-02  0.1085399E+00
         21   -1    0    0  501  502  0.00000000000E+00  0.00000000000E+00  0.89712908019E+02  0.89712908019E+02  0.00000000000E+00 0.  1.
         21   -1    0    0  502  503 -0.00000000000E+00 -0.00000000000E+00 -0.10268651569E+04  0.10268651569E+04  0.00000000000E+00 0. -1.
         -6    2    1    2    0  503 -0.21746981259E+03  0.11004814581E+03 -0.37849166443E+03  0.48255922833E+03  0.17379227550E+03 0.  0.
        -24    2    3    3    0    0 -0.12203542842E+03  0.46942548925E+02 -0.99601734231E+02  0.18107668953E+03  0.75973767443E+02 0.  0.
          6    2    1    2  501    0  0.21746981259E+03 -0.11004814581E+03 -0.55866058443E+03  0.63401883656E+03  0.17456953552E+03 0.  0.
         24    2    5    5    0    0  0.19643816437E+03 -0.28756894696E+02 -0.43842189653E+03  0.48728768853E+03  0.76292991941E+02 0.  0.
          5    1    5    5  501    0  0.21031648224E+02 -0.81291251118E+02 -0.12023868789E+03  0.14673114803E+03  0.47000000000E+01 0. -1.
        -13    1    6    6    0    0  0.48431590437E+02 -0.33960314153E+02 -0.80159351056E+02  0.99621500950E+02  0.00000000000E+00 0.  1.
         14    1    6    6    0    0  0.14800657393E+03  0.52034194578E+01 -0.35826254548E+03  0.38766618758E+03  0.00000000000E+00 0. -1.
         -5    1    3    3    0  503 -0.95434384178E+02  0.63105596888E+02 -0.27888993019E+03  0.30148253881E+03  0.47000000000E+01 0.  1.
         11    1    4    4    0    0 -0.48784469382E+02 -0.16013755938E+02 -0.53146207574E+02  0.73897795716E+02  0.00000000000E+00 0. -1.
        -12    1    4    4    0    0 -0.73250959033E+02  0.62956304863E+02 -0.46455526657E+02  0.10717889381E+03  0.00000000000E+00 0.  1.
</event>
<event>
12    1  0.8684423E-002  0.2958025E+03  0.7818608E-02  0.1087474E+00
         21   -1    0    0  503  502  0.00000000000E+00  0.00000000000E+00  0.30701477227E+03  0.30701477227E+03  0.00000000000E+00 0.  1.
         21   -1    0    0  501  503 -0.00000000000E+00 -0.00000000000E+00 -0.91285932482E+03  0.91285932482E+03  0.00000000000E+00 0.  1.
          6    2    1    2  501    0 -0.32805763927E+02  0.23844739996E+03 -0.80926112767E+03  0.86162793846E+03  0.17194694209E+03 0.  0.
         24    2    3    3    0    0 -0.43190390260E+02  0.39767925409E+02 -0.14134263015E+03  0.16469280275E+03  0.60820082839E+02 0.  0.
         -6    2    1    2    0  502  0.32805763927E+02 -0.23844739996E+03  0.20341657511E+03  0.35824615863E+03  0.17037789307E+03 0.  0.
        -24    2    5    5    0    0  0.57856001443E+02 -0.90547392423E+02  0.14207059759E+03  0.19611243114E+03  0.82035868820E+02 0.  0.
          5    1    3    3  501    0  0.10384626333E+02  0.19867947455E+03 -0.66791849751E+03  0.69693513571E+03  0.47000000000E+01 0. -1.
        -11    1    4    4    0    0 -0.58659502314E+02  0.33708464578E+02 -0.10801172749E+03  0.12745089670E+03  0.00000000000E+00 0.  1.
         12    1    4    4    0    0  0.15469112054E+02  0.60594608316E+01 -0.33330902668E+02  0.37241906046E+02  0.00000000000E+00 0. -1.
         -5    1    5    5    0  502 -0.25050237516E+02 -0.14790000754E+03  0.61345977521E+02  0.16213372748E+03  0.47000000000E+01 0.  1.
         13    1    6    6    0    0 -0.59123576015E+01  0.12575680872E+02  0.16200773880E+02  0.21344057630E+02  0.00000000000E+00 0. -1.
        -14    1    6    6    0    0  0.63768359044E+02 -0.10312307329E+03  0.12586982371E+03  0.17476837351E+03  0.00000000000E+00 0.  1.
</event>
<event>
12    1  0.8684423E-002  0.2110134E+03  0.7818608E-02  0.1142196E+00
         21   -1    0    0  501  502  0.00000000000E+00  0.00000000000E+00  0.17759914201E+03  0.17759914201E+03  0.00000000000E+00 0.  1.
         21   -1    0    0  502  503 -0.00000000000E+00 -0.00000000000E+00 -0.24314032735E+03  0.24314032735E+03  0.00000000000E+00 0.  1.
         -6    2    1    2    0  503 -0.56987003287E+02  0.10803041465E+03 -0.21024625814E+02  0.21205820989E+03  0.17207138187E+03 0.  0.
        -24    2    3    3    0    0 -0.38402094609E+02  0.25210950079E+02  0.47378317348E+02  0.10294581290E+03  0.79011534383E+02 0.  0.
          6    2    1    2  501    0  0.56987003287E+02 -0.10803041465E+03 -0.44516559527E+02  0.20868125947E+03  0.16324231973E+03 0.  0.
         24    2    5    5    0    0  0.82014895250E+02 -0.12752638610E+03 -0.41713397353E+02  0.17648753342E+03  0.80115040665E+02 0.  0.
          5    1    5    5  501    0 -0.25027891962E+02  0.19495971450E+02 -0.28031621742E+01  0.32193726051E+02  0.47000000000E+01 0. -1.
        -11    1    6    6    0    0  0.56760006595E+02 -0.20141680477E+02 -0.59512683537E+01  0.60521097447E+02  0.00000000000E+00 0.  1.
         12    1    6    6    0    0  0.25254888654E+02 -0.10738470562E+03 -0.35762128999E+02  0.11596643598E+03  0.00000000000E+00 0. -1.
         -5    1    3    3    0  503 -0.18584908678E+02  0.82819464570E+02 -0.68402943162E+02  0.10911239698E+03  0.47000000000E+01 0.  1.
         13    1    4    4    0    0 -0.30036811109E+02 -0.25206163377E+02  0.28455477211E+02  0.48448682924E+02  0.00000000000E+00 0. -1.
        -14    1    4    4    0    0 -0.83652835007E+01  0.50417113456E+02  0.18922840137E+02  0.54497129980E+02  0.00000000000E+00 0.  1.
</event>
<event>
12    1  0.8684423E-002  0.1817956E+03  0.7818608E-02  0.1166305E+00
         21   -1    0    0  503  502  0.00000000000E+00  0.00000000000E+00  0.88421287498E+02  0.88421287498E+02  0.00000000000E+00 0.  1.
         21   -1    0    0  501  503 -0.00000000000E+00 -0.00000000000E+00 -0.37247314523E+03  0.37247314523E+03  0.00000000000E+00 0.  1.
          6    2    1    2  501    0 -0.53206353305E+02  0.82063969530E+01 -0.13274093416E+03  0.22509953196E+03  0.17364153508E+03 0.  0.
         24    2    3    3    0    0 -0.88095933789E+01  0.53044991088E+01 -0.15542691841E+03  0.17493742291E+03  0.79623038895E+02 0.  0.
         -6    2    1    2    0  502  0.53206353305E+02 -0.82063969530E+01 -0.15131092356E+03  0.23579490076E+03  0.17264408085E+03 0.  0.
        -24    2    5    5    0    0  0.29075601477E+02 -0.66833708797E+02 -0.12312181715E+03  0.16625231958E+03  0.84668274295E+02 0.  0.
          5    1    3    3  501    0 -0.44396759926E+02  0.29018978442E+01  0.22685984246E+02  0.50162109049E+02  0.47000000000E+01 0. -1.
        -11    1    4    4    0    0 -0.40252910507E+02 -0.12519122029E+02 -0.64108088881E+02  0.76725955716E+02  0.00000000000E+00 0.  1.
         12    1    4    4    0    0  0.31443317128E+02  0.17823621138E+02 -0.91318829528E+02  0.98211467196E+02  0.00000000000E+00 0. -1.
         -5    1    5    5    0  502  0.24130751829E+02  0.58627311844E+02 -0.28189106410E+02  0.69542581187E+02  0.47000000000E+01 0.  1.
         11    1    6    6    0    0 -0.11668042675E+02 -0.64881051780E+02 -0.50816190973E+02  0.83234484229E+02  0.00000000000E+00 0. -1.
        -12    1    6    6    0    0  0.40743644151E+02 -0.19526570174E+01 -0.72305626182E+02  0.83017835347E+02  0.00000000000E+00 0.  1.
</event>
<event>
12    1  0.8684423E-002  0.2006646E+03  0.7818608E-02  0.1150190E+00
         21   -1    0    0  501  502  0.00000000000E+00  0.00000000000E+00  0.12070314957E+04  0.12070314957E+04  0.00000000000E+00 0. -1.
         21   -1    0    0  502  503 -0.00000000000E+00 -0.00000000000E+00 -0.33494674872E+02  0.33494674872E+02  0.00000000000E+00 0. -1.
         -6    2    1    2    0  503 -0.69369254941E+02  0.61860116770E+02  0.69638025765E+03  0.72471492955E+03  0.17784121651E+03 0.  0.
        -24    2    3    3    0    0 -0.10395025189E+03  0.45269802330E+02  0.35732081603E+03  0.38346065656E+03  0.80677752129E+02 0.  0.
          6    2    1    2  501    0  0.69369254941E+02 -0.61860116770E+02  0.47715656313E+03  0.51581124097E+03  0.17246472972E+03 0.  0.
         24    2    5    5    0    0  0.40179502159E+02  0.23433900025E+02  0.14538092555E+03  0.17197367080E+03  0.79219883056E+02 0.  0.
          5    1    5    5  501    0  0.29189752782E+02 -0.85294016796E+02  0.33177563758E+03  0.34383757017E+03  0.47000000000E+01 0. -1.
        -11    1    6    6    0    0 -0.63340904232E+01 -0.23911535189E+02  0.49848344358E+02  0.55648357135E+02  0.00000000000E+00 0.  1.
         12    1    6    6    0    0  0.46513592582E+02  0.47345435215E+02  0.95532581190E+02  0.11632531367E+03  0.00000000000E+00 0. -1.
         -5    1    3    3    0  503  0.34580996951E+02  0.16590314440E+02  0.33905944162E+03  0.34125427300E+03  0.47000000000E+01 0.  1.
         11    1    4    4    0    0 -0.90507918502E+02  0.60293234174E+02  0.33970815244E+03  0.35669116366E+03  0.00000000000E+00 0. -1.
        -12    1    4    4    0    0 -0.13442333390E+02 -0.15023431844E+02  0.17612663591E+02  0.26769492900E+02  0.00000000000E+00 0.  1.
</event>
<event>
12    1  0.8684423E-002  0.2434854E+03  0.7818608E-02  0.1117532E+00
         21   -1    0    0  503  502  0.00000000000E+00  0.00000000000E+00  0.91747912043E+03  0.91747912043E+03  0.00000000000E+00 0. -1.
         21   -1    0    0  501  503 -0.00000000000E+00 -0.00000000000E+00 -0.68132588158E+02  0.68132588158E+02  0.00000000000E+00 0. -1.
          6    2    1    2  501    0  0.16948708102E+03 -0.34174980072E+02  0.31152279505E+03  0.39523936320E+03  0.17109617905E+03 0.  0.
         24    2    3    3    0    0  0.13500899843E+03  0.38250546763E+02  0.22822083292E+03  0.27950042415E+03  0.79656792156E+02 0.  0.
         -6    2    1    2    0  502 -0.16948708102E+03  0.34174980072E+02  0.53782373722E+03  0.59037234539E+03  0.17143900954E+03 0.  0.
        -24    2    5    5    0    0 -0.15955743749E+03 -0.23716052390E+02  0.34858677899E+03  0.39217374343E+03  0.79161073442E+02 0.  0.
          5    1    3    3  501    0  0.34478082585E+02 -0.72425526835E+02  0.83301962138E+02  0.11573893905E+03  0.47000000000E+01 0. -1.
        -13    1    4    4    0    0  0.45923400882E+02  0.32736779457E+02  0.15200928692E+03  0.16213413826E+03  0.00000000000E+00 0.  1.
         14    1    4    4    0    0  0.89085597552E+02  0.55137673061E+01  0.76211545993E+02  0.11736628589E+03  0.00000000000E+00 0. -1.
         -5    1    5    5    0  502 -0.99296435289E+01  0.57891032462E+02  0.18923695823E+03  0.19819860196E+03  0.47000000000E+01 0.  1.
         13    1    6    6    0    0 -0.11558324528E+03 -0.27072272219E+02  0.16439669861E+03  0.20277738786E+03  0.00000000000E+00 0. -1.
        -14    1    6    6    0    0 -0.43974192206E+02  0.33562198288E+01  0.18419008039E+03  0.18939635557E+03  0.00000000000E+00 0.  1.
</event>
<event>
12    1  0.8684423E-002  0.1821509E+03  0.7818608E-02  0.1165914E+00
         21   -1    0    0  503  502  0.00000000000E+00  0.00000000000E+00  0.13062838305E+04  0.13062838305E+04  0.00000000000E+00 0. -1.
         21   -1    0    0  501  503 -0.00000000000E+00 -0.00000000000E+00 -0.30868316881E+02  0.30868316881E+02  0.00000000000E+00 0. -1.
          6    2    1    2  501    0  0.38893678421E+01  0.57771387484E+02  0.35472578263E+03  0.39875974274E+03  0.17270289857E+03 0.  0.
         24    2    3    3    0    0  0.21601749538E+02  0.38069762762E+01  0.32278269141E+03  0.33342723001E+03  0.80646904402E+02 0.  0.
         -6    2    1    2    0  502 -0.38893678421E+01 -0.57771387484E+02  0.92068973095E+03  0.93839240460E+03  0.17192458796E+03 0.  0.
        -24    2    5    5    0    0  0.52795600501E+02 -0.68802312497E+02  0.50292472455E+03  0.51662877706E+03  0.80317377255E+02 0.  0.
          5    1    3    3  501    0 -0.17712381696E+02  0.53964411208E+02  0.31943091220E+02  0.65332512726E+02  0.47000000000E+01 0. -1.
        -13    1    4    4    0    0  0.46688840663E+02  0.98778422415E+01  0.27508306789E+03  0.27919189431E+03  0.00000000000E+00 0.  1.
         14    1    4    4    0    0 -0.25087091125E+02 -0.60708659653E+01  0.47699623514E+02  0.54235335696E+02  0.00000000000E+00 0. -1.
         -5    1    5    5    0  502 -0.56684968343E+02  0.11030925013E+02  0.41776500640E+03  0.42176362754E+03  0.47000000000E+01 0.  1.
         13    1    6    6    0    0  0.53906068729E+02 -0.15460515445E+02  0.15921134410E+03  0.16879912285E+03  0.00000000000E+00 0. -1.
        -14    1    6    6    0    0 -0.11104682279E+01 -0.53341797052E+02  0.34371338045E+03  0.34782965421E+03  0.00000000000E+00 0.  1.
</event>
<event>
12    1  0.8684423E-002  0.2043453E+03  0.7818608E-02  0.1146636E+00
         21   -1    0    0  501  502  0.00000000000E+00  0.00000000000E+00  0.29038223241E+03  0.29038223241E+03  0.00000000000E+00 0.  1.
         21   -1    0    0  502  503 -0.00000000000E+00 -0.00000000000E+00 -0.17459830070E+03  0.17459830070E+03  0.00000000000E+00 0. -1.
         -6    2    1    2    0  503 -0.60746239493E+02  0.87550056500E+02 -0.42183035124E+02  0.20865379306E+03  0.17436134578E+03 0.  0.
        -24    2    3    3    0    0 -0.14179067884E+02  0.29283702201E+02 -0.85709131682E+02  0.12216633388E+03  0.80746372664E+02 0.  0.
          6    2    1    2  501    0  0.60746239493E+02 -0.87550056500E+02  0.15796696684E+03  0.25632674005E+03  0.17144887589E+03 0.  0.
         24    2    5    5    0    0  0.74753725978E+02 -0.74077104290E+02  0.39722459405E+02  0.13640349936E+03  0.77152471957E+02 0.  0.
          5    1    5    5  501    0 -0.14007486485E+02 -0.13472952211E+02  0.11824450743E+03  0.11992324069E+03  0.47000000000E+01 0. -1.
        -13    1    6    6    0    0  0.66343831761E+00 -0.14540362456E+02  0.38704258903E+02  0.41350718833E+02  0.00000000000E+00 0.  1.
         14    1    6    6    0    0  0.74090287661E+02 -0.59536741834E+02  0.10182005021E+01  0.95052780528E+02  0.00000000000E+00 0. -1.
         -5    1    3    3    0  503 -0.46567171609E+02  0.58266354300E+02  0.43526096558E+02  0.86487459187E+02  0.47000000000E+01 0.  1.
         13    1    4    4    0    0 -0.28600722819E+01  0.56720888891E+02 -0.49413282660E+02  0.75280221528E+02  0.00000000000E+00 0. -1.
        -14    1    4    4    0    0 -0.11318995602E+02 -0.27437186690E+02 -0.36295849022E+02  0.46886112348E+02  0.00000000000E+00 0.  1.
</event>
<event>
12    1  0.8684423E-002  0.2295548E+03  0.7818608E-02  0.1127510E+00
         21   -1    0    0  501  502  0.00000000000E+00  0.00000000000E+00  0.21163969286E+03  0.21163969286E+03  0.00000000000E+00 0.  1.
         21   -1    0    0  502  503 -0.00000000000E+00 -0.00000000000E+00 -0.28264852886E+03  0.28264852886E+03  0.00000000000E+00 0. -1.
         -6    2    1    2    0  503 -0.61736857922E+02  0.13913477845E+03 -0.12519108809E+03  0.26147319531E+03  0.17182984936E+03 0.  0.
        -24    2    3    3    0    0 -0.45754831014E+01  0.56756227021E+02  0.25976144406E+01  0.98974915321E+02  0.80914040257E+02 0.  0.
          6    2    1    2  501    0  0.61736857922E+02 -0.13913477845E+03  0.54182252095E+02  0.23281502640E+03  0.16762217597E+03 0.  0.
         24    2    5    5    0    0 -0.16107943853E+02 -0.74120964496E+02  0.70017920017E+02  0.13005575652E+03  0.79111361054E+02 0.  0.
          5    1    5    5  501    0  0.77844801775E+02 -0.65013813953E+02 -0.15835667922E+02  0.10275926988E+03  0.47000000000E+01 0. -1.
        -11    1    6    6    0    0 -0.31036974779E+02 -0.44978485409E+02  0.79039678999E+02  0.96091772849E+02  0.00000000000E+00 0.  1.
         12    1    6    6    0    0  0.14929030926E+02 -0.29142479087E+02 -0.90217589821E+01  0.33963983672E+02  0.00000000000E+00 0. -1.
         -5    1    3    3    0  503 -0.57161374821E+02  0.82378551429E+02 -0.12778870253E+03  0.16249827999E+03  0.47000000000E+01 0.  1.
         11    1    4    4    0    0 -0.34307715050E+02  0.27987688037E+02 -0.23433925844E+02  0.50094699062E+02  0.00000000000E+00 0. -1.
        -12    1    4    4    0    0  0.29732231949E+02  0.28768538984E+02  0.26031540285E+02  0.48880216259E+02  0.00000000000E+00 0.  1.
</event>
<event>
12    1  0.8684423E-002  0.1938330E+03  0.7818608E-02  0.1155095E+00
         21   -1    0    0  501  502  0.00000000000E+00  0.00000000000E+00  0.99601984445E+03  0.99601984445E+03  0.00000000000E+00 0. -1.
         21   -1    0    0  502  503 -0.00000000000E+00 -0.00000000000E+00 -0.48502912798E+02  0.48502912798E+02  0.00000000000E+00 0. -1.
         -6    2    1    2    0  503 -0.74460249288E+02  0.44143116494E+02  0.22726163936E+03  0.29869565569E+03  0.17343096189E+03 0.  0.
        -24    2    3    3    0    0 -0.19793685173E+02 -0.32122738779E+02  0.16144744997E+03  0.18398510065E+03  0.79759499979E+02 0.  0.
          6    2    1    2  501    0  0.74460249288E+02 -0.44143116494E+02  0.72025529228E+03  0.74582710156E+03  0.17319767867E+03 0.  0.
         24    2    5    5    0    0  0.67111111367E+02 -0.66726951322E+02  0.70854637738E+03  0.71893420079E+03  0.76629164564E+02 0.  0.
          5    1    5    5  501    0  0.73491379216E+01  0.22583834828E+02  0.11708914906E+02  0.26892900773E+02  0.47000000000E+01 0. -1.
        -13    1    6    6    0    0  0.13511179964E+02 -0.26612168073E+02  0.60729283169E+02  0.67666870090E+02  0.00000000000E+00 0.  1.
         14    1    6    6    0    0  0.53599931403E+02 -0.40114783248E+02  0.64781709421E+03  0.65126733069E+03  0.00000000000E+00 0. -1.
         -5    1    3    3    0  503 -0.54666564115E+02  0.76265855273E+02  0.65814189389E+02  0.11471055504E+03  0.47000000000E+01 0.  1.
         13    1    4    4    0    0  0.21944983666E+02 -0.16191550550E+02  0.15534257457E+02  0.31385693748E+02  0.00000000000E+00 0. -1.
        -14    1    4    4    0    0 -0.41738668839E+02 -0.15931188228E+02  0.14591319252E+03  0.15259940690E+03  0.00000000000E+00 0.  1.
</event>
<event>
12    1  0.8684423E-002  0.2584396E+03  0.7818608E-02  0.1108115E+00
         21   -1    0    0  503  502  0.00000000000E+00  0.00000000000E+00  0.23011569050E+04  0.23011569050E+04  0.00000000000E+00 0.  1.
         21   -1    0    0  501  503 -0.00000000000E+00 -0.00000000000E+00 -0.10415416816E+03  0.10415416816E+03  0.00000000000E+00 0. -1.
          6    2    1    2  501    0  0.12957139780E+03  0.14296315407E+03  0.77040245643E+02  0.26967799908E+03  0.17194130740E+03 0.  0.
         24    2    3    3    0    0  0.16362124621E+02  0.11215753464E+03  0.22965722174E+02  0.14040514884E+03  0.79618777478E+02 0.  0.
         -6    2    1    2    0  502 -0.12957139780E+03 -0.14296315407E+03  0.21199624912E+04  0.21356330740E+04  0.17164047432E+03 0.  0.
        -24    2    5    5    0    0 -0.15405823231E+03 -0.13732189623E+03  0.16160747660E+04  0.16310972889E+04  0.78673214065E+02 0.  0.
          5    1    3    3  501    0  0.11320927318E+03  0.30805619430E+02  0.54074523469E+02  0.12927285024E+03  0.47000000000E+01 0. -1.
        -13    1    4    4    0    0  0.14467365325E+02 -0.62686633792E+01  0.14893394718E+02  0.21689029628E+02  0.00000000000E+00 0.  1.
         14    1    4    4    0    0  0.18947592968E+01  0.11842619802E+03  0.80723274565E+01  0.11871611921E+03  0.00000000000E+00 0. -1.
         -5    1    5    5    0  502  0.24486834517E+02 -0.56412578399E+01  0.50388772516E+03  0.50453578508E+03  0.47000000000E+01 0.  1.
         11    1    6    6    0    0 -0.13239807958E+03 -0.12297559106E+03  0.11325252547E+04  0.11468503390E+04  0.00000000000E+00 0. -1.
        -12    1    6    6    0    0 -0.21660152737E+02 -0.14346305174E+02  0.48354951132E+03  0.48424695000E+03  0.00000000000E+00 0.  1.
</event>
<event>
12    1  0.8684423E-002  0.2283342E+03  0.7818608E-02  0.1128192E+00
         21   -1    0    0  503  502  0.00000000000E+00  0.00000000000E+00  0.49215206856E+03  0.49215206856E+03  0.00000000000E+00 0. -1.
         21   -1    0    0  501  503 -0.00000000000E+00 -0.00000000000E+00 -0.14310936789E+03  0.14310936789E+03  0.00000000000E+00 0.  1.
          6    2    1    2  501    0 -0.13325714612E+03  0.62536987531E+02  0.11129814982E+02  0.22860531443E+03  0.17455135405E+03 0.  0.
         24    2    3    3    0    0 -0.13686146764E+03  0.88164966611E+02 -0.26150662531E+02  0.18297957116E+03  0.79331857715E+02 0.  0.
         -6    2    1    2    0  502  0.13325714612E+03 -0.62536987531E+02  0.33791288569E+03  0.40665612202E+03  0.17180145943E+03 0.  0.
        -24    2    5    5    0    0  0.11663365414E+03  0.31666172422E+01  0.29330174008E+03  0.32538159663E+03  0.78954644876E+02 0.  0.
          5    1    3    3  501    0  0.36043215189E+01 -0.25627979081E+02  0.37280477513E+02  0.45625743270E+02  0.47000000000E+01 0. -1.
        -11    1    4    4    0    0 -0.14651358434E+03  0.74559008331E+02 -0.22846592313E+02  0.16597362110E+03  0.00000000000E+00 0.  1.
         12    1    4    4    0    0  0.96521167002E+01  0.13605958281E+02 -0.33040702179E+01  0.17005950063E+02  0.00000000000E+00 0. -1.
         -5    1    5    5    0  502  0.16623491983E+02 -0.65703604773E+02  0.44611145612E+02  0.81274525398E+02  0.47000000000E+01 0.  1.
         11    1    6    6    0    0  0.87035829083E+02  0.29095579001E+02  0.14220742795E+03  0.16924757259E+03  0.00000000000E+00 0. -1.
        -12    1    6    6    0    0  0.29597825054E+02 -0.25928961759E+02  0.15109431213E+03  0.15613402404E+03  0.00000000000E+00 0.  1.
</event>
<event>
12    1  0.8684423E-002  0.2000935E+03  0.7818608E-02  0.1149699E+00
         21   -1    0    0  503  502  0.00000000000E+00  0.00000000000E+00  0.17301554639E+03  0.17301554639E+03  0.00000000000E+00 0.  1.
         21   -1    0    0  501  503 -0.00000000000E+00 -0.00000000000E+00 -0.30642990512E+03  0.30642990512E+03  0.00000000000E+00 0.  1.
          6    2    1    2  501    0  0.50221799080E+02  0.88818010268E+02 -0.18546660121E+03  0.27269232312E+03  0.17190804191E+03 0.  0.
         24    2    3    3    0    0 -0.28529629278E+02  0.68618907339E+02 -0.62347902961E+02  0.12507763860E+03  0.78959866283E+02 0.  0.
         -6    2    1    2    0  502 -0.50221799080E+02 -0.88818010268E+02  0.52052242476E+02  0.20675312838E+03  0.17212365351E+03 0.  0.
        -24    2    5    5    0    0  0.11784965043E+01 -0.18851981794E+02 -0.30571948343E+02  0.86811132257E+02  0.79023683707E+02 0.  0.
          5    1    3    3  501    0  0.78751428358E+02  0.20199102930E+02 -0.12311869825E+03  0.14761468452E+03  0.47000000000E+01 0. -1.
        -11    1    4    4    0    0 -0.24507809192E+02  0.36176461184E+02 -0.77559049118E+02  0.89021206211E+02  0.00000000000E+00 0.  1.
         12    1    4    4    0    0 -0.40218200866E+01  0.32442446155E+02  0.15211146157E+02  0.36056432390E+02  0.00000000000E+00 0. -1.
         -5    1    5    5    0  502 -0.51400295584E+02 -0.69966028474E+02  0.82624190819E+02  0.11994199613E+03  0.47000000000E+01 0.  1.
         11    1    6    6    0    0 -0.26660099012E+02 -0.28596704074E+02 -0.39914324124E+02  0.55872046978E+02  0.00000000000E+00 0. -1.
        -12    1    6    6    0    0  0.27838595517E+02  0.97447222798E+01  0.93423757809E+01  0.30939085279E+02  0.00000000000E+00 0.  1.
</event>
<event>
12    1  0.8684423E-002  0.2134455E+03  0.7818608E-02  0.1139325E+00
         21   -1    0    0  501  502  0.00000000000E+00  0.00000000000E+00  0.25991169119E+03  0.25991169119E+03  0.00000000000E+00 0. -1.
         21   -1    0    0  502  503 -0.00000000000E+00 -0.00000000000E+00 -0.21480963656E+03  0.21480963656E+03  0.00000000000E+00 0. -1.
         -6    2    1    2    0  503 -0.11168031745E+03  0.59072037269E+02 -0.81815587956E+02  0.22639281243E+03  0.16910918425E+03 0.  0.
        -24    2    3    3    0    0 -0.92457770169E+01  0.70025250251E+02 -0.37907861107E+02  0.11430897584E+03  0.81489361018E+02 0.  0.
          6    2    1    2  501    0  0.11168031745E+03 -0.59072037269E+02  0.12691764259E+03  0.24832851532E+03  0.17203768374E+03 0.  0.
         24    2    5    5    0    0  0.11519719034E+03 -0.55372655306E+01  0.13343750780E+03  0.19407965521E+03  0.80995617845E+02 0.  0.
          5    1    5    5  501    0 -0.35168728869E+01 -0.53534771739E+02 -0.65198652073E+01  0.54248860102E+02  0.47000000000E+01 0. -1.
        -13    1    6    6    0    0 -0.10110932854E+02  0.96270963922E+01  0.78225195836E+01  0.16003242195E+02  0.00000000000E+00 0.  1.
         14    1    6    6    0    0  0.12530812319E+03 -0.15164361923E+02  0.12561498821E+03  0.17807641302E+03  0.00000000000E+00 0. -1.
         -5    1    3    3    0  503 -0.10243454043E+03 -0.10953212982E+02 -0.43907726849E+02  0.11208383659E+03  0.47000000000E+01 0.  1.
         13    1    4    4    0    0 -0.20236099647E+02  0.26212672370E+02 -0.56478254469E+02  0.65470582322E+02  0.00000000000E+00 0. -1.
        -14    1    4    4    0    0  0.10990322630E+02  0.43812577881E+02  0.18570393362E+02  0.48838393521E+02  0.00000000000E+00 0.  1.
</event>
<event>
12    1  0.8684423E-002  0.2020585E+03  0.7818608E-02  0.1148338E+00
         21   -1    0    0  503  502  0.00000000000E+00  0.00000000000E+00  0.48640679903E+02  0.48640679903E+02  0.00000000000E+00 0. -1.
         21   -1    0    0  501  503 -0.00000000000E+00 -0.00000000000E+00 -0.88854582249E+03  0.88854582249E+03  0.00000000000E+00 0. -1.
          6    2    1    2  501    0 -0.10089352417E+03 -0.25118158503E+02 -0.53868589055E+03  0.57533479641E+03  0.17325476668E+03 0.  0.
         24    2    3    3    0    0 -0.71478465366E+02  0.38237230721E+02 -0.30478705525E+03  0.33118339629E+03  0.10107440874E+03 0.  0.
         -6    2    1    2    0  502  0.10089352417E+03  0.25118158503E+02 -0.30121925203E+03  0.36185170598E+03  0.17144443479E+03 0.  0.
        -24    2    5    5    0    0  0.30603105682E+02  0.35588038273E+02 -0.61085911299E+02  0.11137920720E+03  0.80441162918E+02 0.  0.
          5    1    3    3  501    0 -0.29415058800E+02 -0.63355389224E+02 -0.23389883530E+03  0.24415140012E+03  0.47000000000E+01 0. -1.
        -11    1    4    4    0    0 -0.86824787733E+01  0.38442989361E+02 -0.23079569445E+03  0.23413650173E+03  0.00000000000E+00 0.  1.
         12    1    4    4    0    0 -0.62795986593E+02 -0.20575864032E+00 -0.73991360806E+02  0.97046894555E+02  0.00000000000E+00 0. -1.
         -5    1    5    5    0  502  0.70290418484E+02 -0.10469879770E+02 -0.24013334073E+03  0.25047249878E+03  0.47000000000E+01 0.  1.
         13    1    6    6    0    0  0.23067999216E+02  0.61262749518E+02 -0.50190320206E+02  0.82488334380E+02  0.00000000000E+00 0. -1.
        -14    1    6    6    0    0  0.75351064652E+01 -0.25674711245E+02 -0.10895591093E+02  0.28890872819E+02  0.00000000000E+00 0.  1.
</event>
<event>
12    1  0.8684423E-002  0.2211740E+03  0.7818608E-02  0.1133056E+00
         21   -1    0    0  501  502  0.00000000000E+00  0.00000000000E+00  0.56864071378E+02  0.56864071378E+02  0.00000000000E+00 0.  1.
         21   -1    0    0  502  503 -0.00000000000E+00 -0.00000000000E+00 -0.14503594871E+04  0.14503594871E+04  0.00000000000E+00 0. -1.
         -6    2    1    2    0  503 -0.41822380783E+02 -0.13211696436E+03 -0.11776031075E+04  0.11981484329E+04  0.17206564031E+03 0.  0.
        -24    2    3    3    0    0 -0.85339591892E+01 -0.25337351405E+02 -0.79890331586E+03  0.80324891787E+03  0.79041167320E+02 0.  0.
          6    2    1    2  501    0  0.41822380783E+02  0.13211696436E+03 -0.21589230827E+03  0.30907512567E+03  0.17237732081E+03 0.  0.
         24    2    5    5    0    0  0.85579294748E+02  0.91827835079E+02 -0.19539656296E+03  0.24598751172E+03  0.81079418591E+02 0.  0.
          5    1    5    5  501    0 -0.43756913965E+02  0.40289129277E+02 -0.20495745310E+02  0.63087613947E+02  0.47000000000E+01 0. -1.
        -11    1    6    6    0    0  0.74775947073E+02  0.90110360297E+02 -0.11252890800E+03  0.16240096807E+03  0.00000000000E+00 0.  1.
         12    1    6    6    0    0  0.10803347675E+02  0.17174747819E+01 -0.82867654962E+02  0.83586543651E+02  0.00000000000E+00 0. -1.
         -5    1    3    3    0  503 -0.33288421594E+02 -0.10677961295E+03 -0.37869979164E+03  0.39489951499E+03  0.47000000000E+01 0.  1.
         13    1    4    4    0    0  0.25060753602E+02 -0.39664587519E+02 -0.44943317165E+03  0.45187553226E+03  0.00000000000E+00 0. -1.
        -14    1    4    4    0    0 -0.33594712791E+02  0.14327236113E+02 -0.34947014421E+03  0.35137338561E+03  0.00000000000E+00 0.  1.
</event>
<event>
12    1  0.8684423E-002  0.1967776E+03  0.7818608E-02  0.1152495E+00
         21   -1    0    0  503  502  0.00000000000E+00  0.00000000000E+00  0.43812671317E+03  0.43812671317E+03  0.00000000000E+00 0.  1.
         21   -1    0    0  501  503 -0.00000000000E+00 -0.00000000000E+00 -0.20338028037E+03  0.20338028037E+03  0.00000000000E+00 0.  1.
          6    2    1    2  501    0  0.21705515430E+02 -0.93921652172E+02 -0.12383488451E+03  0.23250051565E+03  0.17154884147E+03 0.  0.
         24    2    3    3    0    0  0.21061648748E+02 -0.13291621057E+03 -0.10858551614E+03  0.19036236922E+03  0.79603424673E+02 0.  0.
         -6    2    1    2    0  502 -0.21705515430E+02  0.93921652172E+02  0.35858131732E+03  0.40900647789E+03  0.17150315354E+03 0.  0.
        -24    2    5    5    0    0 -0.73297030314E+02  0.92527981080E+02  0.27057797324E+03  0.30687761176E+03  0.83830466181E+02 0.  0.
          5    1    3    3  501    0  0.64386668181E+00  0.38994558398E+02 -0.15249368377E+02  0.42138146434E+02  0.47000000000E+01 0. -1.
        -13    1    4    4    0    0  0.40409043195E+02 -0.28157463543E+02 -0.26898886352E+02  0.56118478348E+02  0.00000000000E+00 0.  1.
         14    1    4    4    0    0 -0.19347394447E+02 -0.10475874703E+03 -0.81686629785E+02  0.13424389087E+03  0.00000000000E+00 0. -1.
         -5    1    5    5    0  502  0.51591514885E+02  0.13936710916E+01  0.88003344079E+02  0.10212886613E+03  0.47000000000E+01 0.  1.
         13    1    6    6    0    0  0.11413229476E+02  0.12930404208E+02  0.66469914074E+01  0.18483496824E+02  0.00000000000E+00 0. -1.
        -14    1    6    6    0    0 -0.84710259791E+02  0.79597576873E+02  0.26393098184E+03  0.28839411494E+03  0.00000000000E+00 0.  1.
</event>
<event>
12    1  0.8684423E-002  0.1948383E+03  0.7818608E-02  0.1154264E+00
         21   -1    0    0  501  502  0.00000000000E+00  0.00000000000E+00  0.13297911949E+03  0.13297911949E+03  0.00000000000E+00 0.  1.
         21   -1    0    0  502  503 -0.00000000000E+00 -0.00000000000E+00 -0.28512571887E+03  0.28512571887E+03  0.00000000000E+00 0.  1.
         -6    2    1    2    0  503 -0.15462155087E+02  0.89704857773E+02 -0.82866346235E+02  0.21172814126E+03  0.17226704478E+03 0.  0.
        -24    2    3    3    0    0 -0.77072691429E+02  0.52852154612E+02 -0.45176011018E+02  0.13050849286E+03  0.79107804448E+02 0.  0.
          6    2    1    2  501    0  0.15462155087E+02 -0.89704857773E+02 -0.69280253148E+02  0.20637669709E+03  0.17177179012E+03 0.  0.
         24    2    5    5    0    0 -0.41326583459E+02 -0.94752444290E+02 -0.22559344737E+02  0.13251620537E+03  0.79785389958E+02 0.  0.
          5    1    5    5  501    0  0.56788738546E+02  0.50475865173E+01 -0.46720908412E+02  0.73860491727E+02  0.47000000000E+01 0. -1.
        -11    1    6    6    0    0 -0.43896491520E+01 -0.67520731596E+02  0.19342749103E+02  0.70373717806E+02  0.00000000000E+00 0.  1.
         12    1    6    6    0    0 -0.36936934307E+02 -0.27231712694E+02 -0.41902093840E+02  0.62142487562E+02  0.00000000000E+00 0. -1.
         -5    1    3    3    0  503  0.61610536342E+02  0.36852703160E+02 -0.37690335217E+02  0.81219648407E+02  0.47000000000E+01 0.  1.
         11    1    4    4    0    0 -0.35642918267E+02 -0.17908341589E+02 -0.90304040622E+01  0.40898343715E+02  0.00000000000E+00 0. -1.
        -12    1    4    4    0    0 -0.41429773162E+02  0.70760496201E+02 -0.36145606956E+02  0.89610149141E+02  0.00000000000E+00 0.  1.
</event>
<event>
12    1  0.8684423E-002  0.2286117E+03  0.7818608E-02  0.1127648E+00
         21   -1    0    0  503  502  0.00000000000E+00  0.00000000000E+00  0.42042387772E+03  0.42042387772E+03  0.00000000000E+00 0. -1.
         21   -1    0    0  501  503 -0.00000000000E+00 -0.00000000000E+00 -0.12799112514E+03  0.12799112514E+03  0.00000000000E+00 0.  1.
          6    2    1    2  501    0 -0.87727146452E+02 -0.12262799465E+03  0.19318420090E+03  0.29918903654E+03  0.17163993362E+03 0.  0.
         24    2    3    3    0    0 -0.10259272037E+03 -0.13025625469E+03  0.10373761185E+03  0.20807395584E+03  0.71002259308E+02 0.  0.
         -6    2    1    2    0  502  0.87727146452E+02  0.12262799465E+03  0.99248551682E+02  0.24922596632E+03  0.17184187493E+03 0.  0.
        -24    2    5    5    0    0  0.22262537457E+01  0.28998538617E+01  0.49118977552E+02  0.93725823066E+02  0.79740144190E+02 0.  0.
          5    1    3    3  501    0  0.14865573916E+02  0.76282600433E+01  0.89446589054E+02  0.91115080709E+02  0.47000000000E+01 0. -1.
        -13    1    4    4    0    0 -0.49625415835E+02 -0.10166122113E+03  0.94029902838E+02  0.14710305369E+03  0.00000000000E+00 0.  1.
         14    1    4    4    0    0 -0.52967304533E+02 -0.28595033561E+02  0.97077090102E+01  0.60970902143E+02  0.00000000000E+00 0. -1.
         -5    1    5    5    0  502  0.85500892706E+02  0.11972814078E+03  0.50129574130E+02  0.15550014325E+03  0.47000000000E+01 0.  1.
         13    1    6    6    0    0  0.16996517242E+02  0.37747537946E+02  0.31265625693E+02  0.51877717465E+02  0.00000000000E+00 0. -1.
        -14    1    6    6    0    0 -0.14770263496E+02 -0.34847684085E+02  0.17853351859E+02  0.41848105601E+02  0.00000000000E+00 0.  1.
</event>
<event>
12    1  0.8684423E-002  0.1747235E+03  0.7818608E-02  0.1173320E+00
         21   -1    0    0  501  502  0.00000000000E+00  0.00000000000E+00  0.56168095238E+03  0.56168095238E+03  0.00000000000E+00 0.  1.
         21   -1    0    0  502  503 -0.00000000000E+00 -0.00000000000E+00 -0.61053969342E+02  0.61053969342E+02  0.00000000000E+00 0. -1.
         -6    2    1    2    0  503  0.20797258198E+02  0.16151388584E+02  0.14503730291E+03  0.22707731892E+03  0.17272780966E+03 0.  0.
        -24    2    3    3    0    0  0.57340749332E+02  0.11860320263E+02  0.28058063426E+02  0.10435783195E+03  0.81698674626E+02 0.  0.
          6    2    1    2  501    0 -0.20797258198E+02 -0.16151388584E+02  0.35558968013E+03  0.39565760280E+03  0.17148622318E+03 0.  0.
         24    2    5    5    0    0 -0.66762191236E+02 -0.43936625001E+02  0.28676873038E+03  0.30823216282E+03  0.79894582281E+02 0.  0.
          5    1    5    5  501    0  0.45964933039E+02  0.27785236417E+02  0.68820949747E+02  0.87425439982E+02  0.47000000000E+01 0. -1.
        -11    1    6    6    0    0  0.12241799405E+02 -0.88021035063E+01  0.11443484881E+03  0.11542388531E+03  0.00000000000E+00 0.  1.
         12    1    6    6    0    0 -0.79003990641E+02 -0.35134521495E+02  0.17233388157E+03  0.19280827751E+03  0.00000000000E+00 0. -1.
         -5    1    3    3    0  503 -0.36543491134E+02  0.42910683216E+01  0.11697923949E+03  0.12271948697E+03  0.47000000000E+01 0.  1.
         11    1    4    4    0    0  0.26387019836E+02 -0.34520891028E+02  0.40220284262E+01  0.43636492135E+02  0.00000000000E+00 0. -1.
        -12    1    4    4    0    0  0.30953729496E+02  0.46381211291E+02  0.24036035000E+02  0.60721339816E+02  0.00000000000E+00 0.  1.
</event>
<event>
12    1  0.8684423E-002  0.1990565E+03  0.7818608E-02  0.1150673E+00
         21   -1    0    0  503  502  0.00000000000E+00  0.00000000000E+00  0.24682159927E+03  0.24682159927E+03  0.00000000000E+00 0. -1.
         21   -1    0    0  501  503 -0.00000000000E+00 -0.00000000000E+00 -0.24259615611E+03  0.24259615611E+03  0.00000000000E+00 0. -1.
          6    2    1    2  501    0  0.39318324037E+02 -0.93207165416E+02 -0.14065249423E+03  0.24373469454E+03  0.17143503406E+03 0.  0.
         24    2    3    3    0    0 -0.24612388491E+02 -0.10130970963E+03 -0.70820409941E+02  0.14859586324E+03  0.78713233800E+02 0.  0.
         -6    2    1    2    0  502 -0.39318324037E+02  0.93207165416E+02  0.14487793739E+03  0.24568306083E+03  0.17069576253E+03 0.  0.
        -24    2    5    5    0    0  0.27744246353E+02  0.16152148724E+02  0.10424791436E+03  0.13564782685E+03  0.80635415101E+02 0.  0.
          5    1    3    3  501    0  0.63930712528E+02  0.81025442096E+01 -0.69832084285E+02  0.95138831308E+02  0.47000000000E+01 0. -1.
        -13    1    4    4    0    0  0.17461904648E+02 -0.68974611539E+02 -0.17289793015E+02  0.73221254383E+02  0.00000000000E+00 0.  1.
         14    1    4    4    0    0 -0.42074293139E+02 -0.32335098087E+02 -0.53530616926E+02  0.75374608854E+02  0.00000000000E+00 0. -1.
         -5    1    5    5    0  502 -0.67062570390E+02  0.77055016692E+02  0.40630023035E+02  0.11003523398E+03  0.47000000000E+01 0.  1.
         11    1    6    6    0    0  0.49151107373E+02  0.21338268066E+02  0.99656220220E+02  0.11314820047E+03  0.00000000000E+00 0. -1.
        -12    1    6    6    0    0 -0.21406861020E+02 -0.51861193424E+01  0.45916941361E+01  0.22499626388E+02  0.00000000000E+00 0.  1.
</event>
<event>
12    1  0.8684423E-002  0.3581996E+03  0.7818608E-02  0.1059627E+00
         21   -1    0    0  503  502  0.00000000000E+00  0.00000000000E+00  0.21594121391E+03  0.21594121391E+03  0.00000000000E+00 0.  1.
         21   -1    0    0  501  503 -0.00000000000E+00 -0.00000000000E+00 -0.17457494421E+04  0.17457494421E+04  0.00000000000E+00 0. -1.
          6    2    1    2  501    0 -0.30079304730E+03  0.76804864218E+02 -0.15645916996E+04  0.16050713882E+04  0.17869395751E+03 0.  0.
         24    2    3    3    0    0 -0.27227002919E+03  0.95145395900E+02 -0.11202092116E+04  0.11593721361E+04  0.78047788020E+02 0.  0.
         -6    2    1    2    0  502  0.30079304730E+03 -0.76804864218E+02  0.34783471382E+02  0.35661926779E+03  0.17202316067E+03 0.  0.
        -24    2    5    5    0    0  0.26198849431E+03 -0.65783489142E+02 -0.26880971293E+02  0.28278257277E+03  0.79233567696E+02 0.  0.
          5    1    3    3  501    0 -0.28523018109E+02 -0.18340531681E+02 -0.44438248801E+03  0.44569925209E+03  0.47000000000E+01 0. -1.
        -11    1    4    4    0    0 -0.83513099137E+02 -0.70161281665E+01 -0.34043702027E+03  0.35060095343E+03  0.00000000000E+00 0.  1.
         12    1    4    4    0    0 -0.18875693005E+03  0.10216152407E+03 -0.77977219131E+03  0.80877118271E+03  0.00000000000E+00 0. -1.
         -5    1    5    5    0  502  0.38804552988E+02 -0.11021375076E+02  0.61664442676E+02  0.73836695021E+02  0.47000000000E+01 0.  1.
         11    1    6    6    0    0  0.99614855193E+02  0.95103642076E+01  0.81718750940E+01  0.10040092602E+03  0.00000000000E+00 0. -1.
        -12    1    6    6    0    0  0.16237363912E+03 -0.75293853350E+02 -0.35052846387E+02  0.18238164675E+03  0.00000000000E+00 0.  1.
</event>
<event>
12    1  0.8684423E-002  0.2449653E+03  0.7818608E-02  0.1116589E+00
         21   -1    0    0  503  502  0.00000000000E+00  0.00000000000E+00  0.12035748511E+04  0.12035748511E+04  0.00000000000E+00 0.  1.
         21   -1    0    0  501  503 -0.00000000000E+00 -0.00000000000E+00 -0.12716777976E+03  0.12716777976E+03  0.00000000000E+00 0. -1.
          6    2    1    2  501    0  0.14748493493E+03 -0.92517466522E+02  0.18997744414E+02  0.24532912170E+03  0.17179690340E+03 0.  0.
         24    2    3    3    0    0  0.57750465025E+02 -0.10175100623E+03 -0.26714765628E+02  0.14409050793E+03  0.79749685227E+02 0.  0.
         -6    2    1    2    0  502 -0.14748493493E+03  0.92517466522E+02  0.10574093269E+04  0.10854135091E+04  0.17232734419E+03 0.  0.
        -24    2    5    5    0    0 -0.12584928998E+02  0.62537846758E+02  0.55040421152E+03  0.55989180052E+03  0.80403168589E+02 0.  0.
          5    1    3    3  501    0  0.89734469905E+02  0.92335397033E+01  0.45712510042E+02  0.10123861377E+03  0.47000000000E+01 0. -1.
        -11    1    4    4    0    0  0.16935144057E+02  0.11826871246E+02 -0.92477118926E+00  0.20676778992E+02  0.00000000000E+00 0.  1.
         12    1    4    4    0    0  0.40815320968E+02 -0.11357787747E+03 -0.25789994439E+02  0.12341372894E+03  0.00000000000E+00 0. -1.
         -5    1    5    5    0  502 -0.13490000593E+03  0.29979619765E+02  0.50700511539E+03  0.52552170862E+03  0.47000000000E+01 0.  1.
         13    1    6    6    0    0  0.59379698617E+01  0.14405061002E+01  0.33906076384E+03  0.33911581520E+03  0.00000000000E+00 0. -1.
        -14    1    6    6    0    0 -0.18522898859E+02  0.61097340657E+02  0.21134344768E+03  0.22077598532E+03  0.00000000000E+00 0.  1.
</event>
<event>
12    1  0.8684423E-002  0.2673559E+03  0.7818608E-02  0.1102835E+00
         21   -1    0    0  503  502  0.00000000000E+00  0.00000000000E+00  0.38502259894E+03  0.38502259894E+03  0.00000000000E+00 0. -1.
         21   -1    0    0  501  503 -0.00000000000E+00 -0.00000000000E+00 -0.40907578381E+03  0.40907578381E+03  0.00000000000E+00 0.  1.
          6    2    1    2  501    0 -0.17140851414E+03 -0.11079680543E+03 -0.30556065948E+03  0.40586441434E+03  0.17234208830E+03 0.  0.
         24    2    3    3    0    0 -0.66533817035E+02 -0.26037337014E+02 -0.22162458523E+03  0.24696122326E+03  0.82266015364E+02 0.  0.
         -6    2    1    2    0  502  0.17140851414E+03  0.11079680543E+03  0.28150747460E+03  0.38823396840E+03  0.17269147389E+03 0.  0.
        -24    2    5    5    0    0  0.11931970677E+03  0.45902518538E+02  0.79660073821E+02  0.16985591199E+03  0.78492482716E+02 0.  0.
          5    1    3    3  501    0 -0.10487469710E+03 -0.84759468419E+02 -0.83936074242E+02  0.15890319109E+03  0.47000000000E+01 0. -1.
        -11    1    4    4    0    0 -0.78101678933E+02 -0.22057786858E+02 -0.12162277973E+03  0.14621394859E+03  0.00000000000E+00 0.  1.
         12    1    4    4    0    0  0.11567861899E+02 -0.39795501562E+01 -0.10000180550E+03  0.10074727467E+03  0.00000000000E+00 0. -1.
         -5    1    5    5    0  502  0.52088807365E+02  0.64894286895E+02  0.20184740078E+03  0.21837805642E+03  0.47000000000E+01 0.  1.
         13    1    6    6    0    0  0.39495261446E+02  0.51846297589E+02  0.57206694165E+02  0.86720932349E+02  0.00000000000E+00 0. -1.
        -14    1    6    6    0    0  0.79824445326E+02 -0.59437790504E+01  0.22453379656E+02  0.83134979636E+02  0.00000000000E+00 0.  1.
</event>
<event>
12    1  0.8684423E-002  0.1799448E+03  0.7818608E-02  0.1168975E+00
         21   -1    0    0  501  502  0.00000000000E+00  0.00000000000E+00  0.18554881609E+03  0.18554881609E+03  0.00000000000E+00 0. -1.
         21   -1    0    0  502  503 -0.00000000000E+00 -0.00000000000E+00 -0.49951962832E+03  0.49951962832E+03  0.00000000000E+00 0. -1.
         -6    2    1    2    0  503 -0.86963080186E+01 -0.30905871408E+02 -0.43582163408E+03  0.47150889765E+03  0.17705746289E+03 0.  0.
        -24    2    3    3    0    0  0.53000173669E+02 -0.29133667725E+02 -0.35807667667E+03  0.37213100794E+03  0.81269869547E+02 0.  0.
          6    2    1    2  501    0  0.86963080186E+01  0.30905871408E+02  0.12185082185E+03  0.21355954677E+03  0.17242174622E+03 0.  0.
         24    2    5    5    0    0 -0.19375914416E+02  0.62261324012E+02  0.23180661249E+02  0.10618587833E+03  0.80536942914E+02 0.  0.
          5    1    5    5  501    0  0.28072222435E+02 -0.31355452604E+02  0.98670160598E+02  0.10737366843E+03  0.47000000000E+01 0. -1.
        -13    1    6    6    0    0 -0.10913450565E+01  0.52692449968E+02  0.49795728786E+02  0.72507240486E+02  0.00000000000E+00 0.  1.
         14    1    6    6    0    0 -0.18284569360E+02  0.95688740441E+01 -0.26615067537E+02  0.33678637845E+02  0.00000000000E+00 0. -1.
         -5    1    3    3    0  503 -0.61696481688E+02 -0.17722036828E+01 -0.77744957416E+02  0.99377889705E+02  0.47000000000E+01 0.  1.
         11    1    4    4    0    0 -0.18446867173E+02 -0.14251233117E+02 -0.45217028448E+02  0.50872037659E+02  0.00000000000E+00 0. -1.
        -12    1    4    4    0    0  0.71447040842E+02 -0.14882434608E+02 -0.31285964822E+03  0.32125897028E+03  0.00000000000E+00 0.  1.
</event>
<event>
12    1  0.8684423E-002  0.1886008E+03  0.7818608E-02  0.1160158E+00
         21   -1    0    0  501  502  0.00000000000E+00  0.00000000000E+00  0.33006913817E+03  0.33006913817E+03  0.00000000000E+00 0. -1.
         21   -1    0    0  502  503 -0.00000000000E+00 -0.00000000000E+00 -0.21196959963E+03  0.21196959963E+03  0.00000000000E+00 0.  1.
         -6    2    1    2    0  503 -0.75054864629E+02  0.13500021941E+02 -0.13179391339E+03  0.23008670390E+03  0.17249571707E+03 0.  0.
        -24    2    3    3    0    0 -0.32825143613E+01 -0.22091923015E+02 -0.12519555986E+03  0.14956537084E+03  0.78721305766E+02 0.  0.
          6    2    1    2  501    0  0.75054864629E+02 -0.13500021941E+02  0.24989345194E+03  0.31195203390E+03  0.17044603497E+03 0.  0.
         24    2    5    5    0    0  0.82083378634E+02 -0.30508063092E+02  0.26315824049E+03  0.28878485694E+03  0.80473667129E+02 0.  0.
          5    1    5    5  501    0 -0.70285140050E+01  0.17008041151E+02 -0.13264788551E+02  0.23167176958E+02  0.47000000000E+01 0. -1.
        -11    1    6    6    0    0  0.39573969884E+02 -0.10629954629E+02  0.29576460949E+02  0.50535750416E+02  0.00000000000E+00 0.  1.
         12    1    6    6    0    0  0.42509408750E+02 -0.19878108463E+02  0.23358177954E+03  0.23824910653E+03  0.00000000000E+00 0. -1.
         -5    1    3    3    0  503 -0.71772350268E+02  0.35591944956E+02 -0.65983535272E+01  0.80521333062E+02  0.47000000000E+01 0.  1.
         11    1    4    4    0    0  0.94078196411E+01 -0.98221599886E+01  0.76145805887E+01  0.15587294017E+02  0.00000000000E+00 0. -1.
        -12    1    4    4    0    0 -0.12690334002E+02 -0.12269763027E+02 -0.13281014045E+03  0.13397807682E+03  0.00000000000E+00 0.  1.
</event>
<event>
12    1  0.8684423E-002  0.1967847E+03  0.7818608E-02  0.1152615E+00
         21   -1    0    0  503  502  0.00000000000E+00  0.00000000000E+00  0.46330981113E+02  0.46330981113E+02  0.00000000000E+00 0. -1.
         21   -1    0    0  501  503 -0.00000000000E+00 -0.00000000000E+00 -0.87933172714E+03  0.87933172714E+03  0.00000000000E+00 0.  1.
          6    2    1    2  501    0  0.15234333217E+02  0.93694816373E+02 -0.52316908624E+03  0.55895446325E+03  0.17237573979E+03 0.  0.
         24    2    3    3    0    0  0.69265460363E+02  0.60874139966E+02 -0.42375526707E+03  0.44104875117E+03  0.80325024861E+02 0.  0.
         -6    2    1    2    0  502 -0.15234333217E+02 -0.93694816373E+02 -0.30983165979E+03  0.36670824501E+03  0.17166384600E+03 0.  0.
        -24    2    5    5    0    0  0.46205227577E+02 -0.80948155235E+02 -0.25659089832E+03  0.28428272904E+03  0.79311121772E+02 0.  0.
          5    1    3    3  501    0 -0.54031127146E+02  0.32820676408E+02 -0.99413819163E+02  0.11790571208E+03  0.47000000000E+01 0. -1.
        -11    1    4    4    0    0  0.29732039933E+02  0.22311067221E+02 -0.45364946662E+02  0.58649435673E+02  0.00000000000E+00 0.  1.
         12    1    4    4    0    0  0.39533420430E+02  0.38563072745E+02 -0.37839032041E+03  0.38239931549E+03  0.00000000000E+00 0. -1.
         -5    1    5    5    0  502 -0.61439560794E+02 -0.12746661139E+02 -0.53240761472E+02  0.82425515970E+02  0.47000000000E+01 0.  1.
         13    1    6    6    0    0 -0.21606699622E+02 -0.32507799684E+02 -0.83870819096E+02  0.92509030935E+02  0.00000000000E+00 0. -1.
        -14    1    6    6    0    0  0.67811927199E+02 -0.48440355551E+02 -0.17272007922E+03  0.19177369810E+03  0.00000000000E+00 0.  1.
</event>
<event>
12    1  0.8684423E-002  0.1829972E+03  0.7818608E-02  0.1166296E+00
         21   -1    0    0  501  502  0.00000000000E+00  0.00000000000E+00  0.91659184589E+03  0.91659184589E+03  0.00000000000E+00 0.  1.
         21   -1    0    0  502  503 -0.00000000000E+00 -0.00000000000E+00 -0.37933232285E+02  0.37933232285E+02  0.00000000000E+00 0.  1.
         -6    2    1    2    0  503  0.52214084950E+02 -0.33206634652E+02  0.32280254284E+03  0.37106529780E+03  0.17221783390E+03 0.  0.
        -24    2    3    3    0    0  0.20125583359E+02  0.22235026037E+02  0.69582900693E+02  0.10982646675E+03  0.79502435451E+02 0.  0.
          6    2    1    2  501    0 -0.52214084950E+02  0.33206634652E+02  0.55585607077E+03  0.58345978038E+03  0.16619372029E+03 0.  0.
         24    2    5    5    0    0 -0.27422042641E+02  0.79906671458E+02  0.22509024438E+03  0.24846177933E+03  0.62694442412E+02 0.  0.
          5    1    5    5  501    0 -0.24792042309E+02 -0.46700036806E+02  0.33076582639E+03  0.33499800105E+03  0.47000000000E+01 0. -1.
        -11    1    6    6    0    0 -0.32677599531E+02  0.61405162148E+02  0.21649511043E+03  0.22739514570E+03  0.00000000000E+00 0.  1.
         12    1    6    6    0    0  0.52555568893E+01  0.18501509310E+02  0.85951339501E+01  0.21066633632E+02  0.00000000000E+00 0. -1.
         -5    1    3    3    0  503  0.32088501591E+02 -0.55441660689E+02  0.25321964215E+03  0.26123883104E+03  0.47000000000E+01 0.  1.
         11    1    4    4    0    0  0.52888606911E+01  0.49084811524E+02  0.24027938143E+02  0.54905669845E+02  0.00000000000E+00 0. -1.
        -12    1    4    4    0    0  0.14836722668E+02 -0.26849785488E+02  0.45554962550E+02  0.54920796909E+02  0.00000000000E+00 0.  1.
</event>
<event>
12    1  0.8684423E-002  0.2927549E+03  0.7818608E-02  0.1088973E+00
         21   -1    0    0  501  502  0.00000000000E+00  0.00000000000E+00  0.14404986900E+03  0.14404986900E+03  0.00000000000E+00 0.  1.
         21   -1    0    0  502  503 -0.00000000000E+00 -0.00000000000E+00 -0.60706700421E+03  0.60706700421E+03  0.00000000000E+00 0. -1.
         -6    2    1    2    0  503  0.19859207456E+03  0.12851716744E+03 -0.28650761482E+03  0.40962424443E+03  0.17248169141E+03 0.  0.
        -24    2    3    3    0    0  0.17412704785E+03  0.56909993443E+02 -0.26199836357E+03  0.32994414468E+03  0.81615071819E+02 0.  0.
          6    2    1    2  501    0 -0.19859207456E+03 -0.12851716744E+03 -0.17650952039E+03  0.34149262878E+03  0.17177348548E+03 0.  0.
         24    2    5    5    0    0 -0.21304586778E+03 -0.13342523554E+03 -0.13371460236E+03  0.29581444711E+03  0.80223169833E+02 0.  0.
          5    1    5    5  501    0  0.14453793219E+02  0.49080681031E+01 -0.42794918031E+02  0.45678181665E+02  0.47000000000E+01 0. -1.
        -13    1    6    6    0    0 -0.78799014970E+02 -0.19283400688E+02 -0.12851020168E+02  0.82135759701E+02  0.00000000000E+00 0.  1.
         14    1    6    6    0    0 -0.13424685281E+03 -0.11414183485E+03 -0.12086358219E+03  0.21367868741E+03  0.00000000000E+00 0. -1.
         -5    1    3    3    0  503  0.24465026714E+02  0.71607173994E+02 -0.24509251248E+02  0.79680099750E+02  0.47000000000E+01 0.  1.
         13    1    4    4    0    0  0.14166454713E+03  0.66777686098E+02 -0.16643348112E+03  0.22853491399E+03  0.00000000000E+00 0. -1.
        -14    1    4    4    0    0  0.32462500718E+02 -0.98676926547E+01 -0.95564882454E+02  0.10140923069E+03  0.00000000000E+00 0.  1.
</event>
<event>
12    1  0.8684423E-002  0.1907978E+03  0.7818608E-02  0.1157754E+00
         21   -1    0    0  503  502  0.00000000000E+00  0.00000000000E+00  0.28960974245E+03  0.28960974245E+03  0.00000000000E+00 0. -1.
         21   -1    0    0  501  503 -0.00000000000E+00 -0.00000000000E+00 -0.19272012172E+03  0.19272012172E+03  0.00000000000E+00 0.  1.
          6    2    1    2  501    0 -0.29111477245E+02  0.77075017706E+02 -0.93801541533E+02  0.21260884076E+03  0.17209228197E+03 0.  0.
         24    2    3    3    0    0 -0.67071462045E+02  0.26847881673E+02 -0.10510915330E+02  0.10809499453E+03  0.79716113372E+02 0.  0.
         -6    2    1    2    0  502  0.29111477245E+02 -0.77075017706E+02  0.19069116226E+03  0.26972102341E+03  0.17204149106E+03 0.  0.
        -24    2    5    5    0    0  0.41348882817E+02 -0.10572627640E+03  0.19311543122E+03  0.23812014051E+03  0.80745624710E+02 0.  0.
          5    1    3    3  501    0  0.37959984800E+02  0.50227136033E+02 -0.83290626203E+02  0.10451384623E+03  0.47000000000E+01 0. -1.
        -11    1    4    4    0    0 -0.63701476380E+02  0.50765637069E+02 -0.16723787681E+02  0.83154753769E+02  0.00000000000E+00 0.  1.
         12    1    4    4    0    0 -0.33699856645E+01 -0.23917755396E+02  0.62128723504E+01  0.24940240765E+02  0.00000000000E+00 0. -1.
         -5    1    5    5    0  502 -0.12237405572E+02  0.28651258695E+02 -0.24242689659E+01  0.31600882898E+02  0.47000000000E+01 0.  1.
         13    1    6    6    0    0  0.54218409794E+02 -0.54588139408E+02  0.69315963885E+02  0.10355773160E+03  0.00000000000E+00 0. -1.
        -14    1    6    6    0    0 -0.12869526977E+02 -0.51138136992E+02  0.12379946734E+03  0.13456240891E+03  0.00000000000E+00 0.  1.
</event>
<event>
12    1  0.8684423E-002  0.1968565E+03  0.7818608E-02  0.1152694E+00
         21   -1    0    0  501  502  0.00000000000E+00  0.00000000000E+00  0.92202439238E+02  0.92202439238E+02  0.00000000000E+00 0. -1.
         21   -1    0    0  502  503 -0.00000000000E+00 -0.00000000000E+00 -0.19361620917E+04  0.19361620917E+04  0.00000000000E+00 0.  1.
         -6    2    1    2    0  503  0.78744717349E+02  0.49324018123E+02 -0.18208050186E+04  0.18314156853E+04  0.17354799751E+03 0.  0.
        -24    2    3    3    0    0  0.96893877951E+02  0.87729990417E+02 -0.13508746867E+04  0.13595459813E+04  0.80111680222E+02 0.  0.
          6    2    1    2  501    0 -0.78744717349E+02 -0.49324018123E+02 -0.23154633918E+02  0.19694884567E+03  0.17210206699E+03 0.  0.
         24    2    5    5    0    0 -0.39019791113E+02  0.29684420459E+02 -0.48292881309E+02  0.10489220759E+03  0.79160999942E+02 0.  0.
          5    1    5    5  501    0 -0.39724926236E+02 -0.79008438581E+02  0.25138247391E+02  0.92056638073E+02  0.47000000000E+01 0. -1.
        -13    1    6    6    0    0 -0.26071266716E+02  0.56172003743E+02 -0.23046576534E+02  0.66076846494E+02  0.00000000000E+00 0.  1.
         14    1    6    6    0    0 -0.12948524398E+02 -0.26487583285E+02 -0.25246304775E+02  0.38815361097E+02  0.00000000000E+00 0. -1.
         -5    1    3    3    0  503 -0.18149160602E+02 -0.38405972294E+02 -0.46993033187E+03  0.47186970400E+03  0.47000000000E+01 0.  1.
         11    1    4    4    0    0 -0.96465452769E+01  0.26373875280E+02 -0.17197371239E+03  0.17425152764E+03  0.00000000000E+00 0. -1.
        -12    1    4    4    0    0  0.10654042323E+03  0.61356115137E+02 -0.11789009743E+04  0.11852944536E+04  0.00000000000E+00 0.  1.
</event>
<event>
12    1  0.8684423E-002  0.2402810E+03  0.7818608E-02  0.1119733E+00
         21   -1    0    0  501  502  0.00000000000E+00  0.00000000000E+00  0.16824950174E+03  0.16824950174E+03  0.00000000000E+00 0.  1.
         21   -1    0    0  502  503 -0.00000000000E+00 -0.00000000000E+00 -0.67710090965E+03  0.67710090965E+03  0.00000000000E+00 0. -1.
         -6    2    1    2    0  503 -0.43805318239E+01  0.16699920076E+03 -0.55195361551E+03  0.60198650036E+03  0.17270503998E+03 0.  0.
        -24    2    3    3    0    0 -0.49723231287E+02  0.36840196698E+02 -0.26573826656E+03  0.28427807633E+03  0.79797233922E+02 0.  0.
          6    2    1    2  501    0  0.43805318239E+01 -0.16699920076E+03  0.43102207591E+02  0.24336391103E+03  0.17163994516E+03 0.  0.
         24    2    5    5    0    0  0.24468489907E+02 -0.12646341246E+03 -0.32081661621E+02  0.15549252557E+03  0.80975248096E+02 0.  0.
          5    1    5    5  501    0 -0.20087958083E+02 -0.40535788301E+02  0.75183869212E+02  0.87871385461E+02  0.47000000000E+01 0. -1.
        -13    1    6    6    0    0  0.46021321618E+02 -0.44308032761E+02  0.21454603873E+01  0.63920003215E+02  0.00000000000E+00 0.  1.
         14    1    6    6    0    0 -0.21552831711E+02 -0.82155379702E+02 -0.34227122008E+02  0.91572522351E+02  0.00000000000E+00 0. -1.
         -5    1    3    3    0  503  0.45342699463E+02  0.13015900407E+03 -0.28621534894E+03  0.31770842404E+03  0.47000000000E+01 0.  1.
         11    1    4    4    0    0  0.13531390069E+02  0.32812922878E+01 -0.65625691128E+01  0.15392618674E+02  0.00000000000E+00 0. -1.
        -12    1    4    4    0    0 -0.63254621356E+02  0.33558904410E+02 -0.25917569745E+03  0.26888545765E+03  0.00000000000E+00 0.  1.
</event>
<event>
12    1  0.8684423E-002  0.2336909E+03  0.7818608E-02  0.1124083E+00
         21   -1    0    0  503  502  0.00000000000E+00  0.00000000000E+00  0.10127039560E+03  0.10127039560E+03  0.00000000000E+00 0.  1.
         21   -1    0    0  501  503 -0.00000000000E+00 -0.00000000000E+00 -0.55330794006E+03  0.55330794006E+03  0.00000000000E+00 0.  1.
          6    2    1    2  501    0  0.10357530233E+03 -0.11930936539E+03 -0.27848673003E+03  0.36349188973E+03  0.17207244746E+03 0.  0.
         24    2    3    3    0    0  0.10036702754E+03 -0.77917322753E+02 -0.10058745788E+03  0.18075208768E+03  0.80055175449E+02 0.  0.
         -6    2    1    2    0  502 -0.10357530233E+03  0.11930936539E+03 -0.17355081444E+03  0.29108644594E+03  0.17218846040E+03 0.  0.
        -24    2    5    5    0    0 -0.99144394672E+02  0.15041654735E+02 -0.80351467135E+02  0.15108788607E+03  0.79469042240E+02 0.  0.
          5    1    3    3  501    0  0.32082747864E+01 -0.41392042633E+02 -0.17789927215E+03  0.18273980204E+03  0.47000000000E+01 0. -1.
        -13    1    4    4    0    0  0.97600659712E+02 -0.56719851572E+02 -0.10979731958E+03  0.15747533688E+03  0.00000000000E+00 0.  1.
         14    1    4    4    0    0  0.27663678272E+01 -0.21197471181E+02  0.92098616980E+01  0.23276750802E+02  0.00000000000E+00 0. -1.
         -5    1    5    5    0  502 -0.44309076543E+01  0.10426771065E+03 -0.93199347301E+02  0.13999855987E+03  0.47000000000E+01 0.  1.
         13    1    6    6    0    0 -0.38070001088E+02  0.43749539111E+01 -0.80426235103E+02  0.89088969561E+02  0.00000000000E+00 0. -1.
        -14    1    6    6    0    0 -0.61074393584E+02  0.10666700824E+02  0.74767968450E-01  0.61998916510E+02  0.00000000000E+00 0.  1.
</event>
<event>
12    1  0.8684423E-002  0.2384357E+03  0.7818608E-02  0.1120901E+00
         21   -1    0    0  501  502  0.00000000000E+00  0.00000000000E+00  0.12653383692E+03  0.12653383692E+03  0.00000000000E+00 0. -1.
         21   -1    0    0  502  503 -0.00000000000E+00 -0.00000000000E+00 -0.44862002521E+03  0.44862002521E+03  0.00000000000E+00 0. -1.
         -6    2    1    2    0  503 -0.11114109583E+02  0.16411484569E+03 -0.16289795022E+03  0.28876863583E+03  0.17261047722E+03 0.  0.
        -24    2    3    3    0    0  0.28695679750E+02  0.17545214498E+03 -0.14720549320E+03  0.24425238161E+03  0.79892875050E+02 0.  0.
          6    2    1    2  501    0  0.11114109583E+02 -0.16411484569E+03 -0.15918823807E+03  0.28638522629E+03  0.17209996134E+03 0.  0.
         24    2    5    5    0    0  0.67964410960E+00 -0.90403403644E+02 -0.11912261467E+02  0.12129568076E+03  0.79984391556E+02 0.  0.
          5    1    5    5  501    0  0.10434465474E+02 -0.73711442042E+02 -0.14727597660E+03  0.16508954553E+03  0.47000000000E+01 0. -1.
        -13    1    6    6    0    0 -0.21589837820E+02  0.37451230805E+01 -0.11060459557E+02  0.24545484506E+02  0.00000000000E+00 0.  1.
         14    1    6    6    0    0  0.22269481930E+02 -0.94148526724E+02 -0.85180190938E+00  0.96750196259E+02  0.00000000000E+00 0. -1.
         -5    1    3    3    0  503 -0.39809789333E+02 -0.11337299291E+02 -0.15692457022E+02  0.44516254215E+02  0.47000000000E+01 0.  1.
         13    1    4    4    0    0  0.30963146217E+02  0.27847293557E+02 -0.59227584973E+02  0.72402313525E+02  0.00000000000E+00 0. -1.
        -14    1    4    4    0    0 -0.22674664673E+01  0.14760485142E+03 -0.87977908225E+02  0.17185006809E+03  0.00000000000E+00 0.  1.
</event>
<event>
12    1  0.8684423E-002  0.1970012E+03  0.7818608E-02  0.1153118E+00
         21   -1    0    0  501  502  0.00000000000E+00  0.00000000000E+00  0.16913578862E+03  0.16913578862E+03  0.00000000000E+00 0.  1.
         21   -1    0    0  502  503 -0.00000000000E+00 -0.00000000000E+00 -0.27939145642E+03  0.27939145642E+03  0.00000000000E+00 0. -1.
         -6    2    1    2    0  503 -0.79086604287E+02 -0.42302467863E+02 -0.15358728866E+03  0.24681680251E+03  0.17112945100E+03 0.  0.
        -24    2    3    3    0    0 -0.91068548849E+01 -0.46656613345E+02 -0.15021178754E+03  0.17646335258E+03  0.79473009960E+02 0.  0.
          6    2    1    2  501    0  0.79086604287E+02  0.42302467863E+02  0.43331620860E+02  0.20171044254E+03  0.17540035204E+03 0.  0.
         24    2    5    5    0    0  0.42412912403E+02 -0.44322615150E+02  0.19596083180E+02  0.10457996106E+03  0.82399104526E+02 0.  0.
          5    1    5    5  501    0  0.36673691883E+02  0.86625083013E+02  0.23735537680E+02  0.97130481479E+02  0.47000000000E+01 0. -1.
        -13    1    6    6    0    0  0.34923891550E+02  0.16653763737E+02 -0.37195960508E+01  0.38869801162E+02  0.00000000000E+00 0.  1.
         14    1    6    6    0    0  0.74890208534E+01 -0.60976378887E+02  0.23315679231E+02  0.65710159896E+02  0.00000000000E+00 0. -1.
         -5    1    3    3    0  503 -0.69979749402E+02  0.43541454818E+01 -0.33755011176E+01  0.70353449930E+02  0.47000000000E+01 0.  1.
         13    1    4    4    0    0 -0.65309833316E+00  0.12172945033E+02  0.26313887027E+01  0.12471220257E+02  0.00000000000E+00 0. -1.
        -14    1    4    4    0    0 -0.84537565518E+01 -0.58829558377E+02 -0.15284317625E+03  0.16399213232E+03  0.00000000000E+00 0.  1.
</event>
<event>
12    1  0.8684423E-002  0.2126134E+03  0.7818608E-02  0.1140085E+00
         21   -1    0    0  503  502  0.00000000000E+00  0.00000000000E+00  0.16187205470E+04  0.16187205470E+04  0.00000000000E+00 0.  1.
         21   -1    0    0  501  503 -0.00000000000E+00 -0.00000000000E+00 -0.30064725534E+02  0.30064725534E+02  0.00000000000E+00 0.  1.
          6    2    1    2  501    0  0.11896535869E+03 -0.35362586025E+02  0.56067620320E+03  0.59963509919E+03  0.17263017783E+03 0.  0.
         24    2    3    3    0    0  0.77556512445E+01  0.27914435840E+02  0.22226909846E+03  0.23781602969E+03  0.79457825225E+02 0.  0.
         -6    2    1    2    0  502 -0.11896535869E+03  0.35362586025E+02  0.10279796183E+04  0.10491501734E+04  0.16902875964E+03 0.  0.
        -24    2    5    5    0    0 -0.76772287418E+02  0.40096485600E+02  0.97009418859E+03  0.97720937799E+03  0.79710234059E+02 0.  0.
          5    1    3    3  501    0  0.11120970744E+03 -0.63277021865E+02  0.33840710473E+03  0.36181906951E+03  0.47000000000E+01 0. -1.
        -13    1    4    4    0    0  0.40228614772E+02  0.36812979664E+01  0.14558228450E+03  0.15108307305E+03  0.00000000000E+00 0.  1.
         14    1    4    4    0    0 -0.32472963528E+02  0.24233137873E+02  0.76686813964E+02  0.86732956640E+02  0.00000000000E+00 0. -1.
         -5    1    5    5    0  502 -0.42193071268E+02 -0.47338995744E+01  0.57885429719E+02  0.71940795394E+02  0.47000000000E+01 0.  1.
         13    1    6    6    0    0 -0.16408099267E+01  0.31336478263E+02  0.13070610543E+03  0.13442006221E+03  0.00000000000E+00 0. -1.
        -14    1    6    6    0    0 -0.75131477491E+02  0.87600073363E+01  0.83938808316E+03  0.84278931578E+03  0.00000000000E+00 0.  1.
</event>
<event>
12    1  0.8684423E-002  0.1862528E+03  0.7818608E-02  0.1163026E+00
         21   -1    0    0  501  502  0.00000000000E+00  0.00000000000E+00  0.86811421832E+02  0.86811421832E+02  0.00000000000E+00 0.  1.
         21   -1    0    0  502  503 -0.00000000000E+00 -0.00000000000E+00 -0.45347029387E+03  0.45347029387E+03  0.00000000000E+00 0.  1.
         -6    2    1    2    0  503  0.42483041902E+02  0.35231608392E+02 -0.28706605124E+03  0.34219443303E+03  0.17788770936E+03 0.  0.
        -24    2    3    3    0    0  0.58537009153E+02 -0.15496031336E+01 -0.28545990841E+03  0.30175612099E+03  0.78360797180E+02 0.  0.
          6    2    1    2  501    0 -0.42483041902E+02 -0.35231608392E+02 -0.79592820799E+02  0.19808728268E+03  0.17279316930E+03 0.  0.
         24    2    5    5    0    0 -0.88461453645E+02 -0.48872908180E+02 -0.76610879093E+02  0.14980600905E+03  0.79740978288E+02 0.  0.
          5    1    5    5  501    0  0.45978411743E+02  0.13641299788E+02 -0.29819417065E+01  0.48281273623E+02  0.47000000000E+01 0. -1.
        -13    1    6    6    0    0 -0.82079696973E+02 -0.29667366143E+01 -0.53447791392E+02  0.97992574137E+02  0.00000000000E+00 0.  1.
         14    1    6    6    0    0 -0.63817566720E+01 -0.45906171566E+02 -0.23163087701E+02  0.51813434917E+02  0.00000000000E+00 0. -1.
         -5    1    3    3    0  503 -0.16053967251E+02  0.36781211526E+02 -0.16061428339E+01  0.40438312039E+02  0.47000000000E+01 0.  1.
         11    1    4    4    0    0 -0.52457240386E+01  0.13589174153E+02 -0.15567303886E+03  0.15635305659E+03  0.00000000000E+00 0. -1.
        -12    1    4    4    0    0  0.63782733192E+02 -0.15138777287E+02 -0.12978686954E+03  0.14540306440E+03  0.00000000000E+00 0.  1.
</event>
<event>
12    1  0.8684423E-002  0.1847344E+03  0.7818608E-02  0.1163938E+00
         21   -1    0    0  503  502  0.00000000000E+00  0.00000000000E+00  0.28351625221E+02  0.28351625221E+02  0.00000000000E+00 0. -1.
         21   -1    0    0  501  503 -0.00000000000E+00 -0.00000000000E+00 -0.12094540183E+04  0.12094540183E+04  0.00000000000E+00 0. -1.
          6    2    1    2  501    0  0.74017775225E+02 -0.23028111639E+02 -0.68087042386E+03  0.70548660267E+03  0.16768389156E+03 0.  0.
         24    2    3    3    0    0  0.82284806867E+02 -0.50129094566E+02 -0.31802911753E+03  0.34151035253E+03  0.78759670685E+02 0.  0.
         -6    2    1    2    0  502 -0.74017775225E+02  0.23028111639E+02 -0.50023196924E+03  0.53231904087E+03  0.16468944485E+03 0.  0.
        -24    2    5    5    0    0 -0.98638021087E+02  0.49741516522E+02 -0.44709437648E+03  0.46777869479E+03  0.81974679968E+02 0.  0.
          5    1    3    3  501    0 -0.82670316425E+01  0.27100982927E+02 -0.36284130633E+03  0.36397625014E+03  0.47000000000E+01 0. -1.
        -11    1    4    4    0    0  0.27680183480E-01 -0.41726444160E+02 -0.10290501730E+03  0.11104296238E+03  0.00000000000E+00 0.  1.
         12    1    4    4    0    0  0.82257126684E+02 -0.84026504065E+01 -0.21512410023E+03  0.23046739015E+03  0.00000000000E+00 0. -1.
         -5    1    5    5    0  502  0.24620245862E+02 -0.26713404883E+02 -0.53137592761E+02  0.64540346073E+02  0.47000000000E+01 0.  1.
         11    1    6    6    0    0 -0.65063636461E+02  0.15208849552E+02 -0.37609558295E+03  0.38198491254E+03  0.00000000000E+00 0. -1.
        -12    1    6    6    0    0 -0.33574384626E+02  0.34532666970E+02 -0.70998793529E+02  0.85793782255E+02  0.00000000000E+00 0.  1.
</event>
<event>
12    1  0.8684423E-002  0.6263529E+03  0.7818608E-02  0.9852540E-01
         21   -1    0    0  503  502  0.00000000000E+00  0.00000000000E+00  0.24996459800E+03  0.24996459800E+03  0.00000000000E+00 0.  1.
         21   -1    0    0  501  503 -0.00000000000E+00 -0.00000000000E+00 -0.17331828707E+04  0.17331828707E+04  0.00000000000E+00 0. -1.
          6    2    1    2  501    0  0.46102513822E+03  0.38668950199E+03 -0.43561505908E+03  0.76294068540E+03  0.17391107132E+03 0.  0.
         24    2    3    3    0    0  0.10578909749E+03  0.12636317813E+03 -0.86969437527E+02  0.20121272727E+03  0.75920304365E+02 0.  0.
         -6    2    1    2    0  502 -0.46102513822E+03 -0.38668950199E+03 -0.10476032136E+04  0.12202067833E+04  0.17134512477E+03 0.  0.
        -24    2    5    5    0    0 -0.17458897100E+03 -0.86346523019E+02 -0.31959379615E+03  0.38219044405E+03  0.77410013263E+02 0.  0.
          5    1    3    3  501    0  0.35523604072E+03  0.26032632386E+03 -0.34864562155E+03  0.56172795814E+03  0.47000000000E+01 0. -1.
        -11    1    4    4    0    0  0.86003282930E+01  0.44017996231E+02 -0.52897332159E+02  0.69351837672E+02  0.00000000000E+00 0.  1.
         12    1    4    4    0    0  0.97188769198E+02  0.82345181898E+02 -0.34072105368E+02  0.13186088959E+03  0.00000000000E+00 0. -1.
         -5    1    5    5    0  502 -0.28643616721E+03 -0.30034297897E+03 -0.72800941744E+03  0.83801633921E+03  0.47000000000E+01 0.  1.
         13    1    6    6    0    0 -0.89772098879E+01 -0.36846278918E+01  0.30942242258E+01  0.10185332770E+02  0.00000000000E+00 0. -1.
        -14    1    6    6    0    0 -0.16561176111E+03 -0.82661895128E+02 -0.32268802038E+03  0.37200511128E+03  0.00000000000E+00 0.  1.
</event>
<event>
12    1  0.8684423E-002  0.2975911E+03  0.7818608E-02  0.1086498E+00
         21   -1    0    0  501  502  0.00000000000E+00  0.00000000000E+00  0.79089227692E+02  0.79089227692E+02  0.00000000000E+00 0.  1.
         21   -1    0    0  502  503 -0.00000000000E+00 -0.00000000000E+00 -0.13110030483E+04  0.13110030483E+04  0.00000000000E+00 0. -1.
         -6    2    1    2    0  503 -0.21109984456E+03  0.12152657787E+03 -0.88206451395E+03  0.93079392503E+03  0.17031638379E+03 0.  0.
        -24    2    3    3    0    0 -0.11448099757E+03  0.11204729847E+03 -0.71911651108E+03  0.74105937369E+03  0.79874544894E+02 0.  0.
          6    2    1    2  501    0  0.21109984456E+03 -0.12152657787E+03 -0.34984930662E+03  0.45929835094E+03  0.17096369300E+03 0.  0.
         24    2    5    5    0    0  0.62867225987E+02 -0.59354156442E+02 -0.66158509394E+02  0.13319886055E+03  0.76744928801E+02 0.  0.
          5    1    5    5  501    0  0.14823261857E+03 -0.62172421430E+02 -0.28369079723E+03  0.32609949038E+03  0.47000000000E+01 0. -1.
        -13    1    6    6    0    0  0.39823514133E+02 -0.73027456253E+02 -0.30501129089E+02  0.88595939638E+02  0.00000000000E+00 0.  1.
         14    1    6    6    0    0  0.23043711854E+02  0.13673299811E+02 -0.35657380305E+02  0.44602920913E+02  0.00000000000E+00 0. -1.
         -5    1    3    3    0  503 -0.96618846988E+02  0.94792793992E+01 -0.16294800287E+03  0.18973455134E+03  0.47000000000E+01 0.  1.
         13    1    4    4    0    0 -0.85548083055E+02  0.87788575225E+02 -0.36710947878E+03  0.38703317412E+03  0.00000000000E+00 0. -1.
        -14    1    4    4    0    0 -0.28932914516E+02  0.24258723249E+02 -0.35200703230E+03  0.35402619957E+03  0.00000000000E+00 0.  1.
</event>
<event>
12    1  0.8684423E-002  0.1838153E+03  0.7818608E-02  0.1165538E+00
         21   -1    0    0  501  502  0.00000000000E+00  0.00000000000E+00  0.34915197225E+03  0.34915197225E+03  0.00000000000E+00 0.  1.
         21   -1    0    0  502  503 -0.00000000000E+00 -0.00000000000E+00 -0.20966270155E+03  0.20966270155E+03  0.00000000000E+00 0.  1.
         -6    2    1    2    0  503  0.34508265040E+02  0.43594637138E+02 -0.13847313225E+03  0.22557128310E+03  0.16916347910E+03 0.  0.
        -24    2    3    3    0    0  0.33459998365E+01 -0.32619459609E+02 -0.10256650721E+03  0.13562101330E+03  0.82449657291E+02 0.  0.
          6    2    1    2  501    0 -0.34508265040E+02 -0.43594637138E+02  0.27796240295E+03  0.33324339070E+03  0.17520487221E+03 0.  0.
         24    2    5    5    0    0  0.61278507439E+01  0.36150877675E+02  0.18631053402E+03  0.20505292257E+03  0.77399285908E+02 0.  0.
          5    1    5    5  501    0 -0.40636115784E+02 -0.79745514813E+02  0.91651868930E+02  0.12819046812E+03  0.47000000000E+01 0. -1.
        -13    1    6    6    0    0 -0.33300416408E+02  0.30666757668E+02  0.11081448108E+03  0.11970470741E+03  0.00000000000E+00 0.  1.
         14    1    6    6    0    0  0.39428267152E+02  0.54841200074E+01  0.75496052938E+02  0.85348215166E+02  0.00000000000E+00 0. -1.
         -5    1    3    3    0  503  0.31162265203E+02  0.76214096748E+02 -0.35906625046E+02  0.89950269804E+02  0.47000000000E+01 0.  1.
         11    1    4    4    0    0 -0.23855475376E+01  0.23980318842E+02 -0.82425370619E+01  0.25469313812E+02  0.00000000000E+00 0. -1.
        -12    1    4    4    0    0  0.57315473741E+01 -0.56599778451E+02 -0.94323970145E+02  0.11015169949E+03  0.00000000000E+00 0.  1.
</event>
<event>
12    1  0.8684423E-002  0.1864652E+03  0.7818608E-02  0.1161702E+00
         21   -1    0    0  503  502  0.00000000000E+00  0.00000000000E+00  0.43806436326E+02  0.43806436326E+02  0.00000000000E+00 0.  1.
         21   -1    0    0  501  503 -0.00000000000E+00 -0.00000000000E+00 -0.94680552451E+03  0.94680552451E+03  0.00000000000E+00 0.  1.
          6    2    1    2  501    0  0.61231240137E+02  0.35892868534E+02 -0.65089314348E+03  0.67707544419E+03  0.17242885521E+03 0.  0.
         24    2    3    3    0    0 -0.18022920564E+02  0.31374444148E+01 -0.15366489116E+03  0.17248435756E+03  0.76179299052E+02 0.  0.
         -6    2    1    2    0  502 -0.61231240137E+02 -0.35892868534E+02 -0.25210594471E+03  0.31353651665E+03  0.17236640374E+03 0.  0.
        -24    2    5    5    0    0  0.28532468132E+02 -0.22732645104E+02 -0.16821358750E+03  0.18988081561E+03  0.80175047403E+02 0.  0.
          5    1    3    3  501    0  0.79254160701E+02  0.32755424119E+02 -0.49722825233E+03  0.50459108663E+03  0.47000000000E+01 0. -1.
        -13    1    4    4    0    0 -0.39086758831E+02  0.16540295070E+02 -0.13442067748E+03  0.14096196158E+03  0.00000000000E+00 0.  1.
         14    1    4    4    0    0  0.21063838267E+02 -0.13402850655E+02 -0.19244213673E+02  0.31522395977E+02  0.00000000000E+00 0. -1.
         -5    1    5    5    0  502 -0.89763708269E+02 -0.13160223430E+02 -0.83892357206E+02  0.12365570104E+03  0.47000000000E+01 0.  1.
         13    1    6    6    0    0 -0.77375940537E+01  0.15671854413E+02 -0.10956365873E+03  0.11094896438E+03  0.00000000000E+00 0. -1.
        -14    1    6    6    0    0  0.36270062185E+02 -0.38404499517E+02 -0.58649928772E+02  0.78931851233E+02  0.00000000000E+00 0.  1.
</event>
<event>
12    1  0.8684423E-002  0.2258054E+03  0.7818608E-02  0.1129817E+00
         21   -1    0    0  501  502  0.00000000000E+00  0.00000000000E+00  0.59778306942E+03  0.59778306942E+03  0.00000000000E+00 0. -1.
         21   -1    0    0  502  503 -0.00000000000E+00 -0.00000000000E+00 -0.13330609750E+03  0.13330609750E+03  0.00000000000E+00 0.  1.
         -6    2    1    2    0  503 -0.10699854632E+03  0.97429768139E+02  0.45217038473E+03  0.50494862162E+03  0.17197036086E+03 0.  0.
        -24    2    3    3    0    0 -0.10473909789E+03  0.11865526501E+02  0.33015664165E+03  0.35583192888E+03  0.80634262183E+02 0.  0.
          6    2    1    2  501    0  0.10699854632E+03 -0.97429768139E+02  0.12306587184E+02  0.22614054530E+03  0.17334025933E+03 0.  0.
         24    2    5    5    0    0 -0.93681097348E+01 -0.50093873104E+02 -0.22487172234E+02  0.95700592466E+02  0.77818846565E+02 0.  0.
          5    1    5    5  501    0  0.11636665606E+03 -0.47335895035E+02  0.34793759418E+02  0.13043995283E+03  0.47000000000E+01 0. -1.
        -13    1    6    6    0    0  0.11631016240E+02 -0.58725645982E+02 -0.35431713638E+02  0.69565712575E+02  0.00000000000E+00 0.  1.
         14    1    6    6    0    0 -0.20999125974E+02  0.86317728786E+01  0.12944541404E+02  0.26134879890E+02  0.00000000000E+00 0. -1.
         -5    1    3    3    0  503 -0.22594484349E+01  0.85564241638E+02  0.12201374308E+03  0.14911669274E+03  0.47000000000E+01 0.  1.
         11    1    4    4    0    0 -0.76711932174E+02  0.61063731685E+01  0.11249658699E+03  0.13629926785E+03  0.00000000000E+00 0. -1.
        -12    1    4    4    0    0 -0.28027165714E+02  0.57591533322E+01  0.21766005466E+03  0.21953266103E+03  0.00000000000E+00 0.  1.
</event>
<event>
12    1  0.8684423E-002  0.2130494E+03  0.7818608E-02  0.1139506E+00
         21   -1    0    0  501  502  0.00000000000E+00  0.00000000000E+00  0.11068996494E+04  0.11068996494E+04  0.00000000000E+00 0.  1.
         21   -1    0    0  502  503 -0.00000000000E+00 -0.00000000000E+00 -0.55312713704E+02  0.55312713704E+02  0.00000000000E+00 0. -1.
         -6    2    1    2    0  503  0.46065753944E+02 -0.11142253544E+03  0.22845389775E+03  0.31237991698E+03  0.17565020366E+03 0.  0.
        -24    2    3    3    0    0  0.39473125457E+02  0.15268351574E+02  0.10229605471E+03  0.13340524010E+03  0.74439405457E+02 0.  0.
          6    2    1    2  501    0 -0.46065753944E+02  0.11142253544E+03  0.82313303793E+03  0.84983244611E+03  0.17358039415E+03 0.  0.
         24    2    5    5    0    0 -0.38690417716E+02 -0.82877503889E+01  0.40866870088E+03  0.41833768970E+03  0.80191522731E+02 0.  0.
          5    1    5    5  501    0 -0.73753362280E+01  0.11971028583E+03  0.41446433705E+03  0.43149475641E+03  0.47000000000E+01 0. -1.
        -13    1    6    6    0    0 -0.46286402312E+02  0.26812002469E+02  0.24031363171E+03  0.24619495548E+03  0.00000000000E+00 0.  1.
         14    1    6    6    0    0  0.75959845961E+01 -0.35099752858E+02  0.16835506917E+03  0.17214273423E+03  0.00000000000E+00 0. -1.
         -5    1    3    3    0  503  0.65926284873E+01 -0.12669088701E+03  0.12615784304E+03  0.17897467687E+03  0.47000000000E+01 0.  1.
         13    1    4    4    0    0  0.12910295441E+02  0.22205959804E+01 -0.10501790492E+02  0.16789710492E+02  0.00000000000E+00 0. -1.
        -14    1    4    4    0    0  0.26562830016E+02  0.13047755594E+02  0.11279784520E+03  0.11661552961E+03  0.00000000000E+00 0.  1.
</event>
<event>
12    1  0.8684423E-002  0.2049190E+03  0.7818608E-02  0.1145806E+00
         21   -1    0    0  503  502  0.00000000000E+00  0.00000000000E+00  0.25969495866E+02  0.25969495866E+02  0.00000000000E+00 0. -1.
         21   -1    0    0  501  503 -0.00000000000E+00 -0.00000000000E+00 -0.16128486664E+04  0.16128486664E+04  0.00000000000E+00 0.  1.
          6    2    1    2  501    0  0.14867076970E+02 -0.11086060058E+03 -0.81892022505E+03  0.84398942372E+03  0.17081191300E+03 0.  0.
         24    2    3    3    0    0 -0.57846825221E+01 -0.17595640304E+02 -0.59498732580E+03  0.60048812731E+03  0.78949376669E+02 0.  0.
         -6    2    1    2    0  502 -0.14867076970E+02  0.11086060058E+03 -0.76795894547E+03  0.79482873852E+03  0.17169938533E+03 0.  0.
        -24    2    5    5    0    0 -0.70764923315E+02  0.61530697168E+02 -0.42501757498E+03  0.44384600079E+03  0.86980643297E+02 0.  0.
          5    1    3    3  501    0  0.20651759492E+02 -0.93264960278E+02 -0.22393289925E+03  0.24350129641E+03  0.47000000000E+01 0. -1.
        -13    1    4    4    0    0  0.34609589300E+02 -0.42826465372E+01 -0.35979167402E+03  0.36147781872E+03  0.00000000000E+00 0.  1.
         14    1    4    4    0    0 -0.40394271822E+02 -0.13312993767E+02 -0.23519565177E+03  0.23901030859E+03  0.00000000000E+00 0. -1.
         -5    1    5    5    0  502  0.55897846345E+02  0.49329903413E+02 -0.34294137048E+03  0.35098273773E+03  0.47000000000E+01 0.  1.
         11    1    6    6    0    0  0.10087443883E+02  0.38129196880E+02 -0.19409104356E+03  0.19805788389E+03  0.00000000000E+00 0. -1.
        -12    1    6    6    0    0 -0.80852367199E+02  0.23401500288E+02 -0.23092653142E+03  0.24578811691E+03  0.00000000000E+00 0.  1.
</event>
<event>
12    1  0.8684423E-002  0.2609557E+03  0.7818608E-02  0.1106662E+00
         21   -1    0    0  503  502  0.00000000000E+00  0.00000000000E+00  0.19256190105E+03  0.19256190105E+03  0.00000000000E+00 0.  1.
         21   -1    0    0  501  503 -0.00000000000E+00 -0.00000000000E+00 -0.69938150033E+03  0.69938150033E+03  0.00000000000E+00 0. -1.
          6    2    1    2  501    0 -0.15682560205E+03 -0.11613810234E+03 -0.56749730355E+03  0.62462075919E+03  0.17325003610E+03 0.  0.
         24    2    3    3    0    0 -0.80379148179E+02 -0.32573792061E+02 -0.43304952182E+03  0.44876470933E+03  0.79599099237E+02 0.  0.
         -6    2    1    2    0  502  0.15682560205E+03  0.11613810234E+03  0.60677704273E+02  0.26732264219E+03  0.17232899627E+03 0.  0.
        -24    2    5    5    0    0  0.78086107972E+02  0.10213880503E+02 -0.15083788983E+02  0.11506712485E+03  0.82529745655E+02 0.  0.
          5    1    3    3  501    0 -0.76446453874E+02 -0.83564310280E+02 -0.13444778173E+03  0.17585604986E+03  0.47000000000E+01 0. -1.
        -11    1    4    4    0    0 -0.71464368026E+02 -0.26724600292E+02 -0.18015551753E+03  0.19564603409E+03  0.00000000000E+00 0.  1.
         12    1    4    4    0    0 -0.89147801528E+01 -0.58491917692E+01 -0.25289400429E+03  0.25311867524E+03  0.00000000000E+00 0. -1.
         -5    1    5    5    0  502  0.78739494080E+02  0.10592422184E+03  0.75761493256E+02  0.15225551734E+03  0.47000000000E+01 0.  1.
         13    1    6    6    0    0  0.19256672028E+02  0.22559374179E+02 -0.40168272104E+02  0.49932302818E+02  0.00000000000E+00 0. -1.
        -14    1    6    6    0    0  0.58829435944E+02 -0.12345493676E+02  0.25084483121E+02  0.65134822031E+02  0.00000000000E+00 0.  1.
</event>
<event>
12    1  0.8684423E-002  0.2069848E+03  0.7818608E-02  0.1144128E+00
         21   -1    0    0  501  502  0.00000000000E+00  0.00000000000E+00  0.74996516188E+02  0.74996516188E+02  0.00000000000E+00 0.  1.
         21   -1    0    0  502  503 -0.00000000000E+00 -0.00000000000E+00 -0.57591864746E+03  0.57591864746E+03  0.00000000000E+00 0.  1.
         -6    2    1    2    0  503  0.59857399492E+02 -0.96789951049E+02 -0.21481850049E+03  0.29778912296E+03  0.17198886796E+03 0.  0.
        -24    2    3    3    0    0  0.10627338331E+03 -0.72218610763E+02 -0.17813269842E+03  0.23355414502E+03  0.79414864295E+02 0.  0.
          6    2    1    2  501    0 -0.59857399492E+02  0.96789951049E+02 -0.28610363078E+03  0.35312604069E+03  0.17289161393E+03 0.  0.
         24    2    5    5    0    0  0.20158239387E+02  0.27498877002E+01 -0.99146803216E+02  0.12902565837E+03  0.80022593269E+02 0.  0.
          5    1    5    5  501    0 -0.80015638879E+02  0.94040063349E+02 -0.18695682756E+03  0.22410038231E+03  0.47000000000E+01 0. -1.
        -11    1    6    6    0    0  0.29980342706E+02  0.27332361519E+02 -0.19340932673E+02  0.44943860666E+02  0.00000000000E+00 0.  1.
         12    1    6    6    0    0 -0.98221033185E+01 -0.24582473819E+02 -0.79805870543E+02  0.84081797708E+02  0.00000000000E+00 0. -1.
         -5    1    3    3    0  503 -0.46415983816E+02 -0.24571340286E+02 -0.36685802078E+02  0.64234977942E+02  0.47000000000E+01 0.  1.
         13    1    4    4    0    0 -0.77599848522E+01  0.78236458283E+01 -0.78005455077E+01  0.13500937344E+02  0.00000000000E+00 0. -1.
        -14    1    4    4    0    0  0.11403336816E+03 -0.80042256592E+02 -0.17033215291E+03  0.22005320768E+03  0.00000000000E+00 0.  1.
</event>
<event>
12    1  0.8684423E-002  0.2560008E+03  0.7818608E-02  0.1109664E+00
         21   -1    0    0  501  502  0.00000000000E+00  0.00000000000E+00  0.24789073831E+03  0.24789073831E+03  0.00000000000E+00 0. -1.
         21   -1    0    0  502  503 -0.00000000000E+00 -0.00000000000E+00 -0.29961697051E+03  0.29961697051E+03  0.00000000000E+00 0.  1.
         -6    2    1    2    0  503 -0.36893825526E+02 -0.18602151921E+03 -0.12055974721E+03  0.28241437852E+03  0.17104990084E+03 0.  0.
        -24    2    3    3    0    0 -0.78601426413E+02 -0.78510218101E+02 -0.31188586536E+02  0.13644349719E+03  0.72815255366E+02 0.  0.
          6    2    1    2  501    0  0.36893825526E+02  0.18602151921E+03  0.68833515008E+02  0.26509333029E+03  0.17196296405E+03 0.  0.
         24    2    5    5    0    0  0.80776869669E+02  0.14160942072E+03  0.84889151851E+02  0.20045565141E+03  0.79988557758E+02 0.  0.
          5    1    5    5  501    0 -0.43883044143E+02  0.44412098496E+02 -0.16055636843E+02  0.64637678876E+02  0.47000000000E+01 0. -1.
        -11    1    6    6    0    0 -0.43158531257E+01  0.23497774657E+02 -0.10832893753E+02  0.26232109886E+02  0.00000000000E+00 0.  1.
         12    1    6    6    0    0  0.85092722795E+02  0.11811164606E+03  0.95722045604E+02  0.17422354153E+03  0.00000000000E+00 0. -1.
         -5    1    3    3    0  503  0.41707600886E+02 -0.10751130111E+03 -0.89371160672E+02  0.14597088134E+03  0.47000000000E+01 0.  1.
         13    1    4    4    0    0 -0.17649348895E+02 -0.48650329765E+02  0.15545200533E+02  0.54037092467E+02  0.00000000000E+00 0. -1.
        -14    1    4    4    0    0 -0.60952077517E+02 -0.29859888337E+02 -0.46733787068E+02  0.82406404720E+02  0.00000000000E+00 0.  1.
</event>
<event>
12    1  0.8684423E-002  0.1740856E+03  0.7818608E-02  0.1173830E+00
         21   -1    0    0  503  502  0.00000000000E+00  0.00000000000E+00  0.86343472388E+03  0.86343472388E+03  0.00000000000E+00 0. -1.
         21   -1    0    0  501  503 -0.00000000000E+00 -0.00000000000E+00 -0.41976975876E+02  0.41976975876E+02  0.00000000000E+00 0. -1.
          6    2    1    2  501    0 -0.19092011372E+02  0.83734907221E+01  0.22630673680E+03  0.28551802238E+03  0.17283281441E+03 0.  0.
         24    2    3    3    0    0 -0.19662735321E+02 -0.53101580200E+02  0.19233439896E+03  0.21512114881E+03  0.77962726102E+02 0.  0.
         -6    2    1    2    0  502  0.19092011372E+02 -0.83734907221E+01  0.59515101120E+03  0.61989367737E+03  0.17213025553E+03 0.  0.
        -24    2    5    5    0    0  0.78664323120E+02  0.17848189958E+01  0.41542710579E+03  0.43022337459E+03  0.79506040674E+02 0.  0.
          5    1    3    3  501    0  0.57072394855E+00  0.61475070922E+02  0.33972337845E+02  0.70396873577E+02  0.47000000000E+01 0. -1.
        -11    1    4    4    0    0  0.28071502117E+02 -0.32473425431E+02  0.10563033900E+03  0.11401886295E+03  0.00000000000E+00 0.  1.
         12    1    4    4    0    0 -0.47734237438E+02 -0.20628154770E+02  0.86704059959E+02  0.10110228586E+03  0.00000000000E+00 0. -1.
         -5    1    5    5    0  502 -0.59572311748E+02 -0.10158309718E+02  0.17972390541E+03  0.18967030279E+03  0.47000000000E+01 0.  1.
         11    1    6    6    0    0 -0.32289068981E+01 -0.20631361584E+02  0.15260062573E+03  0.15402282264E+03  0.00000000000E+00 0. -1.
        -12    1    6    6    0    0  0.81893230018E+02  0.22416180579E+02  0.26282648006E+03  0.27620055195E+03  0.00000000000E+00 0.  1.
</event>
<event>
12    1  0.8684423E-002  0.2645419E+03  0.7818608E-02  0.1104469E+00
         21   -1    0    0  501  502  0.00000000000E+00  0.00000000000E+00  0.19602354238E+03  0.19602354238E+03  0.00000000000E+00 0.  1.
         21   -1    0    0  502  503 -0.00000000000E+00 -0.00000000000E+00 -0.35711992736E+03  0.35711992736E+03  0.00000000000E+00 0. -1.
         -6    2    1    2    0  503  0.60057720205E+02  0.19185056926E+03 -0.88945774332E+02  0.27893890749E+03  0.17170321098E+03 0.  0.
        -24    2    3    3    0    0  0.20408420906E+01  0.10443206504E+03 -0.11049242491E+03  0.17172742874E+03  0.79821755020E+02 0.  0.
          6    2    1    2  501    0 -0.60057720205E+02 -0.19185056926E+03 -0.72150610644E+02  0.27420456225E+03  0.17195598467E+03 0.  0.
         24    2    5    5    0    0 -0.10130240208E+03 -0.12534174745E+03 -0.21384542659E+02  0.18080311247E+03  0.79118496540E+02 0.  0.
          5    1    5    5  501    0  0.41244681878E+02 -0.66508821810E+02 -0.50766067985E+02  0.93401449777E+02  0.47000000000E+01 0. -1.
        -11    1    6    6    0    0 -0.79187661744E+01 -0.64745899696E+02  0.78724789012E+01  0.65701707050E+02  0.00000000000E+00 0.  1.
         12    1    6    6    0    0 -0.93383635908E+02 -0.60595847750E+02 -0.29257021560E+02  0.11510140542E+03  0.00000000000E+00 0. -1.
         -5    1    3    3    0  503  0.58016878114E+02  0.87418504213E+02  0.21546650577E+02  0.10721147875E+03  0.47000000000E+01 0.  1.
         13    1    4    4    0    0  0.38536858581E+02  0.58509229127E+02 -0.77314378900E+02  0.10433567246E+03  0.00000000000E+00 0. -1.
        -14    1    4    4    0    0 -0.36496016490E+02  0.45922835916E+02 -0.33178046009E+02  0.67391756285E+02  0.00000000000E+00 0.  1.
</event>
<event>
12    1  0.8684423E-002  0.2641649E+03  0.7818608E-02  0.1104927E+00
         21   -1    0    0  501  502  0.00000000000E+00  0.00000000000E+00  0.19887449417E+03  0.19887449417E+03  0.00000000000E+00 0. -1.
         21   -1    0    0  502  503 -0.00000000000E+00 -0.00000000000E+00 -0.51256147428E+03  0.51256147428E+03  0.00000000000E+00 0.  1.
         -6    2    1    2    0  503 -0.19406811984E+03 -0.42551182891E+02 -0.35842268229E+03  0.44525264373E+03  0.17409784395E+03 0.  0.
        -24    2    3    3    0    0 -0.79514274057E+02 -0.86995496494E+02 -0.19155184721E+03  0.23797059869E+03  0.77763484266E+02 0.  0.
          6    2    1    2  501    0  0.19406811984E+03  0.42551182891E+02  0.44735702168E+02  0.26618332472E+03  0.17140373686E+03 0.  0.
         24    2    5    5    0    0  0.16484181089E+03  0.87242708014E+02  0.62800401246E+02  0.20961537527E+03  0.72184502719E+02 0.  0.
          5    1    5    5  501    0  0.29226308945E+02 -0.44691525123E+02 -0.18064699078E+02  0.56567949452E+02  0.47000000000E+01 0. -1.
        -13    1    6    6    0    0  0.74959091154E+02  0.75889606059E+02  0.51065968270E+02  0.11826170458E+03  0.00000000000E+00 0.  1.
         14    1    6    6    0    0  0.89882719736E+02  0.11353101955E+02  0.11734432976E+02  0.91353670690E+02  0.00000000000E+00 0. -1.
         -5    1    3    3    0  503 -0.11455384578E+03  0.44444313603E+02 -0.16687083508E+03  0.20728204504E+03  0.47000000000E+01 0.  1.
         11    1    4    4    0    0 -0.50734290897E+02 -0.89919439216E+01 -0.40456112369E+02  0.65509696658E+02  0.00000000000E+00 0. -1.
        -12    1    4    4    0    0 -0.28779983160E+02 -0.78003552572E+02 -0.15109573484E+03  0.17246090203E+03  0.00000000000E+00 0.  1.
</event>
<event>
12    1  0.8684423E-002  0.3228546E+03  0.7818608E-02  0.1074343E+00
         21   -1    0    0  503  502  0.00000000000E+00  0.00000000000E+00  0.70391635605E+03  0.70391635605E+03  0.00000000000E+00 0.  1.
         21   -1    0    0  501  503 -0.00000000000E+00 -0.00000000000E+00 -0.28723608272E+03  0.28723608272E+03  0.00000000000E+00 0. -1.
          6    2    1    2  501    0  0.95575926942E+02 -0.25659051009E+03 -0.13660161163E+03  0.35056397030E+03  0.17106036739E+03 0.  0.
         24    2    3    3    0    0 -0.28192819669E+01 -0.62477174001E+02 -0.65903875893E+02  0.12169312414E+03  0.80960175288E+02 0.  0.
         -6    2    1    2    0  502 -0.95575926942E+02  0.25659051009E+03  0.55328188496E+03  0.64058846846E+03  0.17105348293E+03 0.  0.
        -24    2    5    5    0    0 -0.45257555521E+02  0.52090203886E+02  0.12890044218E+03  0.16680158313E+03  0.80285792435E+02 0.  0.
          5    1    3    3  501    0  0.98395208909E+02 -0.19411333609E+03 -0.70697735735E+02  0.22887084616E+03  0.47000000000E+01 0. -1.
        -11    1    4    4    0    0 -0.85112290208E+01  0.11574396574E+02  0.83943708133E+01  0.16639505306E+02  0.00000000000E+00 0.  1.
         12    1    4    4    0    0  0.56919470539E+01 -0.74051570575E+02 -0.74298246706E+02  0.10505361883E+03  0.00000000000E+00 0. -1.
         -5    1    5    5    0  502 -0.50318371421E+02  0.20450030621E+03  0.42438144278E+03  0.47378688534E+03  0.47000000000E+01 0.  1.
         13    1    6    6    0    0  0.22794483731E+02  0.13011620622E+02  0.43634961297E+02  0.50920532275E+02  0.00000000000E+00 0. -1.
        -14    1    6    6    0    0 -0.68052039252E+02  0.39078583264E+02  0.85265480881E+02  0.11588105085E+03  0.00000000000E+00 0.  1.
</event>
<event>
12    1  0.8684423E-002  0.1931383E+03  0.7818608E-02  0.1155886E+00
         21   -1    0    0  501  502  0.00000000000E+00  0.00000000000E+00  0.22581598371E+03  0.22581598371E+03  0.00000000000E+00 0.  1.
         21   -1    0    0  502  503 -0.00000000000E+00 -0.00000000000E+00 -0.36656814972E+03  0.36656814972E+03  0.00000000000E+00 0.  1.
         -6    2    1    2    0  503  0.49531769848E+02 -0.72991111087E+02 -0.29029956489E+03  0.34811616101E+03  0.17067491220E+03 0.  0.
        -24    2    3    3    0    0  0.78965324666E+02 -0.98253269972E+02 -0.19763450381E+03  0.24755068798E+03  0.79578379354E+02 0.  0.
          6    2    1    2  501    0 -0.49531769848E+02  0.72991111087E+02  0.14954739889E+03  0.24426797242E+03  0.17181769209E+03 0.  0.
         24    2    5    5    0    0  0.39675334704E+02  0.35552316996E+02  0.83426825033E+02  0.12699226696E+03  0.79554392113E+02 0.  0.
          5    1    5    5  501    0 -0.89207104551E+02  0.37438794091E+02  0.66120573854E+02  0.11727570546E+03  0.47000000000E+01 0. -1.
        -11    1    6    6    0    0  0.24082610419E+02  0.26477343915E+02  0.97660292109E+02  0.10401228062E+03  0.00000000000E+00 0.  1.
         12    1    6    6    0    0  0.15592724285E+02  0.90749730808E+01 -0.14233467075E+02  0.22979986337E+02  0.00000000000E+00 0. -1.
         -5    1    3    3    0  503 -0.29433554818E+02  0.25262158885E+02 -0.92665061081E+02  0.10056547303E+03  0.47000000000E+01 0.  1.
         11    1    4    4    0    0 -0.40457165674E+01 -0.45661433957E+02 -0.35575844979E+02  0.58025641914E+02  0.00000000000E+00 0. -1.
        -12    1    4    4    0    0  0.83011041233E+02 -0.52591836015E+02 -0.16205865883E+03  0.18952504606E+03  0.00000000000E+00 0.  1.
</event>
<event>
12    1  0.8684423E-002  0.3471227E+03  0.7818608E-02  0.1063839E+00
         21   -1    0    0  503  502  0.00000000000E+00  0.00000000000E+00  0.53673457313E+03  0.53673457313E+03  0.00000000000E+00 0.  1.
         21   -1    0    0  501  503 -0.00000000000E+00 -0.00000000000E+00 -0.47603880864E+03  0.47603880864E+03  0.00000000000E+00 0.  1.
          6    2    1    2  501    0  0.11461797907E+03 -0.27843761998E+03 -0.33791578802E+03  0.48443909119E+03  0.17271179443E+03 0.  0.
         24    2    3    3    0    0  0.10913591735E+03 -0.10820329987E+03 -0.13344200021E+03  0.21827861958E+03  0.78868154469E+02 0.  0.
         -6    2    1    2    0  502 -0.11461797907E+03  0.27843761998E+03  0.39861155251E+03  0.52833429057E+03  0.17199175402E+03 0.  0.
        -24    2    5    5    0    0 -0.37578559966E+02  0.13898853175E+03  0.29612010746E+03  0.33884100148E+03  0.79975909571E+02 0.  0.
          5    1    3    3  501    0  0.54820617177E+01 -0.17023432012E+03 -0.20447378781E+03  0.26616047161E+03  0.47000000000E+01 0. -1.
        -11    1    4    4    0    0  0.79303374617E+02 -0.64554000473E+02 -0.12986021254E+03  0.16528738308E+03  0.00000000000E+00 0.  1.
         12    1    4    4    0    0  0.29832542732E+02 -0.43649299393E+02 -0.35817876643E+01  0.52991236504E+02  0.00000000000E+00 0. -1.
         -5    1    5    5    0  502 -0.77039419101E+02  0.13944908823E+03  0.10249144505E+03  0.18949328910E+03  0.47000000000E+01 0.  1.
         11    1    6    6    0    0 -0.32644619301E+02  0.18826113646E+02  0.35325221842E+02  0.51652347696E+02  0.00000000000E+00 0. -1.
        -12    1    6    6    0    0 -0.49339406646E+01  0.12016241811E+03  0.26079488562E+03  0.28718865378E+03  0.00000000000E+00 0.  1.
</event>
<event>
12    1  0.8684423E-002  0.1947005E+03  0.7818608E-02  0.1154313E+00
         21   -1    0    0  501  502  0.00000000000E+00  0.00000000000E+00  0.35220507188E+03  0.35220507188E+03  0.00000000000E+00 0. -1.
         21   -1    0    0  502  503 -0.00000000000E+00 -0.00000000000E+00 -0.21766050569E+03  0.21766050569E+03  0.00000000000E+00 0. -1.
         -6    2    1    2    0  503  0.70248755932E+00 -0.90335976860E+02 -0.13537913821E+03  0.23704868831E+03  0.17234699697E+03 0.  0.
        -24    2    3    3    0    0 -0.44445105848E+02  0.21384279117E+01 -0.55676443346E+02  0.10680111522E+03  0.79540376915E+02 0.  0.
          6    2    1    2  501    0 -0.70248755932E+00  0.90335976860E+02  0.26992370441E+03  0.33281688926E+03  0.17247374691E+03 0.  0.
         24    2    5    5    0    0 -0.65178137625E+02  0.71147239049E+02  0.15868592958E+03  0.20273518548E+03  0.81303209885E+02 0.  0.
          5    1    5    5  501    0  0.64475650066E+02  0.19188737811E+02  0.11123777482E+03  0.13008170378E+03  0.47000000000E+01 0. -1.
        -13    1    6    6    0    0 -0.14576204333E+02 -0.40925598164E-01 -0.64383988606E+01  0.15934879590E+02  0.00000000000E+00 0.  1.
         14    1    6    6    0    0 -0.50601933292E+02  0.71188164647E+02  0.16512432844E+03  0.18680030589E+03  0.00000000000E+00 0. -1.
         -5    1    3    3    0  503  0.45147593407E+02 -0.92474404772E+02 -0.79702694868E+02  0.13024757310E+03  0.47000000000E+01 0.  1.
         11    1    4    4    0    0 -0.50199064019E+02 -0.25395212915E+02 -0.54983483041E+02  0.78664135886E+02  0.00000000000E+00 0. -1.
        -12    1    4    4    0    0  0.57539581710E+01  0.27533640827E+02 -0.69296030542E+00  0.28136979330E+02  0.00000000000E+00 0.  1.
</event>
<event>
12    1  0.8684423E-002  0.1855394E+03  0.7818608E-02  0.1162788E+00
         21   -1    0    0  501  502  0.00000000000E+00  0.00000000000E+00  0.42333349427E+03  0.42333349427E+03  0.00000000000E+00 0.  1.
         21   -1    0    0  502  503 -0.00000000000E+00 -0.00000000000E+00 -0.81049376240E+02  0.81049376240E+02  0.00000000000E+00 0. -1.
         -6    2    1    2    0  503 -0.68160903071E+02 -0.11218650614E+02  0.18358886290E+03  0.26101672908E+03  0.17220074171E+03 0.  0.
        -24    2    3    3    0    0 -0.32712738129E+02  0.13881030407E+02  0.17871186034E+02  0.89637019623E+02  0.80328138006E+02 0.  0.
          6    2    1    2  501    0  0.68160903071E+02  0.11218650614E+02  0.15869525513E+03  0.24336614144E+03  0.17108807079E+03 0.  0.
         24    2    5    5    0    0  0.92166239543E+02  0.35816263132E+02  0.16533340598E+03  0.20804682990E+03  0.78555253689E+02 0.  0.
          5    1    5    5  501    0 -0.24005336472E+02 -0.24597612518E+02 -0.66381508513E+01  0.35319311537E+02  0.47000000000E+01 0. -1.
        -13    1    6    6    0    0  0.40141649230E+02  0.44675984069E+02  0.13356865901E+03  0.14645095502E+03  0.00000000000E+00 0.  1.
         14    1    6    6    0    0  0.52024590314E+02 -0.88597209369E+01  0.31764746965E+02  0.61595874879E+02  0.00000000000E+00 0. -1.
         -5    1    3    3    0  503 -0.35448164942E+02 -0.25099681021E+02  0.16571767687E+03  0.17137970945E+03  0.47000000000E+01 0.  1.
         11    1    4    4    0    0  0.14099502689E+02 -0.11309575040E+02  0.30080488911E+02  0.35093279653E+02  0.00000000000E+00 0. -1.
        -12    1    4    4    0    0 -0.46812240818E+02  0.25190605447E+02 -0.12209302877E+02  0.54543739970E+02  0.00000000000E+00 0.  1.
</event>
<event>
12    1  0.8684423E-002  0.4218547E+03  0.7818608E-02  0.1036590E+00
         21   -1    0    0  503  502  0.00000000000E+00  0.00000000000E+00  0.23314535930E+04  0.23314535930E+04  0.00000000000E+00 0. -1.
         21   -1    0    0  501  503 -0.00000000000E+00 -0.00000000000E+00 -0.26753857729E+03  0.26753857729E+03  0.00000000000E+00 0.  1.
          6    2    1    2  501    0 -0.36763044065E+03 -0.10928543199E+03 -0.66893539033E+02  0.42712546778E+03  0.17568714558E+03 0.  0.
         24    2    3    3    0    0 -0.14088395446E+03 -0.29294519451E+02 -0.87297396475E+02  0.18577318896E+03  0.78640859690E+02 0.  0.
         -6    2    1    2    0  502  0.36763044065E+03  0.10928543199E+03  0.21308085548E+04  0.21718667025E+04  0.17194310096E+03 0.  0.
        -24    2    5    5    0    0  0.14331376679E+03 -0.13784935834E+02  0.85018581089E+03  0.86592605007E+03  0.79266329251E+02 0.  0.
          5    1    3    3  501    0 -0.22674648620E+03 -0.79990912543E+02  0.20403857442E+02  0.24135227882E+03  0.47000000000E+01 0. -1.
        -11    1    4    4    0    0 -0.91544054444E+02 -0.50998599521E+02 -0.34508604696E+02  0.11032685464E+03  0.00000000000E+00 0.  1.
         12    1    4    4    0    0 -0.49339900012E+02  0.21704080070E+02 -0.52788791779E+02  0.75446334320E+02  0.00000000000E+00 0. -1.
         -5    1    5    5    0  502  0.22431667386E+03  0.12307036783E+03  0.12806227439E+04  0.13059406525E+04  0.47000000000E+01 0.  1.
         11    1    6    6    0    0  0.51946338773E+02  0.32034495868E+02  0.27064336939E+03  0.27743911843E+03  0.00000000000E+00 0. -1.
        -12    1    6    6    0    0  0.91367428021E+02 -0.45819431703E+02  0.57954244150E+03  0.58848693165E+03  0.00000000000E+00 0.  1.
</event>
<event>
12    1  0.8684423E-002  0.1746489E+03  0.7818608E-02  0.1173467E+00
         21   -1    0    0  503  502  0.00000000000E+00  0.00000000000E+00  0.65658443182E+03  0.65658443182E+03  0.00000000000E+00 0.  1.
         21   -1    0    0  501  503 -0.00000000000E+00 -0.00000000000E+00 -0.63535453866E+02  0.63535453866E+02  0.00000000000E+00 0.  1.
          6    2    1    2  501    0 -0.18042505746E+01 -0.18484254068E+02  0.10859539069E+03  0.20565798351E+03  0.17365864312E+03 0.  0.
         24    2    3    3    0    0 -0.10109943823E+02  0.55646600280E+02  0.50280585722E+02  0.11085780109E+03  0.81009627056E+02 0.  0.
         -6    2    1    2    0  502  0.18042505746E+01  0.18484254068E+02  0.48445358726E+03  0.51446190218E+03  0.17213613106E+03 0.  0.
        -24    2    5    5    0    0  0.43450546019E+02  0.16542845920E+02  0.45167812791E+03  0.46122184466E+03  0.80937278497E+02 0.  0.
          5    1    3    3  501    0  0.83056932487E+01 -0.74130854348E+02  0.58314804971E+02  0.94800182412E+02  0.47000000000E+01 0. -1.
        -11    1    4    4    0    0  0.10341963130E+02 -0.12891414943E+02 -0.82179301683E+01  0.18457495953E+02  0.00000000000E+00 0.  1.
         12    1    4    4    0    0 -0.20451906953E+02  0.68538015222E+02  0.58498515890E+02  0.92400305140E+02  0.00000000000E+00 0. -1.
         -5    1    5    5    0  502 -0.41646295445E+02  0.19414081479E+01  0.32775459349E+02  0.53240057526E+02  0.47000000000E+01 0.  1.
         13    1    6    6    0    0  0.86717210718E+01  0.16918733772E+02  0.18096357727E+02  0.26247294371E+02  0.00000000000E+00 0. -1.
        -14    1    6    6    0    0  0.34778824948E+02 -0.37588785247E+00  0.43358177019E+03  0.43497455029E+03  0.00000000000E+00 0.  1.
</event>
<event>
12    1  0.8684423E-002  0.1802278E+03  0.7818608E-02  0.1167954E+00
         21   -1    0    0  503  502  0.00000000000E+00  0.00000000000E+00  0.21094787616E+04  0.21094787616E+04  0.00000000000E+00 0. -1.
         21   -1    0    0  501  503 -0.00000000000E+00 -0.00000000000E+00 -0.21354511004E+02  0.21354511004E+02  0.00000000000E+00 0. -1.
          6    2    1    2  501    0  0.41678486454E+02  0.16050136399E+02  0.47843727348E+03  0.51125755904E+03  0.17460631120E+03 0.  0.
         24    2    3    3    0    0 -0.35362838352E+02 -0.20230783260E+02  0.29517353110E+03  0.30912057546E+03  0.82269689340E+02 0.  0.
         -6    2    1    2    0  502 -0.41678486454E+02 -0.16050136399E+02  0.16096869771E+04  0.16195757136E+04  0.17302781441E+03 0.  0.
        -24    2    5    5    0    0 -0.27659536005E+02  0.51019862284E+02  0.65958106447E+03  0.66699067750E+03  0.80382255383E+02 0.  0.
          5    1    3    3  501    0  0.77041324806E+02  0.36280919659E+02  0.18326374238E+03  0.20213698358E+03  0.47000000000E+01 0. -1.
        -13    1    4    4    0    0  0.12270027875E+02  0.61229139005E+01  0.19179949134E+03  0.19228907545E+03  0.00000000000E+00 0.  1.
         14    1    4    4    0    0 -0.47632866227E+02 -0.26353697160E+02  0.10337403976E+03  0.11683150001E+03  0.00000000000E+00 0. -1.
         -5    1    5    5    0  502 -0.14018950449E+02 -0.67069998682E+02  0.95010591266E+03  0.95258503609E+03  0.47000000000E+01 0.  1.
         11    1    6    6    0    0 -0.28522297833E+02 -0.87572691276E+01  0.10378475859E+03  0.10798836674E+03  0.00000000000E+00 0. -1.
        -12    1    6    6    0    0  0.86276182805E+00  0.59777131411E+02  0.55579630589E+03  0.55900231076E+03  0.00000000000E+00 0.  1.
</event>
<event>
12    1  0.8684423E-002  0.1867571E+03  0.7818608E-02  0.1164670E+00
         21   -1    0    0  501  502  0.00000000000E+00  0.00000000000E+00  0.17190538014E+03  0.17190538014E+03  0.00000000000E+00 0.  1.
         21   -1    0    0  502  503 -0.00000000000E+00 -0.00000000000E+00 -0.31567131524E+03  0.31567131524E+03  0.00000000000E+00 0. -1.
         -6    2    1    2    0  503  0.31412896764E+02 -0.63790145254E+02 -0.22496987801E+03  0.28392921994E+03  0.15795063536E+03 0.  0.
        -24    2    3    3    0    0  0.23913727780E+02 -0.71752757817E+02 -0.24034770271E+03  0.26448164357E+03  0.80394010711E+02 0.  0.
          6    2    1    2  501    0 -0.31412896764E+02  0.63790145254E+02  0.81203942905E+02  0.20364747544E+03  0.17269123081E+03 0.  0.
         24    2    5    5    0    0  0.16744453023E+02  0.95036434436E+02  0.35059913371E+02  0.12984488479E+03  0.79487080727E+02 0.  0.
          5    1    5    5  501    0 -0.48157349787E+02 -0.31246289182E+02  0.46144029534E+02  0.73802590657E+02  0.47000000000E+01 0. -1.
        -11    1    6    6    0    0 -0.26766757328E+02  0.15165675295E+02  0.22308691540E+02  0.38001772633E+02  0.00000000000E+00 0.  1.
         12    1    6    6    0    0  0.43511210351E+02  0.79870759141E+02  0.12751221831E+02  0.91843112154E+02  0.00000000000E+00 0. -1.
         -5    1    3    3    0  503  0.74991689844E+01  0.79626125633E+01  0.15377824697E+02  0.19447576371E+02  0.47000000000E+01 0.  1.
         13    1    4    4    0    0 -0.28312210855E+02 -0.19676773004E+02 -0.10250887746E+03  0.10815186840E+03  0.00000000000E+00 0. -1.
        -14    1    4    4    0    0  0.52225938635E+02 -0.52075984813E+02 -0.13783882524E+03  0.15632977517E+03  0.00000000000E+00 0.  1.
</event>
<event>
12    1  0.8684423E-002  0.1975755E+03  0.7818608E-02  0.1151942E+00
         21   -1    0    0  501  502  0.00000000000E+00  0.00000000000E+00  0.57330590953E+03  0.57330590953E+03  0.00000000000E+00 0.  1.
         21   -1    0    0  502  503 -0.00000000000E+00 -0.00000000000E+00 -0.68261248783E+02  0.68261248783E+02  0.00000000000E+00 0.  1.
         -6    2    1    2    0  503  0.83974156615E+01  0.95805418841E+02  0.22760608340E+03  0.30096735857E+03  0.17183604644E+03 0.  0.
        -24    2    3    3    0    0 -0.26928576117E+02  0.81499740839E+02  0.66293800797E+02  0.13514721312E+03  0.80638360735E+02 0.  0.
          6    2    1    2  501    0 -0.83974156615E+01 -0.95805418841E+02  0.27743857735E+03  0.34059979974E+03  0.17258871491E+03 0.  0.
         24    2    5    5    0    0 -0.60152437240E+02 -0.26675549394E+02  0.10540376613E+03  0.14804957933E+03  0.80491138552E+02 0.  0.
          5    1    5    5  501    0  0.51755021579E+02 -0.69129869447E+02  0.17203481122E+03  0.19255022041E+03  0.47000000000E+01 0. -1.
        -11    1    6    6    0    0 -0.15320867597E+02 -0.15006416990E+02  0.98985127305E+02  0.10128167140E+03  0.00000000000E+00 0.  1.
         12    1    6    6    0    0 -0.44831569643E+02 -0.11669132403E+02  0.64186388223E+01  0.46767907929E+02  0.00000000000E+00 0. -1.
         -5    1    3    3    0  503  0.35325991778E+02  0.14305678001E+02  0.16131228260E+03  0.16582014545E+03  0.47000000000E+01 0.  1.
         11    1    4    4    0    0 -0.16278348333E+02  0.40063821416E+02  0.79390860726E+02  0.90404663473E+02  0.00000000000E+00 0. -1.
        -12    1    4    4    0    0 -0.10650227783E+02  0.41435919424E+02 -0.13097059929E+02  0.44742549649E+02  0.00000000000E+00 0.  1.
</event>
<event>
12    1  0.8684423E-002  0.2832159E+03  0.7818608E-02  0.1093962E+00
         21   -1    0    0  503  502  0.00000000000E+00  0.00000000000E+00  0.51382045143E+03  0.51382045143E+03  0.00000000000E+00 0. -1.
         21   -1    0    0  501  503 -0.00000000000E+00 -0.00000000000E+00 -0.21412176612E+03  0.21412176612E+03  0.00000000000E+00 0.  1.
          6    2    1    2  501    0 -0.21887844095E+03 -0.51746347687E+02 -0.39739608843E+02  0.28586799884E+03  0.17191806139E+03 0.  0.
         24    2    3    3    0    0 -0.84265180906E+02 -0.70518951630E+02  0.18124480902E+02  0.13807258848E+03  0.81621073442E+02 0.  0.
         -6    2    1    2    0  502  0.21887844095E+03  0.51746347687E+02  0.33943829415E+03  0.44207421872E+03  0.17212147718E+03 0.  0.
        -24    2    5    5    0    0  0.24210463882E+03  0.47163922954E+02  0.31233749260E+03  0.40578374713E+03  0.79162165064E+02 0.  0.
          5    1    3    3  501    0 -0.13461326005E+03  0.18772603943E+02 -0.57864089745E+02  0.14779541035E+03  0.47000000000E+01 0. -1.
        -13    1    4    4    0    0 -0.39987612005E+02 -0.56236783456E+02 -0.26203295364E+02  0.73811907002E+02  0.00000000000E+00 0.  1.
         14    1    4    4    0    0 -0.44277568901E+02 -0.14282168175E+02  0.44327776266E+02  0.64260681480E+02  0.00000000000E+00 0. -1.
         -5    1    5    5    0  502 -0.23226197870E+02  0.45824247334E+01  0.27100801549E+02  0.36290471594E+02  0.47000000000E+01 0.  1.
         13    1    6    6    0    0  0.20129232935E+03  0.33763402535E+02  0.20105795580E+03  0.28650108341E+03  0.00000000000E+00 0. -1.
        -14    1    6    6    0    0  0.40812309478E+02  0.13400520419E+02  0.11127953680E+03  0.11928266371E+03  0.00000000000E+00 0.  1.
</event>
<event>
12    1  0.8684423E-002  0.1754035E+03  0.7818608E-02  0.1172511E+00
         21   -1    0    0  503  502  0.00000000000E+00  0.00000000000E+00  0.12119201135E+03  0.12119201135E+03  0.00000000000E+00 0.  1.
         21   -1    0    0  501  503 -0.00000000000E+00 -0.00000000000E+00 -0.26523021443E+03  0.26523021443E+03  0.00000000000E+00 0.  1.
          6    2    1    2  501    0 -0.33549389975E+02 -0.50386751050E+01 -0.30340036427E+02  0.17800817356E+03  0.17209137756E+03 0.  0.
         24    2    3    3    0    0 -0.22651094910E+02 -0.37528078080E+02  0.40046267203E+02  0.99582056227E+02  0.79946567535E+02 0.  0.
         -6    2    1    2    0  502  0.33549389975E+02  0.50386751050E+01 -0.11369816666E+03  0.20841405222E+03  0.17134233058E+03 0.  0.
        -24    2    5    5    0    0  0.74786929035E+02 -0.17512240691E+02 -0.11713975171E+03  0.16105359468E+03  0.79478145420E+02 0.  0.
          5    1    3    3  501    0 -0.10898295065E+02  0.32489402975E+02 -0.70386303630E+02  0.78426117332E+02  0.47000000000E+01 0. -1.
        -13    1    4    4    0    0 -0.54054868338E+01  0.10303712498E+02  0.46858921452E+02  0.48281925177E+02  0.00000000000E+00 0.  1.
         14    1    4    4    0    0 -0.17245608076E+02 -0.47831790578E+02 -0.68126542495E+01  0.51300131050E+02  0.00000000000E+00 0. -1.
         -5    1    5    5    0  502 -0.41237539060E+02  0.22550915796E+02  0.34415850550E+01  0.47360457543E+02  0.47000000000E+01 0.  1.
         11    1    6    6    0    0 -0.38055683490E+01  0.19661325615E+02 -0.81146649429E+01  0.21607819476E+02  0.00000000000E+00 0. -1.
        -12    1    6    6    0    0  0.78592497384E+02 -0.37173566306E+02 -0.10902508677E+03  0.13944577520E+03  0.00000000000E+00 0.  1.
</event>
<event>
12    1  0.8684423E-002  0.1831330E+03  0.7818608E-02  0.1165802E+00
         21   -1    0    0  501  502  0.00000000000E+00  0.00000000000E+00  0.19348115431E+03  0.19348115431E+03  0.00000000000E+00 0.  1.
         21   -1    0    0  502  503 -0.00000000000E+00 -0.00000000000E+00 -0.27907566410E+03  0.27907566410E+03  0.00000000000E+00 0.  1.
         -6    2    1    2    0  503 -0.65627891288E+01 -0.62402493412E+02 -0.19119808092E+03  0.26475346722E+03  0.17204810627E+03 0.  0.
        -24    2    3    3    0    0  0.60357804053E+02 -0.24458143751E+02 -0.11734868413E+03  0.15801095990E+03  0.83399547205E+02 0.  0.
          6    2    1    2  501    0  0.65627891288E+01  0.62402493412E+02  0.10560357112E+03  0.20780335119E+03  0.16760959742E+03 0.  0.
         24    2    5    5    0    0  0.42297143235E+02  0.19996090552E+02  0.11855760629E+03  0.15066191181E+03  0.80338121074E+02 0.  0.
          5    1    5    5  501    0 -0.35734354107E+02  0.42406402860E+02 -0.12954035171E+02  0.57141439378E+02  0.47000000000E+01 0. -1.
        -11    1    6    6    0    0 -0.15034684649E+02  0.28591095542E+02  0.60684573087E+02  0.68746708267E+02  0.00000000000E+00 0.  1.
         12    1    6    6    0    0  0.57331827885E+02 -0.85950049901E+01  0.57873033207E+02  0.81915203546E+02  0.00000000000E+00 0. -1.
         -5    1    3    3    0  503 -0.66920593182E+02 -0.37944349662E+02 -0.73849396788E+02  0.10674250732E+03  0.47000000000E+01 0.  1.
         11    1    4    4    0    0  0.17425607170E+02  0.29182977142E+00  0.10876179706E+02  0.20543325798E+02  0.00000000000E+00 0. -1.
        -12    1    4    4    0    0  0.42932196883E+02 -0.24749973522E+02 -0.12822486384E+03  0.13746763410E+03  0.00000000000E+00 0.  1.
</event>
<event>
12    1  0.8684423E-002  0.1968156E+03  0.7818608E-02  0.1152781E+00
         21   -1    0    0  503  502  0.00000000000E+00  0.00000000000E+00  0.17270125397E+02  0.17270125397E+02  0.00000000000E+00 0.  1.
         21   -1    0    0  501  503 -0.00000000000E+00 -0.00000000000E+00 -0.22268523899E+04  0.22268523899E+04  0.00000000000E+00 0.  1.
          6    2    1    2  501    0  0.40266721429E+02 -0.85024355172E+02 -0.11340720336E+04  0.11510237838E+04  0.17287516816E+03 0.  0.
         24    2    3    3    0    0  0.88871633278E+02 -0.35031677507E+02 -0.80209586309E+03  0.81177170492E+03  0.80561415582E+02 0.  0.
         -6    2    1    2    0  502 -0.40266721429E+02  0.85024355172E+02 -0.10755102309E+04  0.10930987315E+04  0.17114914574E+03 0.  0.
        -24    2    5    5    0    0  0.31465902468E+02  0.57482278194E+01 -0.40743399407E+03  0.41650563222E+03  0.80320215429E+02 0.  0.
          5    1    3    3  501    0 -0.48604911848E+02 -0.49992677665E+02 -0.33197617047E+03  0.33925207889E+03  0.47000000000E+01 0. -1.
        -13    1    4    4    0    0  0.95054834105E+02 -0.20678401275E+02 -0.50613791605E+03  0.51540140457E+03  0.00000000000E+00 0.  1.
         14    1    4    4    0    0 -0.61832008275E+01 -0.14353276232E+02 -0.29595794704E+03  0.29637030034E+03  0.00000000000E+00 0. -1.
         -5    1    5    5    0  502 -0.71732623898E+02  0.79276127352E+02 -0.66807623685E+03  0.67659309924E+03  0.47000000000E+01 0.  1.
         13    1    6    6    0    0  0.24885667947E+02 -0.31405907560E+02 -0.29945132697E+03  0.30212038118E+03  0.00000000000E+00 0. -1.
        -14    1    6    6    0    0  0.65802345218E+01  0.37154135380E+02 -0.10798266711E+03  0.11438525105E+03  0.00000000000E+00 0.  1.
</event>
<event>
12    1  0.8684423E-002  0.2166593E+03  0.7818608E-02  0.1136628E+00
         21   -1    0    0  503  502  0.00000000000E+00  0.00000000000E+00  0.18025188548E+03  0.18025188548E+03  0.00000000000E+00 0.  1.
         21   -1    0    0  501  503 -0.00000000000E+00 -0.00000000000E+00 -0.26856106949E+03  0.26856106949E+03  0.00000000000E+00 0.  1.
          6    2    1    2  501    0  0.13097457322E+03  0.87645641668E+01 -0.16405975540E+01  0.21546196608E+03  0.17085084387E+03 0.  0.
         24    2    3    3    0    0  0.77061362263E+01  0.60021445962E+01  0.85588303766E+01  0.91652205354E+02  0.90727409825E+02 0.  0.
         -6    2    1    2    0  502 -0.13097457322E+03 -0.87645641668E+01 -0.86668586451E+02  0.23335098889E+03  0.17236613276E+03 0.  0.
        -24    2    5    5    0    0 -0.20080933547E+02 -0.12399517667E+02 -0.85508157805E+02  0.12229222605E+03  0.84182846066E+02 0.  0.
          5    1    3    3  501    0  0.12326843699E+03  0.27624195706E+01 -0.10199427931E+02  0.12380976073E+03  0.47000000000E+01 0. -1.
        -13    1    4    4    0    0  0.24688694709E+02  0.32068007669E+02 -0.23648218833E+02  0.46873521484E+02  0.00000000000E+00 0.  1.
         14    1    4    4    0    0 -0.16982558482E+02 -0.26065863073E+02  0.32207049210E+02  0.44778683870E+02  0.00000000000E+00 0. -1.
         -5    1    5    5    0  502 -0.11089363967E+03  0.36349534997E+01 -0.11604286466E+01  0.11105876283E+03  0.47000000000E+01 0.  1.
         11    1    6    6    0    0  0.32542698056E+02 -0.74652499670E+01 -0.43149499205E+02  0.54558559690E+02  0.00000000000E+00 0. -1.
        -12    1    6    6    0    0 -0.52623631603E+02 -0.49342676996E+01 -0.42358658600E+02  0.67733666365E+02  0.00000000000E+00 0.  1.
</event>
<event>
12    1  0.8684423E-002  0.2001384E+03  0.7818608E-02  0.1149739E+00
         21   -1    0    0  503  502  0.00000000000E+00  0.00000000000E+00  0.43715969617E+03  0.43715969617E+03  0.00000000000E+00 0.  1.
         21   -1    0    0  501  503 -0.00000000000E+00 -0.00000000000E+00 -0.17469556672E+03  0.17469556672E+03  0.00000000000E+00 0.  1.
          6    2    1    2  501    0 -0.20819709047E+02 -0.10087086885E+03 -0.79951738865E+02  0.21551719563E+03  0.17160124882E+03 0.  0.
         24    2    3    3    0    0 -0.63446946242E+01 -0.16881435712E+02 -0.99128271043E+02  0.12803245234E+03  0.78997827256E+02 0.  0.
         -6    2    1    2    0  502  0.20819709047E+02  0.10087086885E+03  0.34241586832E+03  0.39633806726E+03  0.17095860381E+03 0.  0.
        -24    2    5    5    0    0  0.43030966034E+01  0.91617293024E+02  0.11351417516E+03  0.16660669743E+03  0.80374614436E+02 0.  0.
          5    1    3    3  501    0 -0.14475014423E+02 -0.83989433137E+02  0.19176532178E+02  0.87484743285E+02  0.47000000000E+01 0. -1.
        -13    1    4    4    0    0  0.38210075910E+01 -0.44607192057E+02 -0.83197699455E+02  0.94478880586E+02  0.00000000000E+00 0.  1.
         14    1    4    4    0    0 -0.10165702215E+02  0.27725756345E+02 -0.15930571588E+02  0.33553571756E+02  0.00000000000E+00 0. -1.
         -5    1    5    5    0  502  0.16516612444E+02  0.92535758246E+01  0.22890169316E+03  0.22973136983E+03  0.47000000000E+01 0.  1.
         13    1    6    6    0    0  0.38213647991E+02  0.69972307629E+02  0.60640034773E+02  0.10016796167E+03  0.00000000000E+00 0. -1.
        -14    1    6    6    0    0 -0.33910551388E+02  0.21644985395E+02  0.52874140388E+02  0.66438735765E+02  0.00000000000E+00 0.  1.
</event>
<event>
12    1  0.8684423E-002  0.2592436E+03  0.7818608E-02  0.1107854E+00
         21   -1    0    0  503  502  0.00000000000E+00  0.00000000000E+00  0.20632068826E+03  0.20632068826E+03  0.00000000000E+00 0.  1.
         21   -1    0    0  501  503 -0.00000000000E+00 -0.00000000000E+00 -0.10642547160E+04  0.10642547160E+04  0.00000000000E+00 0.  1.
          6    2    1    2  501    0 -0.23570033319E+02  0.18969621940E+03 -0.95936076728E+03  0.99377075950E+03  0.17512006885E+03 0.  0.
         24    2    3    3    0    0 -0.19206795702E+02  0.46713800075E+02 -0.59687120645E+03  0.60404806092E+03  0.77895716761E+02 0.  0.
         -6    2    1    2    0  502  0.23570033319E+02 -0.18969621940E+03  0.10142673953E+03  0.27680464477E+03  0.17260714280E+03 0.  0.
        -24    2    5    5    0    0 -0.49580369784E+02 -0.13303888706E+03  0.47219615514E+02  0.16946622165E+03  0.79571035269E+02 0.  0.
          5    1    3    3  501    0 -0.43632376169E+01  0.14298241933E+03 -0.36248956082E+03  0.38972269858E+03  0.47000000000E+01 0.  1.
        -11    1    4    4    0    0 -0.41908728362E+02  0.27549644014E+02 -0.20474861447E+03  0.21080161177E+03  0.00000000000E+00 0.  1.
         12    1    4    4    0    0  0.22701932660E+02  0.19164156060E+02 -0.39212259198E+03  0.39324644915E+03  0.00000000000E+00 0. -1.
         -5    1    5    5    0  502  0.73150403103E+02 -0.56657332348E+02  0.54207124021E+02  0.10733842312E+03  0.47000000000E+01 0.  1.
         13    1    6    6    0    0 -0.21125123030E+02 -0.26949321133E+02  0.48800238720E+02  0.59615434509E+02  0.00000000000E+00 0. -1.
        -14    1    6    6    0    0 -0.28455246754E+02 -0.10608956592E+03 -0.15806232061E+01  0.10985078714E+03  0.00000000000E+00 0.  1.
</event>
<event>
12    1  0.8684423E-002  0.2131460E+03  0.7818608E-02  0.1139137E+00
         21   -1    0    0  501  502  0.00000000000E+00  0.00000000000E+00  0.45685421110E+03  0.45685421110E+03  0.00000000000E+00 0. -1.
         21   -1    0    0  502  503 -0.00000000000E+00 -0.00000000000E+00 -0.15439067012E+03  0.15439067012E+03  0.00000000000E+00 0. -1.
         -6    2    1    2    0  503  0.31775588692E+02  0.12065646062E+03 -0.31200600397E+02  0.21541752301E+03  0.17281077000E+03 0.  0.
        -24    2    3    3    0    0  0.34243567219E+02  0.14861966494E+03  0.21882196468E+01  0.17154344163E+03  0.78498008627E+02 0.  0.
          6    2    1    2  501    0 -0.31775588692E+02 -0.12065646062E+03  0.33366414137E+03  0.39582735820E+03  0.17256844652E+03 0.  0.
         24    2    5    5    0    0 -0.24583953904E+02 -0.32896894653E+02  0.60249760002E+02  0.10854531043E+03  0.80408173520E+02 0.  0.
          5    1    5    5  501    0 -0.71916347888E+01 -0.87759565970E+02  0.27341438137E+03  0.28728204777E+03  0.47000000000E+01 0. -1.
        -11    1    6    6    0    0 -0.16701103541E+02  0.25977104516E+02  0.21237902546E+02  0.37480465887E+02  0.00000000000E+00 0.  1.
         12    1    6    6    0    0 -0.78828503621E+01 -0.58873999168E+02  0.39011857455E+02  0.71064844544E+02  0.00000000000E+00 0. -1.
         -5    1    3    3    0  503 -0.24679785269E+01 -0.27963204314E+02 -0.33388820044E+02  0.43874081386E+02  0.47000000000E+01 0.  1.
         13    1    4    4    0    0  0.53071922162E+02  0.67245749586E+02  0.15225623155E+02  0.87008271790E+02  0.00000000000E+00 0. -1.
        -14    1    4    4    0    0 -0.18828354943E+02  0.81373915350E+02 -0.13037403508E+02  0.84535169838E+02  0.00000000000E+00 0.  1.
</event>
<event>
12    1  0.8684423E-002  0.2236812E+03  0.7818608E-02  0.1131172E+00
         21   -1    0    0  501  502  0.00000000000E+00  0.00000000000E+00  0.90951694984E+03  0.90951694984E+03  0.00000000000E+00 0. -1.
         21   -1    0    0  502  503 -0.00000000000E+00 -0.00000000000E+00 -0.13825031788E+03  0.13825031788E+03  0.00000000000E+00 0. -1.
         -6    2    1    2    0  503  0.12878821813E+03 -0.61596359148E+02 -0.20894883215E+02  0.22463109786E+03  0.17216857260E+03 0.  0.
        -24    2    3    3    0    0  0.15334069539E+03 -0.82554532415E+02 -0.19430012470E+02  0.19197677177E+03  0.78415150516E+02 0.  0.
          6    2    1    2  501    0 -0.12878821813E+03  0.61596359148E+02  0.79216151518E+03  0.82313616986E+03  0.17219980088E+03 0.  0.
         24    2    5    5    0    0 -0.30868733540E+01  0.10558254343E+02  0.40920377270E+03  0.41683032602E+03  0.78605264288E+02 0.  0.
          5    1    5    5  501    0 -0.12570134478E+03  0.51038104805E+02  0.38295774248E+03  0.40630584385E+03  0.47000000000E+01 0. -1.
        -11    1    6    6    0    0  0.60405546615E+01 -0.95528905539E+01  0.55837576049E+01  0.12606520834E+02  0.00000000000E+00 0.  1.
         12    1    6    6    0    0 -0.91274280155E+01  0.20111144897E+02  0.40362001509E+03  0.40422380518E+03  0.00000000000E+00 0. -1.
         -5    1    3    3    0  503 -0.24552477257E+02  0.20958173267E+02 -0.14648707447E+01  0.32654326090E+02  0.47000000000E+01 0.  1.
         13    1    4    4    0    0  0.81753252308E+02 -0.86140344034E+02 -0.19186875986E+02  0.12029916601E+03  0.00000000000E+00 0. -1.
        -14    1    4    4    0    0  0.71587443083E+02  0.35858116192E+01 -0.24313648384E+00  0.71677605760E+02  0.00000000000E+00 0.  1.
</event>
<event>
12    1  0.8684423E-002  0.1797417E+03  0.7818608E-02  0.1168064E+00
         21   -1    0    0  503  502  0.00000000000E+00  0.00000000000E+00  0.84439820284E+03  0.84439820284E+03  0.00000000000E+00 0.  1.
         21   -1    0    0  501  503 -0.00000000000E+00 -0.00000000000E+00 -0.40391317217E+02  0.40391317217E+02  0.00000000000E+00 0. -1.
          6    2    1    2  501    0 -0.50469285354E+02 -0.10172775445E+02  0.30021901935E+03  0.34991219816E+03  0.17221048957E+03 0.  0.
         24    2    3    3    0    0 -0.59537932160E+02 -0.49349810570E+02  0.11038792737E+03  0.15581167288E+03  0.78176810662E+02 0.  0.
         -6    2    1    2    0  502  0.50469285354E+02  0.10172775445E+02  0.50378786628E+03  0.53487732190E+03  0.17216533085E+03 0.  0.
        -24    2    5    5    0    0  0.88553160370E+02 -0.10295254932E+02  0.45258074014E+03  0.46769412779E+03  0.77206323147E+02 0.  0.
          5    1    3    3  501    0  0.90686468059E+01  0.39177035125E+02  0.18983109197E+03  0.19410052529E+03  0.47000000000E+01 0. -1.
        -13    1    4    4    0    0  0.69237457504E+01  0.15500613252E+02  0.19862682517E+02  0.26129168054E+02  0.00000000000E+00 0.  1.
         14    1    4    4    0    0 -0.66461677910E+02 -0.64850423822E+02  0.90525244856E+02  0.12968250482E+03  0.00000000000E+00 0. -1.
         -5    1    5    5    0  502 -0.38083875016E+02  0.20468030376E+02  0.51207126137E+02  0.67183194111E+02  0.47000000000E+01 0.  1.
         11    1    6    6    0    0  0.52365734670E+02  0.86539636639E+01  0.10431872767E+03  0.11704468462E+03  0.00000000000E+00 0. -1.
        -12    1    6    6    0    0  0.36187425700E+02 -0.18949218595E+02  0.34826201247E+03  0.35064944317E+03  0.00000000000E+00 0.  1.
</event>
<event>
12    1  0.8684423E-002  0.1946517E+03  0.7818608E-02  0.1155868E+00
         21   -1    0    0  503  502  0.00000000000E+00  0.00000000000E+00  0.13505160890E+03  0.13505160890E+03  0.00000000000E+00 0. -1.
         21   -1    0    0  501  503 -0.00000000000E+00 -0.00000000000E+00 -0.40028879069E+03  0.40028879069E+03  0.00000000000E+00 0. -1.
          6    2    1    2  501    0  0.32444628070E+02 -0.82511822799E+02 -0.28651628082E+03  0.34638251966E+03  0.17328709115E+03 0.  0.
         24    2    3    3    0    0  0.53722768266E+02 -0.74172171136E+02 -0.10661284960E+03  0.16497236668E+03  0.86382493985E+02 0.  0.
         -6    2    1    2    0  502 -0.32444628070E+02  0.82511822799E+02  0.21279099026E+02  0.18895787992E+03  0.16550355144E+03 0.  0.
        -24    2    5    5    0    0 -0.48849227070E+02  0.11357161599E+03 -0.33863479207E-01  0.14760387175E+03  0.80635865877E+02 0.  0.
          5    1    3    3  501    0 -0.21278140196E+02 -0.83396516629E+01 -0.17990343122E+03  0.18141015298E+03  0.47000000000E+01 0. -1.
        -13    1    4    4    0    0 -0.14770825253E+02 -0.11223206318E+02  0.54442240489E+01  0.19333318758E+02  0.00000000000E+00 0.  1.
         14    1    4    4    0    0  0.68493593519E+02 -0.62948964818E+02 -0.11205707365E+03  0.14563904792E+03  0.00000000000E+00 0. -1.
         -5    1    5    5    0  502  0.16404599000E+02 -0.31059793188E+02  0.21312962506E+02  0.41354008173E+02  0.47000000000E+01 0.  1.
         11    1    6    6    0    0 -0.26835099209E+02  0.60405685113E+01  0.22519865903E+02  0.35549337234E+02  0.00000000000E+00 0. -1.
        -12    1    6    6    0    0 -0.22014127861E+02  0.10753104748E+03 -0.22553729382E+02  0.11205453452E+03  0.00000000000E+00 0.  1.
</event>
<event>
12    1  0.8684423E-002  0.2096384E+03  0.7818608E-02  0.1142010E+00
         21   -1    0    0  503  502  0.00000000000E+00  0.00000000000E+00  0.28310289628E+03  0.28310289628E+03  0.00000000000E+00 0. -1.
         21   -1    0    0  501  503 -0.00000000000E+00 -0.00000000000E+00 -0.17539858776E+03  0.17539858776E+03  0.00000000000E+00 0.  1.
          6    2    1    2  501    0  0.45669215904E+02  0.10696018829E+03 -0.25085082038E+02  0.21034575022E+03  0.17346444631E+03 0.  0.
         24    2    3    3    0    0 -0.15835889474E+01  0.12701907331E+03 -0.44832559731E+02  0.15514394490E+03  0.76963189186E+02 0.  0.
         -6    2    1    2    0  502 -0.45669215904E+02 -0.10696018829E+03  0.13278939056E+03  0.24815573383E+03  0.17441928456E+03 0.  0.
        -24    2    5    5    0    0 -0.21018324843E+02 -0.80614864442E+02  0.16585829141E+03  0.19898882704E+03  0.71742972551E+02 0.  0.
          5    1    3    3  501    0  0.47252804851E+02 -0.20058885020E+02  0.19747477693E+02  0.55201805313E+02  0.47000000000E+01 0. -1.
        -13    1    4    4    0    0 -0.22794163116E+01  0.56099594245E+02  0.19454644146E+02  0.59420900296E+02  0.00000000000E+00 0.  1.
         14    1    4    4    0    0  0.69582736424E+00  0.70919479064E+02 -0.64287203877E+02  0.95723044607E+02  0.00000000000E+00 0. -1.
         -5    1    5    5    0  502 -0.24650891061E+02 -0.26345323847E+02 -0.33068900856E+02  0.49166906782E+02  0.47000000000E+01 0.  1.
         11    1    6    6    0    0 -0.14215197867E+02 -0.93892363126E+02  0.14097582602E+03  0.16997656082E+03  0.00000000000E+00 0. -1.
        -12    1    6    6    0    0 -0.68031269766E+01  0.13277498684E+02  0.24882465387E+02  0.29012266228E+02  0.00000000000E+00 0.  1.
</event>
<event>
12    1  0.8684423E-002  0.2006697E+03  0.7818608E-02  0.1149320E+00
         21   -1    0    0  501  502  0.00000000000E+00  0.00000000000E+00  0.27488903714E+03  0.27488903714E+03  0.00000000000E+00 0. -1.
         21   -1    0    0  502  503 -0.00000000000E+00 -0.00000000000E+00 -0.14787285528E+03  0.14787285528E+03  0.00000000000E+00 0. -1.
         -6    2    1    2    0  503 -0.92619022317E+02 -0.41123180164E+02  0.39534641497E+02  0.20385243195E+03  0.17240483430E+03 0.  0.
        -24    2    3    3    0    0 -0.12316395449E+03 -0.21777931628E+02 -0.85064285232E+01  0.14354268206E+03  0.69917839322E+02 0.  0.
          6    2    1    2  501    0  0.92619022317E+02  0.41123180164E+02  0.87481540363E+02  0.21890946047E+03  0.17320199981E+03 0.  0.
         24    2    5    5    0    0  0.99728241384E+02  0.28228846423E+02  0.36957151533E+01  0.13370993381E+03  0.84392524480E+02 0.  0.
          5    1    5    5  501    0 -0.71092190672E+01  0.12894333740E+02  0.83785825210E+02  0.85199526668E+02  0.47000000000E+01 0. -1.
        -13    1    6    6    0    0  0.14203573820E+02  0.30076885194E+02 -0.26983129758E+02  0.42830477744E+02  0.00000000000E+00 0.  1.
         14    1    6    6    0    0  0.85524667564E+02 -0.18480387705E+01  0.30678844911E+02  0.90879456063E+02  0.00000000000E+00 0. -1.
         -5    1    3    3    0  503  0.30544932175E+02 -0.19345248535E+02  0.48041070020E+02  0.60309749884E+02  0.47000000000E+01 0.  1.
         11    1    4    4    0    0 -0.36905074775E+02 -0.14040589950E+02  0.29175234462E+02  0.49094979542E+02  0.00000000000E+00 0. -1.
        -12    1    4    4    0    0 -0.86258879717E+02 -0.77373416781E+01 -0.37681662985E+02  0.94447702521E+02  0.00000000000E+00 0.  1.
</event>
<event>
12    1  0.8684423E-002  0.2475143E+03  0.7818608E-02  0.1114889E+00
         21   -1    0    0  501  502  0.00000000000E+00  0.00000000000E+00  0.41217394015E+03  0.41217394015E+03  0.00000000000E+00 0. -1.
         21   -1    0    0  502  503 -0.00000000000E+00 -0.00000000000E+00 -0.14873262114E+03  0.14873262114E+03  0.00000000000E+00 0. -1.
         -6    2    1    2    0  503 -0.17699682735E+03  0.19942118694E+02  0.13930642735E+03  0.28400803859E+03  0.17183922804E+03 0.  0.
        -24    2    3    3    0    0 -0.14812944212E+03  0.74712292868E+02  0.11255198963E+03  0.21639895749E+03  0.81463489399E+02 0.  0.
          6    2    1    2  501    0  0.17699682735E+03 -0.19942118694E+02  0.12413489166E+03  0.27689852269E+03  0.17186551590E+03 0.  0.
         24    2    5    5    0    0  0.97317882804E+02  0.28516075399E+02  0.13016138928E+03  0.18332855181E+03  0.79896394034E+02 0.  0.
          5    1    5    5  501    0  0.79678944542E+02 -0.48458194093E+02 -0.60264976194E+01  0.93569970886E+02  0.47000000000E+01 0. -1.
        -11    1    6    6    0    0  0.36089528885E+02  0.13847703911E+02  0.11096680863E+03  0.11750678966E+03  0.00000000000E+00 0.  1.
         12    1    6    6    0    0  0.61228353920E+02  0.14668371488E+02  0.19194580646E+02  0.65821762146E+02  0.00000000000E+00 0. -1.
         -5    1    3    3    0  503 -0.28867385222E+02 -0.54770174173E+02  0.26754437723E+02  0.67609081094E+02  0.47000000000E+01 0.  1.
         13    1    4    4    0    0 -0.75418139075E+02  0.16051385556E+02  0.10131706910E+02  0.77770136716E+02  0.00000000000E+00 0. -1.
        -14    1    4    4    0    0 -0.72711303049E+02  0.58660907312E+02  0.10242028272E+03  0.13862882078E+03  0.00000000000E+00 0.  1.
</event>
<event>
12    1  0.8684423E-002  0.1843918E+03  0.7818608E-02  0.1163640E+00
         21   -1    0    0  501  502  0.00000000000E+00  0.00000000000E+00  0.51988022781E+02  0.51988022781E+02  0.00000000000E+00 0.  1.
         21   -1    0    0  502  503 -0.00000000000E+00 -0.00000000000E+00 -0.11859152825E+04  0.11859152825E+04  0.00000000000E+00 0.  1.
         -6    2    1    2    0  503 -0.51627447874E+02  0.40726319834E+02 -0.98153624870E+03  0.99868929739E+03  0.17217107395E+03 0.  0.
        -24    2    3    3    0    0 -0.99437397833E+02  0.30981285064E+02 -0.79854239785E+03  0.80924380004E+03  0.79736632886E+02 0.  0.
          6    2    1    2  501    0  0.51627447874E+02 -0.40726319834E+02 -0.15239101099E+03  0.23921400786E+03  0.17226808998E+03 0.  0.
         24    2    5    5    0    0 -0.40725370611E+01 -0.11611510855E+02 -0.82392334314E+01  0.81886370758E+02  0.80536203076E+02 0.  0.
          5    1    5    5  501    0  0.55699984936E+02 -0.29114808979E+02 -0.14415177755E+03  0.15732763710E+03  0.47000000000E+01 0. -1.
        -11    1    6    6    0    0  0.15570928281E+02  0.22445362630E+01  0.31632618306E+02  0.35328661048E+02  0.00000000000E+00 0.  1.
         12    1    6    6    0    0 -0.19643465342E+02 -0.13856047118E+02 -0.39871851738E+02  0.46557709709E+02  0.00000000000E+00 0. -1.
         -5    1    3    3    0  503  0.47809949958E+02  0.97450347693E+01 -0.18299385085E+03  0.18944549735E+03  0.47000000000E+01 0.  1.
         13    1    4    4    0    0 -0.16719968221E+01 -0.20595974955E+01  0.11707233853E+01  0.28996738543E+01  0.00000000000E+00 0. -1.
        -14    1    4    4    0    0 -0.97765401011E+02  0.33040882560E+02 -0.79971312123E+03  0.80634412618E+03  0.00000000000E+00 0.  1.
</event>
<event>
12    1  0.8684423E-002  0.1775039E+03  0.7818608E-02  0.1170290E+00
         21   -1    0    0  501  502  0.00000000000E+00  0.00000000000E+00  0.43857854575E+03  0.43857854575E+03  0.00000000000E+00 0.  1.
         21   -1    0    0  502  503 -0.00000000000E+00 -0.00000000000E+00 -0.78293118714E+02  0.78293118714E+02  0.00000000000E+00 0.  1.
         -6    2    1    2    0  503 -0.42215720989E+02  0.89496104557E+01  0.10558127376E+03  0.20653099239E+03  0.17217834597E+03 0.  0.
        -24    2    3    3    0    0  0.15981113652E+02 -0.41767928599E+02  0.22532813282E+02  0.93048495418E+02  0.78424096884E+02 0.  0.
          6    2    1    2  501    0  0.42215720989E+02 -0.89496104557E+01  0.25470415327E+03  0.31034067207E+03  0.17197344104E+03 0.  0.
         24    2    5    5    0    0  0.58945987422E+02 -0.52435312429E+02  0.10853634364E+03  0.15685442949E+03  0.81234738487E+02 0.  0.
          5    1    5    5  501    0 -0.16730266433E+02  0.43485701973E+02  0.14616780963E+03  0.15348624258E+03  0.47000000000E+01 0. -1.
        -11    1    6    6    0    0  0.10713073522E+02 -0.50818402745E+02  0.92350756924E+02  0.10595254743E+03  0.00000000000E+00 0.  1.
         12    1    6    6    0    0  0.48232913900E+02 -0.16169096834E+01  0.16185586718E+02  0.50901882064E+02  0.00000000000E+00 0. -1.
         -5    1    3    3    0  503 -0.58196834641E+02  0.50717539055E+02  0.83048460479E+02  0.11348249697E+03  0.47000000000E+01 0.  1.
         13    1    4    4    0    0 -0.17220220535E+02 -0.14459765023E+02  0.40604828514E+02  0.46415222701E+02  0.00000000000E+00 0. -1.
        -14    1    4    4    0    0  0.33201334187E+02 -0.27308163576E+02 -0.18072015232E+02  0.46633272717E+02  0.00000000000E+00 0.  1.
</event>
<event>
12    1  0.8684423E-002  0.1809533E+03  0.7818608E-02  0.1166934E+00
         21   -1    0    0  503  502  0.00000000000E+00  0.00000000000E+00  0.44665625980E+03  0.44665625980E+03  0.00000000000E+00 0.  1.
         21   -1    0    0  501  503 -0.00000000000E+00 -0.00000000000E+00 -0.52698572395E+03  0.52698572395E+03  0.00000000000E+00 0.  1.
          6    2    1    2  501    0  0.19493659465E+02 -0.50974598617E+02 -0.49189624868E+03  0.52405180648E+03  0.17230775940E+03 0.  0.
         24    2    3    3    0    0 -0.20173866180E+02 -0.76664308898E+02 -0.43466550482E+03  0.44968163875E+03  0.83636559105E+02 0.  0.
         -6    2    1    2    0  502 -0.19493659465E+02  0.50974598617E+02  0.41156678453E+03  0.44959017727E+03  0.17252738017E+03 0.  0.
        -24    2    5    5    0    0  0.49082814694E+02  0.48308871322E+02  0.30441041181E+03  0.32225433344E+03  0.80245167176E+02 0.  0.
          5    1    3    3  501    0  0.39667525644E+02  0.25689710281E+02 -0.57230743863E+02  0.74370167730E+02  0.47000000000E+01 0. -1.
        -13    1    4    4    0    0  0.30476688536E+01 -0.49001108769E+02 -0.38583057621E+03  0.38894168005E+03  0.00000000000E+00 0.  1.
         14    1    4    4    0    0 -0.23221535033E+02 -0.27663200128E+02 -0.48834928611E+02  0.60739958701E+02  0.00000000000E+00 0. -1.
         -5    1    5    5    0  502 -0.68576474158E+02  0.26657272951E+01  0.10715637271E+03  0.12733584383E+03  0.47000000000E+01 0.  1.
         11    1    6    6    0    0  0.18632998234E+02  0.11393547909E+02  0.10071283496E+02  0.24050619709E+02  0.00000000000E+00 0. -1.
        -12    1    6    6    0    0  0.30449816460E+02  0.36915323413E+02  0.29433912832E+03  0.29820371373E+03  0.00000000000E+00 0.  1.
</event>
<event>
12    1  0.8684423E-002  0.1903329E+03  0.7818608E-02  0.1159037E+00
         21   -1    0    0  503  502  0.00000000000E+00  0.00000000000E+00  0.17403047874E+02  0.17403047874E+02  0.00000000000E+00 0.  1.
         21   -1    0    0  501  503 -0.00000000000E+00 -0.00000000000E+00 -0.27706502928E+04  0.27706502928E+04  0.00000000000E+00 0.  1.
          6    2    1    2  501    0 -0.46425125370E+02 -0.69673598626E+02 -0.67100027656E+03  0.69747255876E+03  0.17092950732E+03 0.  0.
         24    2    3    3    0    0 -0.77010638008E+01  0.99693195247E+01 -0.48364999355E+03  0.49019311960E+03  0.78824390424E+02 0.  0.
         -6    2    1    2    0  502  0.46425125370E+02  0.69673598626E+02 -0.20822469684E+04  0.20905807819E+04  0.16663092696E+03 0.  0.
        -24    2    5    5    0    0  0.47407750381E+02  0.10384552160E+03 -0.18966366540E+04  0.19017899859E+04  0.80889838080E+02 0.  0.
          5    1    3    3  501    0 -0.38724061569E+02 -0.79642918151E+02 -0.18735028301E+03  0.20727943917E+03  0.47000000000E+01 0. -1.
        -13    1    4    4    0    0 -0.29873576009E+02 -0.10275544985E+02 -0.89697736856E+02  0.95098377301E+02  0.00000000000E+00 0.  1.
         14    1    4    4    0    0  0.22172512208E+02  0.20244864510E+02 -0.39395225669E+03  0.39509474229E+03  0.00000000000E+00 0. -1.
         -5    1    5    5    0  502 -0.98262501124E+00 -0.34171922972E+02 -0.18561031439E+03  0.18879079607E+03  0.47000000000E+01 0.  1.
         11    1    6    6    0    0  0.32983471900E+02  0.39858319435E+02 -0.13849942104E+04  0.13859601574E+04  0.00000000000E+00 0. -1.
        -12    1    6    6    0    0  0.14424278481E+02  0.63987202164E+02 -0.51164244362E+03  0.51582982850E+03  0.00000000000E+00 0.  1.
</event>
<event>
12    1  0.8684423E-002  0.2167648E+03  0.7818608E-02  0.1136848E+00
         21   -1    0    0  503  502  0.00000000000E+00  0.00000000000E+00  0.10775166041E+03  0.10775166041E+03  0.00000000000E+00 0.  1.
         21   -1    0    0  501  503 -0.00000000000E+00 -0.00000000000E+00 -0.57812505642E+03  0.57812505642E+03  0.00000000000E+00 0.  1.
          6    2    1    2  501    0 -0.10428603315E+03  0.76735364680E+02 -0.40959337094E+03  0.46341524949E+03  0.17384783874E+03 0.  0.
         24    2    3    3    0    0  0.11786362098E+02  0.55389656955E+02 -0.22647855001E+03  0.24551259272E+03  0.76006362528E+02 0.  0.
         -6    2    1    2    0  502  0.10428603315E+03 -0.76735364680E+02 -0.60780025063E+02  0.22246146734E+03  0.17038485878E+03 0.  0.
        -24    2    5    5    0    0 -0.71443563280E+01 -0.60935097251E+02 -0.34814732551E+02  0.10686446666E+03  0.80273412338E+02 0.  0.
          5    1    3    3  501    0 -0.11607239525E+03  0.21345707726E+02 -0.18311482094E+03  0.21790265676E+03  0.47000000000E+01 0. -1.
        -11    1    4    4    0    0 -0.15615610569E+02  0.80828627079E+01 -0.15257992643E+03  0.15358975848E+03  0.00000000000E+00 0.  1.
         12    1    4    4    0    0  0.27401972666E+02  0.47306794247E+02 -0.73898623580E+02  0.91922834241E+02  0.00000000000E+00 0. -1.
         -5    1    5    5    0  502  0.11143038948E+03 -0.15800267429E+02 -0.25965292512E+02  0.11559700068E+03  0.47000000000E+01 0.  1.
         13    1    6    6    0    0  0.93952021219E+01 -0.51711477955E+02 -0.57108762638E+02  0.77612869714E+02  0.00000000000E+00 0. -1.
        -14    1    6    6    0    0 -0.16539558450E+02 -0.92236192960E+01  0.22294030087E+02  0.29251596950E+02  0.00000000000E+00 0.  1.
</event>
<event>
12    1  0.8684423E-002  0.1948265E+03  0.7818608E-02  0.1154266E+00
         21   -1    0    0  503  502  0.00000000000E+00  0.00000000000E+00  0.71512301057E+03  0.71512301057E+03  0.00000000000E+00 0. -1.
         21   -1    0    0  501  503 -0.00000000000E+00 -0.00000000000E+00 -0.55447636129E+02  0.55447636129E+02  0.00000000000E+00 0. -1.
          6    2    1    2  501    0 -0.88135294342E+02  0.28301713298E+02  0.41096592278E+03  0.45463752428E+03  0.17097798604E+03 0.  0.
         24    2    3    3    0    0 -0.66239293559E+02 -0.48272092799E+02  0.25537658330E+03  0.27978582943E+03  0.79655960846E+02 0.  0.
         -6    2    1    2    0  502  0.88135294342E+02 -0.28301713298E+02  0.24870945166E+03  0.31593312242E+03  0.17143082982E+03 0.  0.
        -24    2    5    5    0    0  0.69721383079E+02  0.17678393434E+02  0.64097409403E+02  0.12473443391E+03  0.79225022925E+02 0.  0.
          5    1    3    3  501    0 -0.21896000783E+02  0.76573806096E+02  0.15558933948E+03  0.17485169484E+03  0.47000000000E+01 0. -1.
        -13    1    4    4    0    0  0.18500516328E+02 -0.10654127343E+02  0.41193936249E+02  0.46397412832E+02  0.00000000000E+00 0.  1.
         14    1    4    4    0    0 -0.84739809887E+02 -0.37617965455E+02  0.21418264705E+03  0.23338841660E+03  0.00000000000E+00 0. -1.
         -5    1    5    5    0  502  0.18413911263E+02 -0.45980106732E+02  0.18461204226E+03  0.19119868851E+03  0.47000000000E+01 0.  1.
         13    1    6    6    0    0  0.30906053198E+02 -0.21756495880E+02  0.57777363728E+02  0.69041675795E+02  0.00000000000E+00 0. -1.
        -14    1    6    6    0    0  0.38815329881E+02  0.39434889314E+02  0.63200456746E+01  0.55692758113E+02  0.00000000000E+00 0.  1.
</event>
<event>
12    1  0.8684423E-002  0.2339744E+03  0.7818608E-02  0.1124078E+00
         21   -1    0    0  501  502  0.00000000000E+00  0.00000000000E+00  0.14836086406E+03  0.14836086406E+03  0.00000000000E+00 0.  1.
         21   -1    0    0  502  503 -0.00000000000E+00 -0.00000000000E+00 -0.43451713271E+03  0.43451713271E+03  0.00000000000E+00 0. -1.
         -6    2    1    2    0  503  0.91139390323E+02 -0.12618210707E+03 -0.25754730658E+03  0.34716106122E+03  0.17309498747E+03 0.  0.
        -24    2    3    3    0    0  0.72734250516E+02 -0.72466986231E+01 -0.13444623241E+03  0.17493927103E+03  0.84765401549E+02 0.  0.
          6    2    1    2  501    0 -0.91139390323E+02  0.12618210707E+03 -0.28608962076E+02  0.23571693556E+03  0.17468740190E+03 0.  0.
         24    2    5    5    0    0 -0.97176674296E+02  0.15227770240E+03 -0.47018805998E+02  0.20287730635E+03  0.79477220875E+02 0.  0.
          5    1    5    5  501    0  0.60372839728E+01 -0.26095595329E+02  0.18409843922E+02  0.32839629209E+02  0.47000000000E+01 0. -1.
        -13    1    6    6    0    0  0.95724294357E+01  0.33051769767E+02  0.46235242084E+01  0.34719272258E+02  0.00000000000E+00 0.  1.
         14    1    6    6    0    0 -0.10674910373E+03  0.11922593263E+03 -0.51642330207E+02  0.16815803409E+03  0.00000000000E+00 0. -1.
         -5    1    3    3    0  503  0.18405139807E+02 -0.11893540845E+03 -0.12310107417E+03  0.17222179019E+03  0.47000000000E+01 0.  1.
         11    1    4    4    0    0  0.68915711352E+02 -0.38740897951E+02 -0.84051305396E+02  0.11539000990E+03  0.00000000000E+00 0. -1.
        -12    1    4    4    0    0  0.38185391637E+01  0.31494199328E+02 -0.50394927010E+02  0.59549261129E+02  0.00000000000E+00 0.  1.
</event>
<event>
12    1  0.8684423E-002  0.2133029E+03  0.7818608E-02  0.1140913E+00
         21   -1    0    0  501  502  0.00000000000E+00  0.00000000000E+00  0.17721643745E+04  0.17721643745E+04  0.00000000000E+00 0. -1.
         21   -1    0    0  502  503 -0.00000000000E+00 -0.00000000000E+00 -0.33234860705E+02  0.33234860705E+02  0.00000000000E+00 0. -1.
         -6    2    1    2    0  503  0.10054165043E+02  0.11635153102E+03  0.39222633189E+03  0.44190828112E+03  0.16674132208E+03 0.  0.
        -24    2    3    3    0    0  0.13004964786E+02  0.77800401084E+02  0.11180486181E+03  0.15879489797E+03  0.80582013987E+02 0.  0.
          6    2    1    2  501    0 -0.10054165043E+02 -0.11635153102E+03  0.13467031819E+04  0.13634909541E+04  0.17849189539E+03 0.  0.
         24    2    5    5    0    0  0.29337445503E+02 -0.98041253544E+02  0.53127071128E+03  0.54688874408E+03  0.79786945237E+02 0.  0.
          5    1    5    5  501    0 -0.39391610546E+02 -0.18310277471E+02  0.81543247065E+03  0.81660221003E+03  0.47000000000E+01 0. -1.
        -11    1    6    6    0    0  0.16519887541E+02 -0.28361031532E+02  0.46203406645E+02  0.56674593775E+02  0.00000000000E+00 0.  1.
         12    1    6    6    0    0  0.12817557962E+02 -0.69680222012E+02  0.48506730464E+03  0.49021415030E+03  0.00000000000E+00 0. -1.
         -5    1    3    3    0  503 -0.29507997430E+01  0.38551129931E+02  0.28042147008E+03  0.28311338315E+03  0.47000000000E+01 0.  1.
         13    1    4    4    0    0  0.35013538979E+01  0.87647976875E+02  0.11510316084E+03  0.14471753510E+03  0.00000000000E+00 0. -1.
        -14    1    4    4    0    0  0.95036108880E+01 -0.98475757913E+01 -0.32982990294E+01  0.14077362870E+02  0.00000000000E+00 0.  1.
</event>
<event>
12    1  0.8684423E-002  0.1727117E+03  0.7818608E-02  0.1175448E+00
         21   -1    0    0  503  502  0.00000000000E+00  0.00000000000E+00  0.13288336706E+04  0.13288336706E+04  0.00000000000E+00 0.  1.
         21   -1    0    0  501  503 -0.00000000000E+00 -0.00000000000E+00 -0.39754981770E+02  0.39754981770E+02  0.00000000000E+00 0.  1.
          6    2    1    2  501    0 -0.22631531380E+01  0.19231558143E+01  0.18878257372E+03  0.25481988724E+03  0.17113005115E+03 0.  0.
         24    2    3    3    0    0  0.20987558329E+01  0.67759271402E+02  0.11280297439E+03  0.15408057079E+03  0.80128569354E+02 0.  0.
         -6    2    1    2    0  502  0.22631531380E+01 -0.19231558143E+01  0.11002961151E+04  0.11137687651E+04  0.17268613392E+03 0.  0.
        -24    2    5    5    0    0 -0.23010136397E+02 -0.44143679058E+01  0.26559392001E+03  0.27866710077E+03  0.81032522386E+02 0.  0.
          5    1    3    3  501    0 -0.43619089710E+01 -0.65836115588E+02  0.75979599326E+02  0.10073931645E+03  0.47000000000E+01 0. -1.
        -13    1    4    4    0    0  0.31833734528E+02  0.51653792680E+02  0.36975046724E+02  0.71053888229E+02  0.00000000000E+00 0.  1.
         14    1    4    4    0    0 -0.29734978695E+02  0.16105478722E+02  0.75827927667E+02  0.83026682562E+02  0.00000000000E+00 0. -1.
         -5    1    5    5    0  502  0.25273289535E+02  0.24912120915E+01  0.83470219510E+03  0.83510166435E+03  0.47000000000E+01 0.  1.
         11    1    6    6    0    0 -0.23924424987E+02  0.24090445192E+02  0.23256042055E+03  0.23502569405E+03  0.00000000000E+00 0. -1.
        -12    1    6    6    0    0  0.91428858987E+00 -0.28504813098E+02  0.33033499462E+02  0.43641406715E+02  0.00000000000E+00 0.  1.
</event>
<event>
12    1  0.8684423E-002  0.2192777E+03  0.7818608E-02  0.1134926E+00
         21   -1    0    0  501  502  0.00000000000E+00  0.00000000000E+00  0.16228013032E+03  0.16228013032E+03  0.00000000000E+00 0.  1.
         21   -1    0    0  502  503 -0.00000000000E+00 -0.00000000000E+00 -0.90909163027E+03  0.90909163027E+03  0.00000000000E+00 0.  1.
         -6    2    1    2    0  503 -0.13593369581E+03  0.82522192388E+01 -0.81376561066E+03  0.84209999587E+03  0.16843950004E+03 0.  0.
        -24    2    3    3    0    0 -0.44871942724E+02  0.20163937369E+02 -0.62727285442E+03  0.63416786744E+03  0.79231146563E+02 0.  0.
          6    2    1    2  501    0  0.13593369581E+03 -0.82522192388E+01  0.66954110705E+02  0.22927176472E+03  0.17186221336E+03 0.  0.
         24    2    5    5    0    0  0.16052699469E+03 -0.32249739938E+02  0.70262168407E+02  0.19443292726E+03  0.77835911657E+02 0.  0.
          5    1    5    5  501    0 -0.24593298883E+02  0.23997520700E+02 -0.33080577023E+01  0.34838837458E+02  0.47000000000E+01 0. -1.
        -13    1    6    6    0    0  0.14187544607E+03 -0.32127973848E+02  0.86892503886E+02  0.16944366654E+03  0.00000000000E+00 0.  1.
         14    1    6    6    0    0  0.18651548626E+02 -0.12176609021E+00 -0.16630335479E+02  0.24989260719E+02  0.00000000000E+00 0. -1.
         -5    1    3    3    0  503 -0.91061753087E+02 -0.11911718130E+02 -0.18649275623E+03  0.20793212843E+03  0.47000000000E+01 0.  1.
         13    1    4    4    0    0  0.53686501405E+01  0.34930853970E+02 -0.15381015150E+03  0.15781809043E+03  0.00000000000E+00 0. -1.
        -14    1    4    4    0    0 -0.50240592865E+02 -0.14766916602E+02 -0.47346270293E+03  0.47634977701E+03  0.00000000000E+00 0.  1.
</event>
<event>
12    1  0.8684423E-002  0.2432626E+03  0.7818608E-02  0.1117873E+00
         21   -1    0    0  501  502  0.00000000000E+00  0.00000000000E+00  0.13741658919E+04  0.13741658919E+04  0.00000000000E+00 0. -1.
         21   -1    0    0  502  503 -0.00000000000E+00 -0.00000000000E+00 -0.42895362935E+02  0.42895362935E+02  0.00000000000E+00 0.  1.
         -6    2    1    2    0  503 -0.11220894995E+03  0.12762729143E+03  0.69512821508E+03  0.73599317390E+03  0.17205563830E+03 0.  0.
        -24    2    3    3    0    0 -0.55185172819E+02  0.14593872433E+03  0.43316323371E+03  0.46722792095E+03  0.79548906457E+02 0.  0.
          6    2    1    2  501    0  0.11220894995E+03 -0.12762729143E+03  0.63614231389E+03  0.68106808093E+03  0.17406066005E+03 0.  0.
         24    2    5    5    0    0  0.49103312488E+02 -0.29032365081E+00  0.16922939406E+03  0.19298326295E+03  0.78693915766E+02 0.  0.
          5    1    5    5  501    0  0.63105637464E+02 -0.12733696778E+03  0.46691291983E+03  0.48808481799E+03  0.47000000000E+01 0. -1.
        -11    1    6    6    0    0  0.23270192417E+02  0.36959306634E+02  0.11032609535E+03  0.11865639265E+03  0.00000000000E+00 0.  1.
         12    1    6    6    0    0  0.25833120071E+02 -0.37249630285E+02  0.58903298712E+02  0.74326870297E+02  0.00000000000E+00 0. -1.
         -5    1    3    3    0  503 -0.57023777133E+02 -0.18311432896E+02  0.26196498137E+03  0.26876525296E+03  0.47000000000E+01 0.  1.
         11    1    4    4    0    0 -0.15982251211E+02  0.12838286883E+03  0.35796133081E+03  0.38062305201E+03  0.00000000000E+00 0. -1.
        -12    1    4    4    0    0 -0.39202921608E+02  0.17555855498E+02  0.75201902897E+02  0.86604868941E+02  0.00000000000E+00 0.  1.
</event>
<event>
12    1  0.8684423E-002  0.2239435E+03  0.7818608E-02  0.1131155E+00
         21   -1    0    0  503  502  0.00000000000E+00  0.00000000000E+00  0.42736703900E+02  0.42736703900E+02  0.00000000000E+00 0. -1.
         21   -1    0    0  501  503 -0.00000000000E+00 -0.00000000000E+00 -0.19375873705E+04  0.19375873705E+04  0.00000000000E+00 0.  1.
          6    2    1    2  501    0 -0.12508882428E+03  0.69383418869E+02 -0.15700569334E+04  0.15858096398E+04  0.17103264822E+03 0.  0.
         24    2    3    3    0    0 -0.79589488206E+02  0.66567735742E+02 -0.14685087997E+04  0.14743994468E+04  0.81054819118E+02 0.  0.
         -6    2    1    2    0  502  0.12508882428E+03 -0.69383418869E+02 -0.32479373323E+03  0.39451443464E+03  0.17230611487E+03 0.  0.
        -24    2    5    5    0    0  0.14142819088E+03 -0.12781937473E+02 -0.26444734386E+03  0.31004858766E+03  0.77668641884E+02 0.  0.
          5    1    3    3  501    0 -0.45499336073E+02  0.28156831271E+01 -0.10154813366E+03  0.11141019300E+03  0.47000000000E+01 0. -1.
        -11    1    4    4    0    0 -0.83155838537E+02  0.24448117392E+02 -0.11170913744E+04  0.11204489023E+04  0.00000000000E+00 0.  1.
         12    1    4    4    0    0  0.35663503311E+01  0.42119618350E+02 -0.35141742528E+03  0.35395054442E+03  0.00000000000E+00 0. -1.
         -5    1    5    5    0  502 -0.16339366599E+02 -0.56601481397E+02 -0.60346389373E+02  0.84465846989E+02  0.47000000000E+01 0.  1.
         13    1    6    6    0    0  0.86423207930E+02  0.49141820125E+01 -0.84171991409E+02  0.12073957177E+03  0.00000000000E+00 0. -1.
        -14    1    6    6    0    0  0.55004982949E+02 -0.17696119485E+02 -0.18027535245E+03  0.18930901588E+03  0.00000000000E+00 0.  1.
</event>
<event>
12    1  0.8684423E-002  0.1838930E+03  0.7818608E-02  0.1165355E+00
         21   -1    0    0  501  502  0.00000000000E+00  0.00000000000E+00  0.10299130367E+04  0.10299130367E+04  0.00000000000E+00 0.  1.
         21   -1    0    0  502  503 -0.00000000000E+00 -0.00000000000E+00 -0.10172064759E+03  0.10172064759E+03  0.00000000000E+00 0.  1.
         -6    2    1    2    0  503  0.22713018217E+02  0.43908488032E+02 -0.68065434199E+01  0.17872255126E+03  0.17161464033E+03 0.  0.
        -24    2    3    3    0    0 -0.32761925852E+02 -0.25777885016E+02 -0.33501075375E+01  0.89460594315E+02  0.79083067551E+02 0.  0.
          6    2    1    2  501    0 -0.22713018217E+02 -0.43908488032E+02  0.93499893251E+03  0.95291113302E+03  0.17712364922E+03 0.  0.
         24    2    5    5    0    0  0.47364538648E+02 -0.56499576761E+01  0.32733769421E+03  0.34000914277E+03  0.78618888127E+02 0.  0.
          5    1    5    5  501    0 -0.70077556865E+02 -0.38258530356E+02  0.60766123830E+03  0.61290199025E+03  0.47000000000E+01 0. -1.
        -13    1    6    6    0    0  0.51629105980E+01 -0.37666480114E+02  0.16159893995E+03  0.16601095374E+03  0.00000000000E+00 0.  1.
         14    1    6    6    0    0  0.42201628049E+02  0.32016522438E+02  0.16573875426E+03  0.17399818902E+03  0.00000000000E+00 0. -1.
         -5    1    3    3    0  503  0.55474944069E+02  0.69686373049E+02 -0.34564358824E+01  0.89261956942E+02  0.47000000000E+01 0.  1.
         11    1    4    4    0    0 -0.21285662924E+02  0.16122583596E+02 -0.28668375159E+02  0.39177708996E+02  0.00000000000E+00 0. -1.
        -12    1    4    4    0    0 -0.11476262927E+02 -0.41900468612E+02  0.25318267621E+02  0.50282885319E+02  0.00000000000E+00 0.  1.
</event>
<event>
12    1  0.8684423E-002  0.1857400E+03  0.7818608E-02  0.1164212E+00
         21   -1    0    0  501  502  0.00000000000E+00  0.00000000000E+00  0.49552421254E+02  0.49552421254E+02  0.00000000000E+00 0.  1.
         21   -1    0    0  502  503 -0.00000000000E+00 -0.00000000000E+00 -0.85595014763E+03  0.85595014763E+03  0.00000000000E+00 0.  1.
         -6    2    1    2    0  503  0.40523171593E+02 -0.41320377671E+02 -0.62243135742E+03  0.64955379009E+03  0.17649314569E+03 0.  0.
        -24    2    3    3    0    0  0.55955578226E+02 -0.49665243280E+02 -0.62181685898E+03  0.63138063503E+03  0.79922694195E+02 0.  0.
          6    2    1    2  501    0 -0.40523171593E+02  0.41320377671E+02 -0.18396636896E+03  0.25594877879E+03  0.16827552232E+03 0.  0.
         24    2    5    5    0    0 -0.26547149728E+02  0.48621383028E+02 -0.29533048659E+02  0.10064142454E+03  0.78661968731E+02 0.  0.
          5    1    5    5  501    0 -0.13976021866E+02 -0.73010053566E+01 -0.15443332030E+03  0.15530735425E+03  0.47000000000E+01 0. -1.
        -11    1    6    6    0    0 -0.29597695627E+02 -0.56603212137E+01  0.11783700359E+02  0.32356118692E+02  0.00000000000E+00 0.  1.
         12    1    6    6    0    0  0.30505458991E+01  0.54281704242E+02 -0.41316749018E+02  0.68285305851E+02  0.00000000000E+00 0. -1.
         -5    1    3    3    0  503 -0.15432406632E+02  0.83448656086E+01 -0.61449843316E+00  0.18173155060E+02  0.47000000000E+01 0.  1.
         11    1    4    4    0    0  0.94903338231E+01 -0.60582666175E+02 -0.32177076483E+03  0.32756182772E+03  0.00000000000E+00 0. -1.
        -12    1    4    4    0    0  0.46465244403E+02  0.10917422895E+02 -0.30004609415E+03  0.30381880731E+03  0.00000000000E+00 0.  1.
</event>
<event>
12    1  0.8684423E-002  0.2541240E+03  0.7818608E-02  0.1110882E+00
         21   -1    0    0  501  502  0.00000000000E+00  0.00000000000E+00  0.19812854654E+04  0.19812854654E+04  0.00000000000E+00 0. -1.
         21   -1    0    0  502  503 -0.00000000000E+00 -0.00000000000E+00 -0.36191280829E+02  0.36191280829E+02  0.00000000000E+00 0.  1.
         -6    2    1    2    0  503  0.90440488398E+02 -0.16216057409E+03  0.64718177601E+03  0.69492026616E+03  0.17203020491E+03 0.  0.
        -24    2    3    3    0    0  0.12299751760E+03 -0.16416683324E+03  0.57784087265E+03  0.61814633762E+03  0.78266737089E+02 0.  0.
          6    2    1    2  501    0 -0.90440488398E+02  0.16216057409E+03  0.12979124086E+04  0.13225564801E+04  0.17350357035E+03 0.  0.
         24    2    5    5    0    0 -0.24602201143E+02  0.79036189434E+02  0.99403244454E+03  0.10006722370E+04  0.79952720899E+02 0.  0.
          5    1    5    5  501    0 -0.65838287255E+02  0.83124384653E+02  0.30387996405E+03  0.32188424308E+03  0.47000000000E+01 0. -1.
        -13    1    6    6    0    0  0.37928191751E+00 -0.16408508360E+02  0.13686339962E+03  0.13784401749E+03  0.00000000000E+00 0.  1.
         14    1    6    6    0    0 -0.24981483061E+02  0.95444697794E+02  0.85716904491E+03  0.86282821952E+03  0.00000000000E+00 0. -1.
         -5    1    3    3    0  503 -0.32557029202E+02  0.20062591487E+01  0.69340903356E+02  0.76773928546E+02  0.47000000000E+01 0.  1.
         11    1    4    4    0    0  0.18032140100E+02 -0.21127042543E+02  0.24430567935E+02  0.36991386198E+02  0.00000000000E+00 0. -1.
        -12    1    4    4    0    0  0.10496537750E+03 -0.14303979069E+03  0.55341030471E+03  0.58115495142E+03  0.00000000000E+00 0.  1.
</event>
<event>
12    1  0.8684423E-002  0.1727682E+03  0.7818608E-02  0.1175715E+00
         21   -1    0    0  503  502  0.00000000000E+00  0.00000000000E+00  0.28807976380E+03  0.28807976380E+03  0.00000000000E+00 0.  1.
         21   -1    0    0  501  503 -0.00000000000E+00 -0.00000000000E+00 -0.18410455328E+03  0.18410455328E+03  0.00000000000E+00 0.  1.
          6    2    1    2  501    0  0.68713349178E+01 -0.82251034418E+01 -0.10597144211E+03  0.20029011408E+03  0.16962109446E+03 0.  0.
         24    2    3    3    0    0  0.79584435120E+01  0.58776465459E+02 -0.47257191531E+02  0.11107214918E+03  0.81152760004E+02 0.  0.
         -6    2    1    2    0  502 -0.68713349178E+01  0.82251034418E+01  0.20994665263E+03  0.27189420299E+03  0.17243547518E+03 0.  0.
        -24    2    5    5    0    0 -0.22409454926E+02 -0.59732843779E+02  0.13275797032E+03  0.16777937004E+03  0.80343276213E+02 0.  0.
          5    1    3    3  501    0 -0.10871085942E+01 -0.67001568901E+02 -0.58714250582E+02  0.89217964904E+02  0.47000000000E+01 0. -1.
        -11    1    4    4    0    0 -0.17910858420E+02 -0.11195749453E+02 -0.26006221762E+02  0.33503242015E+02  0.00000000000E+00 0.  1.
         12    1    4    4    0    0  0.25869301932E+02  0.69972214912E+02 -0.21250969769E+02  0.77568907162E+02  0.00000000000E+00 0. -1.
         -5    1    5    5    0  502  0.15538120009E+02  0.67957947221E+02  0.77188682313E+02  0.10411483295E+03  0.47000000000E+01 0.  1.
         11    1    6    6    0    0  0.38298404018E-01 -0.40653855175E+02  0.10452897523E+02  0.41976189370E+02  0.00000000000E+00 0. -1.
        -12    1    6    6    0    0 -0.22447753330E+02 -0.19078988603E+02  0.12230507279E+03  0.12580318067E+03  0.00000000000E+00 0.  1.
</event>
<event>
12    1  0.8684423E-002  0.1859461E+03  0.7818608E-02  0.1162538E+00
         21   -1    0    0  501  502  0.00000000000E+00  0.00000000000E+00  0.23474589405E+03  0.23474589405E+03  0.00000000000E+00 0. -1.
         21   -1    0    0  502  503 -0.00000000000E+00 -0.00000000000E+00 -0.18272242889E+03  0.18272242889E+03  0.00000000000E+00 0.  1.
         -6    2    1    2    0  503 -0.11473381988E+02  0.68566101623E+02 -0.67598794916E+02  0.19636784928E+03  0.17075651194E+03 0.  0.
        -24    2    3    3    0    0 -0.32020206689E+02 -0.23044970046E+02 -0.29231567903E+02  0.94835122702E+02  0.81134774634E+02 0.  0.
          6    2    1    2  501    0  0.11473381988E+02 -0.68566101623E+02  0.11962226008E+03  0.22110047367E+03  0.17246154807E+03 0.  0.
         24    2    5    5    0    0 -0.12219570748E+01 -0.11224209185E+03  0.10346698240E+03  0.17260463103E+03  0.80542919275E+02 0.  0.
          5    1    5    5  501    0  0.12695339063E+02  0.43675990225E+02  0.16155277674E+02  0.48495842634E+02  0.47000000000E+01 0. -1.
        -13    1    6    6    0    0  0.31071216929E+02 -0.31558969398E+02  0.10847215640E+02  0.45596613450E+02  0.00000000000E+00 0.  1.
         14    1    6    6    0    0 -0.32293174004E+02 -0.80683122449E+02  0.92619766762E+02  0.12700801758E+03  0.00000000000E+00 0. -1.
         -5    1    3    3    0  503  0.20546824701E+02  0.91611071669E+02 -0.38367227013E+02  0.10153272658E+03  0.47000000000E+01 0.  1.
         11    1    4    4    0    0  0.15111311189E+02 -0.18707038099E+02  0.16385729333E+02  0.29099778798E+02  0.00000000000E+00 0. -1.
        -12    1    4    4    0    0 -0.47131517878E+02 -0.43379319472E+01 -0.45617297237E+02  0.65735343904E+02  0.00000000000E+00 0.  1.
</event>
<event>
12    1  0.8684423E-002  0.1884627E+03  0.7818608E-02  0.1159962E+00
         21   -1    0    0  501  502  0.00000000000E+00  0.00000000000E+00  0.67813957768E+02  0.67813957768E+02  0.00000000000E+00 0. -1.
         21   -1    0    0  502  503 -0.00000000000E+00 -0.00000000000E+00 -0.77882579867E+03  0.77882579867E+03  0.00000000000E+00 0.  1.
         -6    2    1    2    0  503  0.15496239894E+02  0.75731970040E+02 -0.59867297503E+03  0.62763645729E+03  0.17187997775E+03 0.  0.
        -24    2    3    3    0    0 -0.47524673068E+02  0.80121618381E+01 -0.38043972354E+03  0.39055957113E+03  0.74024361332E+02 0.  0.
          6    2    1    2  501    0 -0.15496239894E+02 -0.75731970040E+02 -0.11233886587E+03  0.21900329914E+03  0.17136790690E+03 0.  0.
         24    2    5    5    0    0  0.32055474028E+02 -0.13321350320E+02 -0.62342505326E+01  0.86955844241E+02  0.79482332492E+02 0.  0.
          5    1    5    5  501    0 -0.47551713922E+02 -0.62410619720E+02 -0.10610461533E+03  0.13204745490E+03  0.47000000000E+01 0. -1.
        -11    1    6    6    0    0  0.17554476323E+02 -0.33863915055E+02 -0.32850950423E+02  0.50339937679E+02  0.00000000000E+00 0.  1.
         12    1    6    6    0    0  0.14500997705E+02  0.20542564734E+02  0.26616699890E+02  0.36615906562E+02  0.00000000000E+00 0. -1.
         -5    1    3    3    0  503  0.63020912962E+02  0.67719808202E+02 -0.21823325150E+03  0.23707688616E+03  0.47000000000E+01 0.  1.
         13    1    4    4    0    0 -0.13336562099E+02  0.30930345951E+02 -0.73232221088E+02  0.80607123722E+02  0.00000000000E+00 0. -1.
        -14    1    4    4    0    0 -0.34188110969E+02 -0.22918184113E+02 -0.30720750245E+03  0.30995244741E+03  0.00000000000E+00 0.  1.
</event>
<event>
12    1  0.8684423E-002  0.1994777E+03  0.7818608E-02  0.1150237E+00
         21   -1    0    0  501  502  0.00000000000E+00  0.00000000000E+00  0.26087351603E+03  0.26087351603E+03  0.00000000000E+00 0.  1.
         21   -1    0    0  502  503 -0.00000000000E+00 -0.00000000000E+00 -0.19737327292E+03  0.19737327292E+03  0.00000000000E+00 0. -1.
         -6    2    1    2    0  503 -0.12597034114E+02 -0.99615720056E+02 -0.77724448828E+02  0.21383780428E+03  0.17205679191E+03 0.  0.
        -24    2    3    3    0    0 -0.43572066608E+02 -0.32178378462E+01 -0.91074694416E+01  0.91435254501E+02  0.79803385249E+02 0.  0.
          6    2    1    2  501    0  0.12597034114E+02  0.99615720056E+02  0.14122469193E+03  0.24440898467E+03  0.17236403692E+03 0.  0.
         24    2    5    5    0    0  0.53480524376E+02  0.16496192233E+02  0.10844912352E+03  0.14603905244E+03  0.80211605149E+02 0.  0.
          5    1    5    5  501    0 -0.40883490262E+02  0.83119527824E+02  0.32775568416E+02  0.98369932228E+02  0.47000000000E+01 0. -1.
        -13    1    6    6    0    0 -0.16007253675E+02  0.18257900618E+02  0.11818305732E+02  0.27004730244E+02  0.00000000000E+00 0.  1.
         14    1    6    6    0    0  0.69487778051E+02 -0.17617083860E+01  0.96630817787E+02  0.11903432220E+03  0.00000000000E+00 0. -1.
         -5    1    3    3    0  503  0.30975032494E+02 -0.96397882210E+02 -0.68616979386E+02  0.12240254978E+03  0.47000000000E+01 0.  1.
         11    1    4    4    0    0  0.41333474454E+01 -0.31429133385E+02 -0.16133070663E+02  0.35568960562E+02  0.00000000000E+00 0. -1.
        -12    1    4    4    0    0 -0.47705414053E+02  0.28211295539E+02  0.70256012219E+01  0.55866293939E+02  0.00000000000E+00 0.  1.
</event>
<event>
12    1  0.8684423E-002  0.1879719E+03  0.7818608E-02  0.1160593E+00
         21   -1    0    0  501  502  0.00000000000E+00  0.00000000000E+00  0.51822287348E+03  0.51822287348E+03  0.00000000000E+00 0.  1.
         21   -1    0    0  502  503 -0.00000000000E+00 -0.00000000000E+00 -0.75727026648E+02  0.75727026648E+02  0.00000000000E+00 0.  1.
         -6    2    1    2    0  503  0.42937383105E+02 -0.60468336920E+02  0.12404368063E+03  0.22415910165E+03  0.17134885325E+03 0.  0.
        -24    2    3    3    0    0  0.66855390505E+02  0.99210278475E+01  0.10295554504E+03  0.14674118891E+03  0.79781340143E+02 0.  0.
          6    2    1    2  501    0 -0.42937383105E+02  0.60468336920E+02  0.31845216620E+03  0.36979079848E+03  0.17272351851E+03 0.  0.
         24    2    5    5    0    0 -0.92601000199E+01  0.39355090687E+02  0.58378225829E+02  0.10665495329E+03  0.79578195478E+02 0.  0.
          5    1    5    5  501    0 -0.33677283085E+02  0.21113246233E+02  0.26007394037E+03  0.26313584519E+03  0.47000000000E+01 0. -1.
        -11    1    6    6    0    0 -0.61613943029E+01  0.36419961822E+02  0.78143715721E+02  0.86433886326E+02  0.00000000000E+00 0.  1.
         12    1    6    6    0    0 -0.30987057170E+01  0.29351288656E+01 -0.19765489892E+02  0.20221066966E+02  0.00000000000E+00 0. -1.
         -5    1    3    3    0  503 -0.23918007400E+02 -0.70389364767E+02  0.21088135597E+02  0.77417912742E+02  0.47000000000E+01 0.  1.
         13    1    4    4    0    0  0.57401507344E+02 -0.28678702591E+02  0.71395026982E+02  0.95992973208E+02  0.00000000000E+00 0. -1.
        -14    1    4    4    0    0  0.94538831606E+01  0.38599730438E+02  0.31560518056E+02  0.50748215700E+02  0.00000000000E+00 0.  1.
</event>
<event>
12    1  0.8684423E-002  0.1735105E+03  0.7818608E-02  0.1174483E+00
         21   -1    0    0  503  502  0.00000000000E+00  0.00000000000E+00  0.52727039736E+03  0.52727039736E+03  0.00000000000E+00 0.  1.
         21   -1    0    0  501  503 -0.00000000000E+00 -0.00000000000E+00 -0.16946006815E+03  0.16946006815E+03  0.00000000000E+00 0.  1.
          6    2    1    2  501    0  0.95960738464E+01  0.21099187427E+02 -0.10533518432E+03  0.20215019189E+03  0.17097350287E+03 0.  0.
         24    2    3    3    0    0  0.46238241880E+02 -0.32500209066E+02 -0.15485135592E+02  0.91196755535E+02  0.69877179353E+02 0.  0.
         -6    2    1    2    0  502 -0.95960738464E+01 -0.21099187427E+02  0.46314551353E+03  0.49458027362E+03  0.17195528491E+03 0.  0.
        -24    2    5    5    0    0  0.39447827896E+02 -0.47638692862E+02  0.17329737851E+03  0.19937918788E+03  0.76775666580E+02 0.  0.
          5    1    3    3  501    0 -0.36642168034E+02  0.53599396494E+02 -0.89850048730E+02  0.11095343636E+03  0.47000000000E+01 0. -1.
        -13    1    4    4    0    0 -0.78479459670E+01  0.67840216885E+01  0.14584666939E+02  0.17897645540E+02  0.00000000000E+00 0.  1.
         14    1    4    4    0    0  0.54086187847E+02 -0.39284230755E+02 -0.30069802530E+02  0.73299109995E+02  0.00000000000E+00 0. -1.
         -5    1    5    5    0  502 -0.49043901743E+02  0.26539505435E+02  0.28984813502E+03  0.29520108574E+03  0.47000000000E+01 0.  1.
         13    1    6    6    0    0 -0.13469799356E+02 -0.43469020296E+02  0.79626562378E+02  0.91713579455E+02  0.00000000000E+00 0. -1.
        -14    1    6    6    0    0  0.52917627253E+02 -0.41696725665E+01  0.93670816129E+02  0.10766560843E+03  0.00000000000E+00 0.  1.
</event>
<event>
12    1  0.8684423E-002  0.1819497E+03  0.7818608E-02  0.1166105E+00
         21   -1    0    0  501  502  0.00000000000E+00  0.00000000000E+00  0.19216264977E+03  0.19216264977E+03  0.00000000000E+00 0. -1.
         21   -1    0    0  502  503 -0.00000000000E+00 -0.00000000000E+00 -0.23352315088E+03  0.23352315088E+03  0.00000000000E+00 0. -1.
         -6    2    1    2    0  503  0.26854504362E+02  0.54284517680E+02 -0.13026647641E+03  0.22317663561E+03  0.17079368413E+03 0.  0.
        -24    2    3    3    0    0 -0.18127999947E+02 -0.26764808187E+02 -0.82040138582E+02  0.11858080119E+03  0.79283306772E+02 0.  0.
          6    2    1    2  501    0 -0.26854504362E+02 -0.54284517680E+02  0.88905975296E+02  0.20250916504E+03  0.17157422947E+03 0.  0.
         24    2    5    5    0    0  0.17016628653E+01 -0.31058496185E+02 -0.21890934786E+02  0.85663334798E+02  0.76755899195E+02 0.  0.
          5    1    5    5  501    0 -0.28556167228E+02 -0.23226021494E+02  0.11079691008E+03  0.11684583024E+03  0.47000000000E+01 0. -1.
        -11    1    6    6    0    0 -0.85754042555E+01 -0.49719297597E+02 -0.34300623310E+02  0.61008842566E+02  0.00000000000E+00 0.  1.
         12    1    6    6    0    0  0.10277067121E+02  0.18660801412E+02  0.12409688525E+02  0.24654492232E+02  0.00000000000E+00 0. -1.
         -5    1    3    3    0  503  0.44982504310E+02  0.81049325867E+02 -0.48226337833E+02  0.10459583442E+03  0.47000000000E+01 0.  1.
         13    1    4    4    0    0 -0.24005291295E+02  0.22419388119E+02 -0.49173256890E+02  0.59134526015E+02  0.00000000000E+00 0. -1.
        -14    1    4    4    0    0  0.58772913480E+01 -0.49184196307E+02 -0.32866881691E+02  0.59446275174E+02  0.00000000000E+00 0.  1.
</event>
<event>
12    1  0.8684423E-002  0.1812706E+03  0.7818608E-02  0.1167002E+00
         21   -1    0    0  501  502  0.00000000000E+00  0.00000000000E+00  0.56523529193E+02  0.56523529193E+02  0.00000000000E+00 0. -1.
         21   -1    0    0  502  503 -0.00000000000E+00 -0.00000000000E+00 -0.67882031059E+03  0.67882031059E+03  0.00000000000E+00 0. -1.
         -6    2    1    2    0  503 -0.42894809700E+02  0.31179697081E+02 -0.16657493470E+03  0.24489360809E+03  0.17150373816E+03 0.  0.
        -24    2    3    3    0    0  0.25714137308E+02  0.36381273510E+02 -0.42845868712E+02  0.10324186691E+03  0.82694018515E+02 0.  0.
          6    2    1    2  501    0  0.42894809700E+02 -0.31179697081E+02 -0.45572184670E+03  0.49045023170E+03  0.17334038770E+03 0.  0.
         24    2    5    5    0    0  0.31040399578E+01  0.18799034776E+02 -0.39046818907E+03  0.39901003907E+03  0.79878444071E+02 0.  0.
          5    1    5    5  501    0  0.39790769742E+02 -0.49978731857E+02 -0.65253657622E+02  0.91440192627E+02  0.47000000000E+01 0. -1.
        -13    1    6    6    0    0 -0.17014768413E+01  0.26246888334E+02 -0.36812421368E+02  0.45243215377E+02  0.00000000000E+00 0.  1.
         14    1    6    6    0    0  0.48055167992E+01 -0.74478535574E+01 -0.35365576771E+03  0.35376682369E+03  0.00000000000E+00 0. -1.
         -5    1    3    3    0  503 -0.68608947008E+02 -0.52015764297E+01 -0.12372906599E+03  0.14165174118E+03  0.47000000000E+01 0.  1.
         13    1    4    4    0    0 -0.77184205312E+01  0.19847638802E+02 -0.58903360562E+02  0.62634724132E+02  0.00000000000E+00 0. -1.
        -14    1    4    4    0    0  0.33432557839E+02  0.16533634708E+02  0.16057491850E+02  0.40607142781E+02  0.00000000000E+00 0.  1.
</event>
<event>
12    1  0.8684423E-002  0.3135662E+03  0.7818608E-02  0.1078654E+00
         21   -1    0    0  501  502  0.00000000000E+00  0.00000000000E+00  0.36142097452E+03  0.36142097452E+03  0.00000000000E+00 0.  1.
         21   -1    0    0  502  503 -0.00000000000E+00 -0.00000000000E+00 -0.38609436820E+03  0.38609436820E+03  0.00000000000E+00 0. -1.
         -6    2    1    2    0  503  0.25194144026E+03 -0.72286878192E+02 -0.21550423224E+03  0.38048106442E+03  0.17211590336E+03 0.  0.
        -24    2    3    3    0    0  0.21805727612E+03 -0.37123904768E+02 -0.10062649913E+03  0.25556687450E+03  0.79130114603E+02 0.  0.
          6    2    1    2  501    0 -0.25194144026E+03  0.72286878192E+02  0.19083083856E+03  0.36703427830E+03  0.17204031627E+03 0.  0.
         24    2    5    5    0    0 -0.25733021449E+03  0.48317666881E+02  0.13275809482E+03  0.30380378294E+03  0.78221420094E+02 0.  0.
          5    1    5    5  501    0  0.53887742377E+01  0.23969211311E+02  0.58072743735E+02  0.63230495361E+02  0.47000000000E+01 0. -1.
        -13    1    6    6    0    0 -0.92042653911E+02  0.12853245627E+02  0.90130726467E+02  0.12946275107E+03  0.00000000000E+00 0.  1.
         14    1    6    6    0    0 -0.16528756058E+03  0.35464421254E+02  0.42627368358E+02  0.17434103186E+03  0.00000000000E+00 0. -1.
         -5    1    3    3    0  503  0.33884164132E+02 -0.35162973424E+02 -0.11487773311E+03  0.12491418992E+03  0.47000000000E+01 0.  1.
         11    1    4    4    0    0  0.62245837138E+02 -0.31141900459E+02 -0.65837668297E+02  0.95806893134E+02  0.00000000000E+00 0. -1.
        -12    1    4    4    0    0  0.15581143899E+03 -0.59820043089E+01 -0.34788830836E+02  0.15975998136E+03  0.00000000000E+00 0.  1.
</event>
<event>
12    1  0.8684423E-002  0.1888258E+03  0.7818608E-02  0.1159667E+00
         21   -1    0    0  503  502  0.00000000000E+00  0.00000000000E+00  0.37235484567E+02  0.37235484567E+02  0.00000000000E+00 0. -1.
         21   -1    0    0  501  503 -0.00000000000E+00 -0.00000000000E+00 -0.95481115045E+03  0.95481115045E+03  0.00000000000E+00 0. -1.
          6    2    1    2  501    0 -0.23955819223E+02 -0.73860694093E+02 -0.44762670873E+03  0.48558123933E+03  0.17143566203E+03 0.  0.
         24    2    3    3    0    0 -0.31685130759E+02 -0.96475274585E+02 -0.44249484024E+03  0.46068972307E+03  0.78242642981E+02 0.  0.
         -6    2    1    2    0  502  0.23955819223E+02  0.73860694093E+02 -0.46994895715E+03  0.50646539569E+03  0.17212173393E+03 0.  0.
        -24    2    5    5    0    0  0.70969638554E+02  0.85394202638E+02 -0.37573374452E+03  0.40043748747E+03  0.82737386745E+02 0.  0.
          5    1    3    3  501    0  0.77293115357E+01  0.22614580493E+02 -0.51318684827E+01  0.24891516262E+02  0.47000000000E+01 0. -1.
        -11    1    4    4    0    0  0.79247927651E+01  0.10839529703E+02 -0.36673370314E+02  0.39054242212E+02  0.00000000000E+00 0.  1.
         12    1    4    4    0    0 -0.39609923524E+02 -0.10731480429E+03 -0.40582146993E+03  0.42163548086E+03  0.00000000000E+00 0. -1.
         -5    1    5    5    0  502 -0.47013819331E+02 -0.11533508545E+02 -0.94215212638E+02  0.10602790821E+03  0.47000000000E+01 0.  1.
         11    1    6    6    0    0  0.17281044974E+02  0.45666233711E+01 -0.19041351953E+03  0.19125061303E+03  0.00000000000E+00 0. -1.
        -12    1    6    6    0    0  0.53688593580E+02  0.80827579267E+02 -0.18532022499E+03  0.20918687444E+03  0.00000000000E+00 0.  1.
</event>
<event>
12    1  0.8684423E-002  0.1888478E+03  0.7818608E-02  0.1160337E+00
         21   -1    0    0  501  502  0.00000000000E+00  0.00000000000E+00  0.44352440551E+03  0.44352440551E+03  0.00000000000E+00 0.  1.
         21   -1    0    0  502  503 -0.00000000000E+00 -0.00000000000E+00 -0.86198087174E+02  0.86198087174E+02  0.00000000000E+00 0.  1.
         -6    2    1    2    0  503 -0.57378580040E+02 -0.39115315127E+02  0.99876583968E+02  0.21043598341E+03  0.17171389508E+03 0.  0.
        -24    2    3    3    0    0  0.21569999836E+02 -0.34402550146E+02  0.96851816317E+02  0.13114961865E+03  0.78556653431E+02 0.  0.
          6    2    1    2  501    0  0.57378580040E+02  0.39115315127E+02  0.25744973437E+03  0.31928650928E+03  0.17561662778E+03 0.  0.
         24    2    5    5    0    0  0.59749603783E+02  0.88188020308E+01  0.67080520267E+02  0.12644971782E+03  0.88554776926E+02 0.  0.
          5    1    5    5  501    0 -0.23710237438E+01  0.30296513096E+02  0.19036921410E+03  0.19283679145E+03  0.47000000000E+01 0. -1.
        -13    1    6    6    0    0  0.33180705831E+02 -0.38063853308E+02  0.18140328962E+02  0.53655267243E+02  0.00000000000E+00 0.  1.
         14    1    6    6    0    0  0.26568897953E+02  0.46882655339E+02  0.48940191305E+02  0.72794450578E+02  0.00000000000E+00 0. -1.
         -5    1    3    3    0  503 -0.78948579875E+02 -0.47127649810E+01  0.30247676504E+01  0.79286364764E+02  0.47000000000E+01 0.  1.
         13    1    4    4    0    0 -0.20984474682E+01 -0.39206941314E+02  0.93294887405E+01  0.40356252169E+02  0.00000000000E+00 0. -1.
        -14    1    4    4    0    0  0.23668447304E+02  0.48043911676E+01  0.87522327577E+02  0.90793366480E+02  0.00000000000E+00 0.  1.
</event>
<event>
12    1  0.8684423E-002  0.1966230E+03  0.7818608E-02  0.1152953E+00
         21   -1    0    0  503  502  0.00000000000E+00  0.00000000000E+00  0.28614254323E+03  0.28614254323E+03  0.00000000000E+00 0. -1.
         21   -1    0    0  501  503 -0.00000000000E+00 -0.00000000000E+00 -0.13597406517E+03  0.13597406517E+03  0.00000000000E+00 0. -1.
          6    2    1    2  501    0  0.32721756759E+02  0.89383892623E+02  0.10045841981E+03  0.22079966687E+03  0.17204768278E+03 0.  0.
         24    2    3    3    0    0 -0.39330796269E+02  0.69675864878E+02  0.26953389751E+02  0.11589468033E+03  0.79394294681E+02 0.  0.
         -6    2    1    2    0  502 -0.32721756759E+02 -0.89383892623E+02  0.49710058245E+02  0.20131694154E+03  0.17028572294E+03 0.  0.
        -24    2    5    5    0    0 -0.67808828136E+02 -0.29044952568E+02  0.68075279020E+02  0.12898948065E+03  0.81008617211E+02 0.  0.
          5    1    3    3  501    0  0.72052553028E+02  0.19708027744E+02  0.73505030063E+02  0.10490498654E+03  0.47000000000E+01 0. -1.
        -13    1    4    4    0    0 -0.46189809506E+01  0.26394180014E+02 -0.27330153395E+02  0.38274338769E+02  0.00000000000E+00 0.  1.
         14    1    4    4    0    0 -0.34711815319E+02  0.43281684865E+02  0.54283543146E+02  0.77620341560E+02  0.00000000000E+00 0. -1.
         -5    1    5    5    0  502  0.35087071377E+02 -0.60338940055E+02 -0.18365220775E+02  0.72327460891E+02  0.47000000000E+01 0.  1.
         13    1    6    6    0    0  0.13727828117E+02 -0.18358127739E+01 -0.63995540433E+01  0.15257056247E+02  0.00000000000E+00 0. -1.
        -14    1    6    6    0    0 -0.81536656254E+02 -0.27209139794E+02  0.74474833064E+02  0.11373242441E+03  0.00000000000E+00 0.  1.
</event>
<event>
12    1  0.8684423E-002  0.1884518E+03  0.7818608E-02  0.1162844E+00
         21   -1    0    0  503  502  0.00000000000E+00  0.00000000000E+00  0.12220903327E+03  0.12220903327E+03  0.00000000000E+00 0.  1.
         21   -1    0    0  501  503 -0.00000000000E+00 -0.00000000000E+00 -0.14519937910E+04  0.14519937910E+04  0.00000000000E+00 0.  1.
          6    2    1    2  501    0  0.35551142511E+02  0.13878479293E+02 -0.13702225136E+04  0.13814613500E+04  0.17166603806E+03 0.  0.
         24    2    3    3    0    0 -0.32787056371E+02 -0.35676863628E+02 -0.74428962640E+03  0.74984444806E+03  0.77148030783E+02 0.  0.
         -6    2    1    2    0  502 -0.35551142511E+02 -0.13878479293E+02  0.40437755955E+02  0.19274147428E+03  0.18454692595E+03 0.  0.
        -24    2    5    5    0    0 -0.31294379770E+02 -0.82820935694E+02  0.21661239927E+02  0.12100703431E+03  0.79591754861E+02 0.  0.
          5    1    3    3  501    0  0.68338198882E+02  0.49555342921E+02 -0.62593288724E+03  0.63161690190E+03  0.47000000000E+01 0. -1.
        -11    1    4    4    0    0  0.25053754250E+02 -0.16076190582E+02 -0.21791933158E+03  0.21994310533E+03  0.00000000000E+00 0.  1.
         12    1    4    4    0    0 -0.57840810621E+02 -0.19600673046E+02 -0.52637029482E+03  0.52990134273E+03  0.00000000000E+00 0. -1.
         -5    1    5    5    0  502 -0.42567627405E+01  0.68942456401E+02  0.18776516028E+02  0.71734439969E+02  0.47000000000E+01 0.  1.
         11    1    6    6    0    0  0.25861464457E+02 -0.39814306013E+02  0.10316883512E+02  0.48584281332E+02  0.00000000000E+00 0. -1.
        -12    1    6    6    0    0 -0.57155844227E+02 -0.43006629681E+02  0.11344356414E+02  0.72422752973E+02  0.00000000000E+00 0.  1.
</event>
<event>
12    1  0.8684423E-002  0.2035076E+03  0.7818608E-02  0.1146942E+00
         21   -1    0    0  503  502  0.00000000000E+00  0.00000000000E+00  0.66680321858E+03  0.66680321858E+03  0.00000000000E+00 0.  1.
         21   -1    0    0  501  503 -0.00000000000E+00 -0.00000000000E+00 -0.67456663292E+02  0.67456663292E+02  0.00000000000E+00 0. -1.
          6    2    1    2  501    0 -0.70822519214E+02  0.80685906876E+02  0.40527286511E+03  0.45349910244E+03  0.17288521023E+03 0.  0.
         24    2    3    3    0    0 -0.11195729426E+03  0.60146784330E+02  0.36113098901E+03  0.38958884896E+03  0.72192857065E+02 0.  0.
         -6    2    1    2    0  502  0.70822519214E+02 -0.80685906876E+02  0.19407369017E+03  0.28076077944E+03  0.17215101875E+03 0.  0.
        -24    2    5    5    0    0  0.54735999769E+02 -0.10874422232E+03  0.19970790196E+03  0.24759634795E+03  0.81236505670E+02 0.  0.
          5    1    3    3  501    0  0.41134775044E+02  0.20539122546E+02  0.44141876106E+02  0.63910253474E+02  0.47000000000E+01 0. -1.
        -11    1    4    4    0    0 -0.87319162942E+02  0.35713401677E+02  0.32913856973E+03  0.34239199956E+03  0.00000000000E+00 0.  1.
         12    1    4    4    0    0 -0.24638131316E+02  0.24433382653E+02  0.31992419279E+02  0.47196849407E+02  0.00000000000E+00 0. -1.
         -5    1    5    5    0  502  0.16086519445E+02  0.28058315444E+02 -0.56342117873E+01  0.33164431487E+02  0.47000000000E+01 0.  1.
         13    1    6    6    0    0  0.18834166044E+02 -0.89950512357E+02  0.82206333001E+02  0.12330329140E+03  0.00000000000E+00 0. -1.
        -14    1    6    6    0    0  0.35901833725E+02 -0.18793709963E+02  0.11750156896E+03  0.12429305655E+03  0.00000000000E+00 0.  1.
</event>
<event>
12    1  0.8684423E-002  0.2339848E+03  0.7818608E-02  0.1125187E+00
         21   -1    0    0  503  502  0.00000000000E+00  0.00000000000E+00  0.50604335123E+03  0.50604335123E+03  0.00000000000E+00 0.  1.
         21   -1    0    0  501  503 -0.00000000000E+00 -0.00000000000E+00 -0.13087932808E+03  0.13087932808E+03  0.00000000000E+00 0.  1.
          6    2    1    2  501    0  0.15356208767E+03  0.39374172670E+02  0.42790240223E+02  0.23044857560E+03  0.16169075760E+03 0.  0.
         24    2    3    3    0    0  0.18525909325E+02 -0.79427047826E+01  0.25173427616E+02  0.86205383592E+02  0.79946049475E+02 0.  0.
         -6    2    1    2    0  502 -0.15356208767E+03 -0.39374172670E+02  0.33237378293E+03  0.40647410371E+03  0.17209655768E+03 0.  0.
        -24    2    5    5    0    0 -0.14612896485E+03 -0.52477184141E+02  0.17210386837E+03  0.24542915428E+03  0.80673409747E+02 0.  0.
          5    1    3    3  501    0  0.13503617835E+03  0.47316877452E+02  0.17616812607E+02  0.14424319201E+03  0.47000000000E+01 0. -1.
        -13    1    4    4    0    0  0.81974950083E+01  0.32854262244E+02 -0.52635170886E+01  0.34268149704E+02  0.00000000000E+00 0.  1.
         14    1    4    4    0    0  0.10328414317E+02 -0.40796967027E+02  0.30436944705E+02  0.51937233887E+02  0.00000000000E+00 0. -1.
         -5    1    5    5    0  502 -0.74331228247E+01  0.13103011471E+02  0.16026991456E+03  0.16104494943E+03  0.47000000000E+01 0.  1.
         13    1    6    6    0    0 -0.84928921939E+02  0.51378683970E+01  0.55113271687E+02  0.10137451450E+03  0.00000000000E+00 0. -1.
        -14    1    6    6    0    0 -0.61200042908E+02 -0.57615052538E+02  0.11699059669E+03  0.14405463979E+03  0.00000000000E+00 0.  1.
</event>
<event>
12    1  0.8684423E-002  0.1808951E+03  0.7818608E-02  0.1167765E+00
         21   -1    0    0  501  502  0.00000000000E+00  0.00000000000E+00  0.13534328526E+03  0.13534328526E+03  0.00000000000E+00 0. -1.
         21   -1    0    0  502  503 -0.00000000000E+00 -0.00000000000E+00 -0.25158512414E+03  0.25158512414E+03  0.00000000000E+00 0. -1.
         -6    2    1    2    0  503 -0.54396854244E+02 -0.57147746224E+01 -0.12470632621E+02  0.18132444479E+03  0.17242784346E+03 0.  0.
        -24    2    3    3    0    0 -0.73128385635E+02 -0.56952473738E+02 -0.10449267377E+02  0.12653075906E+03  0.85495618301E+02 0.  0.
          6    2    1    2  501    0  0.54396854244E+02  0.57147746224E+01 -0.10377120626E+03  0.20560396462E+03  0.16885748611E+03 0.  0.
         24    2    5    5    0    0  0.50957575514E+01 -0.21347267400E+02 -0.12164767728E+03  0.14640421403E+03  0.78449754155E+02 0.  0.
          5    1    5    5  501    0  0.49301096693E+02  0.27062042023E+02  0.17876471021E+02  0.59199750588E+02  0.47000000000E+01 0. -1.
        -11    1    6    6    0    0  0.40872544611E+02 -0.64325305652E+01 -0.49601450928E+02  0.64592927528E+02  0.00000000000E+00 0.  1.
         12    1    6    6    0    0 -0.35776787060E+02 -0.14914736835E+02 -0.72046226352E+02  0.81811286500E+02  0.00000000000E+00 0. -1.
         -5    1    3    3    0  503  0.18731531390E+02  0.51237699115E+02 -0.20213652442E+01  0.54793685734E+02  0.47000000000E+01 0.  1.
         13    1    4    4    0    0 -0.95599846033E+01 -0.55291409887E+02  0.14928571645E+02  0.58063719863E+02  0.00000000000E+00 0. -1.
        -14    1    4    4    0    0 -0.63568401031E+02 -0.16610638508E+01 -0.25377839022E+02  0.68467039196E+02  0.00000000000E+00 0.  1.
</event>
<event>
12    1  0.8684423E-002  0.2670636E+03  0.7818608E-02  0.1103050E+00
         21   -1    0    0  501  502  0.00000000000E+00  0.00000000000E+00  0.10276563723E+03  0.10276563723E+03  0.00000000000E+00 0. -1.
         21   -1    0    0  502  503 -0.00000000000E+00 -0.00000000000E+00 -0.90406585475E+03  0.90406585475E+03  0.00000000000E+00 0. -1.
         -6    2    1    2    0  503 -0.55798283978E+02  0.19593833269E+03 -0.15751297362E+03  0.31005375078E+03  0.17267806115E+03 0.  0.
        -24    2    3    3    0    0 -0.28684435730E+02  0.14298821279E+03 -0.18180592937E+03  0.24562461402E+03  0.77521798299E+02 0.  0.
          6    2    1    2  501    0  0.55798283978E+02 -0.19593833269E+03 -0.64378724390E+03  0.69677774120E+03  0.17184855689E+03 0.  0.
         24    2    5    5    0    0  0.66542020361E+02 -0.13621611837E+03 -0.28339018781E+03  0.33127767445E+03  0.80325759646E+02 0.  0.
          5    1    5    5  501    0 -0.10743736383E+02 -0.59722214320E+02 -0.36039705609E+03  0.36550006675E+03  0.47000000000E+01 0. -1.
        -13    1    6    6    0    0  0.21462172973E+02 -0.12251800763E+03 -0.20134336700E+03  0.23666524565E+03  0.00000000000E+00 0.  1.
         14    1    6    6    0    0  0.45079847389E+02 -0.13698110739E+02 -0.82046820814E+02  0.94612428803E+02  0.00000000000E+00 0. -1.
         -5    1    3    3    0  503 -0.27113848248E+02  0.52950119900E+02  0.24292955749E+02  0.64429136757E+02  0.47000000000E+01 0.  1.
         13    1    4    4    0    0 -0.19150055858E+02  0.99187106131E+02 -0.64019280718E+02  0.11959629997E+03  0.00000000000E+00 0. -1.
        -14    1    4    4    0    0 -0.95343798726E+01  0.43801106658E+02 -0.11778664865E+03  0.12602831406E+03  0.00000000000E+00 0.  1.
</event>
<event>
12    1  0.8684423E-002  0.1764516E+03  0.7818608E-02  0.1171481E+00
         21   -1    0    0  503  502  0.00000000000E+00  0.00000000000E+00  0.10676970078E+04  0.10676970078E+04  0.00000000000E+00 0.  1.
         21   -1    0    0  501  503 -0.00000000000E+00 -0.00000000000E+00 -0.47217868958E+02  0.47217868958E+02  0.00000000000E+00 0.  1.
          6    2    1    2  501    0  0.39042388145E+02  0.49469249591E+00  0.16496557770E+03  0.24155499261E+03  0.17207736585E+03 0.  0.
         24    2    3    3    0    0  0.64159117126E+02 -0.13622949487E+02  0.18078141299E+03  0.20835275570E+03  0.80168413110E+02 0.  0.
         -6    2    1    2    0  502 -0.39042388145E+02 -0.49469249591E+00  0.85551356116E+03  0.87335988417E+03  0.17125852138E+03 0.  0.
        -24    2    5    5    0    0  0.77814697162E+01  0.39408052304E+02  0.26499784670E+03  0.27962964093E+03  0.79720332871E+02 0.  0.
          5    1    3    3  501    0 -0.25116728982E+02  0.14117641982E+02 -0.15815835294E+02  0.33202236912E+02  0.47000000000E+01 0. -1.
        -11    1    4    4    0    0  0.45423644462E+01  0.27872103337E+02  0.31290813715E+02  0.42149759693E+02  0.00000000000E+00 0.  1.
         12    1    4    4    0    0  0.59616752680E+02 -0.41495052824E+02  0.14949059928E+03  0.16620299601E+03  0.00000000000E+00 0. -1.
         -5    1    5    5    0  502 -0.46823857861E+02 -0.39902744800E+02  0.59051571446E+03  0.59373024324E+03  0.47000000000E+01 0.  1.
         13    1    6    6    0    0 -0.23678304163E+02  0.31832288722E+02  0.22356515281E+03  0.22705799753E+03  0.00000000000E+00 0. -1.
        -14    1    6    6    0    0  0.31459773879E+02  0.75757635814E+01  0.41432693898E+02  0.52571643402E+02  0.00000000000E+00 0.  1.
</event>
<event>
12    1  0.8684423E-002  0.1895704E+03  0.7818608E-02  0.1159666E+00
         21   -1    0    0  501  502  0.00000000000E+00  0.00000000000E+00  0.75371338105E+02  0.75371338105E+02  0.00000000000E+00 0. -1.
         21   -1    0    0  502  503 -0.00000000000E+00 -0.00000000000E+00 -0.69020839712E+03  0.69020839712E+03  0.00000000000E+00 0.  1.
         -6    2    1    2    0  503  0.80031409774E+01  0.73726462139E+02 -0.92138781004E+02  0.21077592361E+03  0.17446287148E+03 0.  0.
        -24    2    3    3    0    0  0.68396906361E+02  0.68650390234E+02 -0.49287599988E+02  0.13640195560E+03  0.82372404964E+02 0.  0.
          6    2    1    2  501    0 -0.80031409774E+01 -0.73726462139E+02 -0.52269827801E+03  0.55480381162E+03  0.17057003858E+03 0.  0.
         24    2    5    5    0    0 -0.20714585857E+02 -0.29184109871E+02 -0.49154441917E+03  0.49878368223E+03  0.76736166810E+02 0.  0.
          5    1    5    5  501    0  0.12711444880E+02 -0.44542352267E+02 -0.31153858837E+02  0.56020129390E+02  0.47000000000E+01 0. -1.
        -11    1    6    6    0    0 -0.45712838835E+02 -0.22049232242E+02 -0.21018095020E+03  0.21622179377E+03  0.00000000000E+00 0.  1.
         12    1    6    6    0    0  0.24998252977E+02 -0.71348776288E+01 -0.28136346898E+03  0.28256188845E+03  0.00000000000E+00 0. -1.
         -5    1    3    3    0  503 -0.60393765384E+02  0.50760719045E+01 -0.42851181016E+02  0.74373968011E+02  0.47000000000E+01 0.  1.
         11    1    4    4    0    0  0.70229403331E+02  0.27334159155E+02 -0.45818536215E+01  0.75500455175E+02  0.00000000000E+00 0. -1.
        -12    1    4    4    0    0 -0.18324969702E+01  0.41316231079E+02 -0.44705746367E+02  0.60901500424E+02  0.00000000000E+00 0.  1.
</event>
<event>
12    1  0.8684423E-002  0.5366376E+03  0.7818608E-02  0.1004638E+00
         21   -1    0    0  503  502  0.00000000000E+00  0.00000000000E+00  0.36933548876E+03  0.36933548876E+03  0.00000000000E+00 0. -1.
         21   -1    0    0  501  503 -0.00000000000E+00 -0.00000000000E+00 -0.10248966719E+04  0.10248966719E+04  0.00000000000E+00 0.  1.
          6    2    1    2  501    0 -0.39579540478E+03 -0.31888966759E+03 -0.66877355945E+03  0.85743192929E+03  0.17200818876E+03 0.  0.
         24    2    3    3    0    0 -0.19966727267E+03 -0.12778061276E+03 -0.22605290460E+03  0.33684324013E+03  0.78540104227E+02 0.  0.
         -6    2    1    2    0  502  0.39579540478E+03  0.31888966759E+03  0.13212376325E+02  0.53680023136E+03  0.17214906030E+03 0.  0.
        -24    2    5    5    0    0  0.27492178156E+03  0.27444218435E+03  0.60407900902E+02  0.39955767566E+03  0.71391338108E+02 0.  0.
          5    1    3    3  501    0 -0.19612813211E+03 -0.19110905483E+03 -0.44272065486E+03  0.52058868916E+03  0.47000000000E+01 0. -1.
        -11    1    4    4    0    0 -0.55155602808E+02 -0.80503434305E+02 -0.83908460940E+02  0.12869954652E+03  0.00000000000E+00 0.  1.
         12    1    4    4    0    0 -0.14451166986E+03 -0.47277178457E+02 -0.14214444366E+03  0.20814369362E+03  0.00000000000E+00 0. -1.
         -5    1    5    5    0  502  0.12087362322E+03  0.44447483239E+02 -0.47195524577E+02  0.13724255571E+03  0.47000000000E+01 0.  1.
         11    1    6    6    0    0  0.52847921947E+02  0.28270383377E+02 -0.96293063170E+01  0.60702890957E+02  0.00000000000E+00 0. -1.
        -12    1    6    6    0    0  0.22207385961E+03  0.24617180098E+03  0.70037207219E+02  0.33885478470E+03  0.00000000000E+00 0.  1.
</event>
<event>
12    1  0.8684423E-002  0.1894510E+03  0.7818608E-02  0.1161794E+00
         21   -1    0    0  503  502  0.00000000000E+00  0.00000000000E+00  0.79212198070E+02  0.79212198070E+02  0.00000000000E+00 0.  1.
         21   -1    0    0  501  503 -0.00000000000E+00 -0.00000000000E+00 -0.46207857001E+03  0.46207857001E+03  0.00000000000E+00 0. -1.
          6    2    1    2  501    0 -0.75907759949E+02 -0.18232866125E+02 -0.27424014045E+03  0.33331566760E+03  0.17261881185E+03 0.  0.
         24    2    3    3    0    0 -0.34409596429E+02 -0.60441747580E+02 -0.88616931062E+02  0.13842658860E+03  0.80447093074E+02 0.  0.
         -6    2    1    2    0  502  0.75907759949E+02  0.18232866125E+02 -0.10862623149E+03  0.20797510048E+03  0.15924684871E+03 0.  0.
        -24    2    5    5    0    0  0.94152514132E+02  0.53695119655E+02 -0.98110630817E+02  0.16646473625E+03  0.79604966833E+02 0.  0.
          5    1    3    3  501    0 -0.41498163520E+02  0.42208881455E+02 -0.18562320939E+03  0.19488907900E+03  0.47000000000E+01 0. -1.
        -13    1    4    4    0    0 -0.10618031720E+02 -0.58783476920E-01  0.13656405564E+02  0.17298655036E+02  0.00000000000E+00 0.  1.
         14    1    4    4    0    0 -0.23791564709E+02 -0.60382964103E+02 -0.10227333663E+03  0.12112793357E+03  0.00000000000E+00 0. -1.
         -5    1    5    5    0  502 -0.18244754183E+02 -0.35462253530E+02 -0.10515600669E+02  0.41510364224E+02  0.47000000000E+01 0.  1.
         11    1    6    6    0    0 -0.55138697344E+01  0.17408642016E+02 -0.43473222614E+02  0.47152779989E+02  0.00000000000E+00 0. -1.
        -12    1    6    6    0    0  0.99666383866E+02  0.36286477639E+02 -0.54637408203E+02  0.11931195626E+03  0.00000000000E+00 0.  1.
</event>
<event>
12    1  0.8684423E-002  0.1882662E+03  0.7818608E-02  0.1160043E+00
         21   -1    0    0  503  502  0.00000000000E+00  0.00000000000E+00  0.17611670999E+02  0.17611670999E+02  0.00000000000E+00 0. -1.
         21   -1    0    0  501  503 -0.00000000000E+00 -0.00000000000E+00 -0.24900072589E+04  0.24900072589E+04  0.00000000000E+00 0. -1.
          6    2    1    2  501    0  0.33073331577E+02  0.65282697031E+02 -0.17855642400E+04  0.17954620015E+04  0.17346027770E+03 0.  0.
         24    2    3    3    0    0  0.16015289946E+02  0.19566692766E+02 -0.29179255710E+03  0.30088618864E+03  0.68922109322E+02 0.  0.
         -6    2    1    2    0  502 -0.33073331577E+02 -0.65282697031E+02 -0.68683134787E+03  0.71215692835E+03  0.17342005186E+03 0.  0.
        -24    2    5    5    0    0 -0.49961932641E+01 -0.20844999451E+02 -0.13657484238E+03  0.15937546475E+03  0.79299276445E+02 0.  0.
          5    1    3    3  501    0  0.17058041631E+02  0.45716004265E+02 -0.14937716829E+04  0.14945758129E+04  0.47000000000E+01 0. -1.
        -13    1    4    4    0    0 -0.16559969926E+02  0.12372339122E+01 -0.17752373546E+02  0.24308642871E+02  0.00000000000E+00 0.  1.
         14    1    4    4    0    0  0.32575259872E+02  0.18329458854E+02 -0.27404018356E+03  0.27657754577E+03  0.00000000000E+00 0. -1.
         -5    1    5    5    0  502 -0.28077138313E+02 -0.44437697580E+02 -0.55025650549E+03  0.55278146360E+03  0.47000000000E+01 0.  1.
         13    1    6    6    0    0  0.59823536077E+01 -0.16702658997E+02 -0.14426120599E+03  0.14534807506E+03  0.00000000000E+00 0. -1.
        -14    1    6    6    0    0 -0.10978546872E+02 -0.41423404536E+01  0.76863636093E+01  0.14027389685E+02  0.00000000000E+00 0.  1.
</event>
<event>
12    1  0.8684423E-002  0.3899055E+03  0.7818608E-02  0.1047349E+00
         21   -1    0    0  503  502  0.00000000000E+00  0.00000000000E+00  0.18840403734E+03  0.18840403734E+03  0.00000000000E+00 0.  1.
         21   -1    0    0  501  503 -0.00000000000E+00 -0.00000000000E+00 -0.91707338649E+03  0.91707338649E+03  0.00000000000E+00 0. -1.
          6    2    1    2  501    0 -0.30441698323E+03 -0.17285983094E+03 -0.55632874777E+03  0.67935850533E+03  0.17168599926E+03 0.  0.
         24    2    3    3    0    0 -0.17260691983E+03 -0.17362560811E+03 -0.35119155371E+03  0.43547771968E+03  0.79789324903E+02 0.  0.
         -6    2    1    2    0  502  0.30441698323E+03  0.17285983094E+03 -0.17234060137E+03  0.42611891850E+03  0.17124785835E+03 0.  0.
        -24    2    5    5    0    0  0.12568433852E+03  0.28398488493E+02 -0.28644290979E+02  0.15503745959E+03  0.81320915945E+02 0.  0.
          5    1    3    3  501    0 -0.13181006340E+03  0.76577717354E+00 -0.20513719406E+03  0.24388078566E+03  0.47000000000E+01 0. -1.
        -13    1    4    4    0    0 -0.10849015605E+03 -0.77349414176E+02 -0.13155024315E+03  0.18723918475E+03  0.00000000000E+00 0.  1.
         14    1    4    4    0    0 -0.64116763789E+02 -0.96276193935E+02 -0.21964131057E+03  0.24823853493E+03  0.00000000000E+00 0. -1.
         -5    1    5    5    0  502  0.17873264471E+03  0.14446134245E+03 -0.14369631039E+03  0.27108145891E+03  0.47000000000E+01 0.  1.
         11    1    6    6    0    0  0.53256149778E+02  0.25943356001E+02 -0.52075205939E+02  0.78873964547E+02  0.00000000000E+00 0. -1.
        -12    1    6    6    0    0  0.72428188747E+02  0.24551324920E+01  0.23430914960E+02  0.76163495039E+02  0.00000000000E+00 0.  1.
</event>
<event>
12    1  0.8684423E-002  0.2569370E+03  0.7818608E-02  0.1109045E+00
         21   -1    0    0  501  502  0.00000000000E+00  0.00000000000E+00  0.96316402362E+02  0.96316402362E+02  0.00000000000E+00 0.  1.
         21   -1    0    0  502  503 -0.00000000000E+00 -0.00000000000E+00 -0.76894241474E+03  0.76894241474E+03  0.00000000000E+00 0. -1.
         -6    2    1    2    0  503 -0.15874008406E+03 -0.10478147310E+03 -0.47978575469E+03  0.54425268530E+03  0.17273981492E+03 0.  0.
        -24    2    3    3    0    0 -0.56228770742E+02 -0.98684505063E+01 -0.10964281701E+03  0.14859508645E+03  0.82461454143E+02 0.  0.
          6    2    1    2  501    0  0.15874008406E+03  0.10478147310E+03 -0.19284025769E+03  0.32100613180E+03  0.17227884454E+03 0.  0.
         24    2    5    5    0    0  0.17814809721E+03  0.97547696603E+02 -0.20240778288E+03  0.29771179698E+03  0.80069381416E+02 0.  0.
          5    1    5    5  501    0 -0.19408013144E+02  0.72337764937E+01  0.95675251903E+01  0.23294334823E+02  0.47000000000E+01 0. -1.
        -11    1    6    6    0    0  0.13191986240E+03  0.10473478430E+03 -0.13605962650E+03  0.21652816699E+03  0.00000000000E+00 0.  1.
         12    1    6    6    0    0  0.46228234810E+02 -0.71870876976E+01 -0.66348156381E+02  0.81183629990E+02  0.00000000000E+00 0. -1.
         -5    1    3    3    0  503 -0.10251131332E+03 -0.94913022590E+02 -0.37014293768E+03  0.39565759885E+03  0.47000000000E+01 0.  1.
         13    1    4    4    0    0 -0.41262729538E+02  0.17572942612E+02 -0.10840194425E+03  0.11731326727E+03  0.00000000000E+00 0. -1.
        -14    1    4    4    0    0 -0.14966041204E+02 -0.27441393118E+02 -0.12408727606E+01  0.31281819173E+02  0.00000000000E+00 0.  1.
</event>
<event>
12    1  0.8684423E-002  0.3197166E+03  0.7818608E-02  0.1076623E+00
         21   -1    0    0  501  502  0.00000000000E+00  0.00000000000E+00  0.55664006416E+03  0.55664006416E+03  0.00000000000E+00 0.  1.
         21   -1    0    0  502  503 -0.00000000000E+00 -0.00000000000E+00 -0.19970351286E+03  0.19970351286E+03  0.00000000000E+00 0. -1.
         -6    2    1    2    0  503  0.25249784220E+03 -0.65618730569E+02  0.60036248056E+02  0.32530459606E+03  0.18481815663E+03 0.  0.
        -24    2    3    3    0    0  0.16372135257E+03  0.33011223929E+02  0.15485435879E+02  0.18524747236E+03  0.78628271617E+02 0.  0.
          6    2    1    2  501    0 -0.25249784220E+03  0.65618730569E+02  0.29690030325E+03  0.43103898096E+03  0.17199952011E+03 0.  0.
         24    2    5    5    0    0 -0.12167028839E+03  0.28155438093E+02  0.65584958064E+02  0.16262097479E+03  0.80918520401E+02 0.  0.
          5    1    5    5  501    0 -0.13082755381E+03  0.37463292477E+02  0.23131534518E+03  0.26841800617E+03  0.47000000000E+01 0. -1.
        -13    1    6    6    0    0 -0.24706722683E+02  0.31488757596E+02  0.50494828890E+02  0.64433622785E+02  0.00000000000E+00 0.  1.
         14    1    6    6    0    0 -0.96963565711E+02 -0.33333195033E+01  0.15090129174E+02  0.98187352000E+02  0.00000000000E+00 0. -1.
         -5    1    3    3    0  503  0.88776489631E+02 -0.98629954499E+02  0.44550812177E+02  0.14005712371E+03  0.47000000000E+01 0.  1.
         13    1    4    4    0    0  0.64286105110E+02  0.49488286416E+02 -0.87052245748E+01  0.81593962629E+02  0.00000000000E+00 0. -1.
        -14    1    4    4    0    0  0.99435247459E+02 -0.16477062487E+02  0.24190660454E+02  0.10365350973E+03  0.00000000000E+00 0.  1.
</event>
<event>
12    1  0.8684423E-002  0.1744189E+03  0.7818608E-02  0.1173378E+00
         21   -1    0    0  501  502  0.00000000000E+00  0.00000000000E+00  0.20981599292E+03  0.20981599292E+03  0.00000000000E+00 0.  1.
         21   -1    0    0  502  503 -0.00000000000E+00 -0.00000000000E+00 -0.17063105569E+03  0.17063105569E+03  0.00000000000E+00 0.  1.
         -6    2    1    2    0  503  0.87991582691E+00 -0.24371252777E+02 -0.54420363035E+02  0.18271163075E+03  0.17270562204E+03 0.  0.
        -24    2    3    3    0    0 -0.64385113616E+02  0.56367176435E+01 -0.33012062245E+02  0.10760898300E+03  0.79452385280E+02 0.  0.
          6    2    1    2  501    0 -0.87991582691E+00  0.24371252777E+02  0.93605300266E+02  0.19773541786E+03  0.17246046221E+03 0.  0.
         24    2    5    5    0    0  0.45307791943E+02  0.39629149886E+02  0.89259556910E+01  0.99966357465E+02  0.79311628456E+02 0.  0.
          5    1    5    5  501    0 -0.46187707770E+02 -0.15257897109E+02  0.84679344575E+02  0.97769060397E+02  0.47000000000E+01 0. -1.
        -13    1    6    6    0    0  0.37163219292E+02  0.15612455619E+02  0.42049375833E+02  0.58249494818E+02  0.00000000000E+00 0.  1.
         14    1    6    6    0    0  0.81445726504E+01  0.24016694268E+02 -0.33123420142E+02  0.41716862647E+02  0.00000000000E+00 0. -1.
         -5    1    3    3    0  503  0.65265029443E+02 -0.30007970420E+02 -0.21408300790E+02  0.75102647754E+02  0.47000000000E+01 0.  1.
         13    1    4    4    0    0 -0.31556464979E+02 -0.33476168452E+02 -0.32876188216E+02  0.56544744122E+02  0.00000000000E+00 0. -1.
        -14    1    4    4    0    0 -0.32828648637E+02  0.39112886096E+02 -0.13587402859E+00  0.51064238874E+02  0.00000000000E+00 0.  1.
</event>
<event>
12    1  0.8684423E-002  0.1751204E+03  0.7818608E-02  0.1173985E+00
         21   -1    0    0  501  502  0.00000000000E+00  0.00000000000E+00  0.26657396000E+03  0.26657396000E+03  0.00000000000E+00 0.  1.
         21   -1    0    0  502  503 -0.00000000000E+00 -0.00000000000E+00 -0.11329956559E+03  0.11329956559E+03  0.00000000000E+00 0.  1.
         -6    2    1    2    0  503  0.18368674153E+02  0.20097104369E+02  0.54072196299E+02  0.18327838883E+03  0.17299093504E+03 0.  0.
        -24    2    3    3    0    0  0.22668515451E+02  0.54193837690E+02 -0.19888612253E+02  0.10158770968E+03  0.80459133878E+02 0.  0.
          6    2    1    2  501    0 -0.18368674153E+02 -0.20097104369E+02  0.99202198108E+02  0.19659513676E+03  0.16753289198E+03 0.  0.
         24    2    5    5    0    0 -0.55295583262E+02  0.30843707878E+02  0.81698853166E+02  0.13111979749E+03  0.80676904018E+02 0.  0.
          5    1    5    5  501    0  0.36926909109E+02 -0.50940812247E+02  0.17503344942E+02  0.65475339272E+02  0.47000000000E+01 0. -1.
        -11    1    6    6    0    0  0.34647435466E+01  0.41306053728E+02  0.44387092144E+02  0.60732268782E+02  0.00000000000E+00 0.  1.
         12    1    6    6    0    0 -0.58760326808E+02 -0.10462345851E+02  0.37311761022E+02  0.70387528710E+02  0.00000000000E+00 0. -1.
         -5    1    3    3    0  503 -0.42998412979E+01 -0.34096733320E+02  0.73960808551E+02  0.81690679149E+02  0.47000000000E+01 0.  1.
         13    1    4    4    0    0 -0.20451823358E+02  0.34556977533E+02 -0.33495391663E+02  0.52291519748E+02  0.00000000000E+00 0. -1.
        -14    1    4    4    0    0  0.43120338810E+02  0.19636860157E+02  0.13606779410E+02  0.49296189932E+02  0.00000000000E+00 0.  1.
</event>
<event>
12    1  0.8684423E-002  0.2626935E+03  0.7818608E-02  0.1105722E+00
         21   -1    0    0  503  502  0.00000000000E+00  0.00000000000E+00  0.97619064063E+02  0.97619064063E+02  0.00000000000E+00 0.  1.
         21   -1    0    0  501  503 -0.00000000000E+00 -0.00000000000E+00 -0.70689143576E+03  0.70689143576E+03  0.00000000000E+00 0. -1.
          6    2    1    2  501    0 -0.19432634792E+03 -0.41094894954E+02 -0.33307618408E+03  0.42420236089E+03  0.17191968676E+03 0.  0.
         24    2    3    3    0    0 -0.12111852711E+03  0.36667689505E+02 -0.21538615173E+03  0.26520727202E+03  0.89047659788E+02 0.  0.
         -6    2    1    2    0  502  0.19432634792E+03  0.41094894954E+02 -0.27619618762E+03  0.38030813893E+03  0.16999537227E+03 0.  0.
        -24    2    5    5    0    0  0.43510490258E+02  0.47067106504E+02 -0.15782162127E+03  0.18843391400E+03  0.80567986991E+02 0.  0.
          5    1    3    3  501    0 -0.73207820819E+02 -0.77762584459E+02 -0.11769003235E+03  0.15899508887E+03  0.47000000000E+01 0. -1.
        -13    1    4    4    0    0 -0.18497247658E+02 -0.25992652988E+02 -0.27385784715E+02  0.42044588055E+02  0.00000000000E+00 0.  1.
         14    1    4    4    0    0 -0.10262127945E+03  0.62660342493E+02 -0.18800036702E+03  0.22316268397E+03  0.00000000000E+00 0. -1.
         -5    1    5    5    0  502  0.15081585767E+03 -0.59722115500E+01 -0.11837456634E+03  0.19187422493E+03  0.47000000000E+01 0.  1.
         11    1    6    6    0    0  0.53845641425E+02  0.51989753044E+00 -0.67974775065E+02  0.86719048882E+02  0.00000000000E+00 0. -1.
        -12    1    6    6    0    0 -0.10335151166E+02  0.46547208974E+02 -0.89846846210E+02  0.10171486512E+03  0.00000000000E+00 0.  1.
</event>
<event>
12    1  0.8684423E-002  0.2793764E+03  0.7818608E-02  0.1096092E+00
         21   -1    0    0  501  502  0.00000000000E+00  0.00000000000E+00  0.11907565683E+04  0.11907565683E+04  0.00000000000E+00 0.  1.
         21   -1    0    0  502  503 -0.00000000000E+00 -0.00000000000E+00 -0.97750574165E+02  0.97750574165E+02  0.00000000000E+00 0.  1.
         -6    2    1    2    0  503 -0.13513305876E+03  0.17398685176E+03  0.17641041365E+03  0.33041152987E+03  0.17181029325E+03 0.  0.
        -24    2    3    3    0    0 -0.73401047927E+02  0.12214903282E+03  0.18795750039E+03  0.24884299521E+03  0.79288802841E+02 0.  0.
          6    2    1    2  501    0  0.13513305876E+03 -0.17398685176E+03  0.91659558050E+03  0.95809561261E+03  0.17107710704E+03 0.  0.
         24    2    5    5    0    0  0.83130495159E+02 -0.16339423953E+03  0.50211711453E+03  0.54020692073E+03  0.78061282058E+02 0.  0.
          5    1    5    5  501    0  0.52002563606E+02 -0.10592612236E+02  0.41447846597E+03  0.41788869188E+03  0.47000000000E+01 0. -1.
        -13    1    6    6    0    0  0.75308253565E+02 -0.88480566084E+02  0.37352940342E+03  0.39118328038E+03  0.00000000000E+00 0.  1.
         14    1    6    6    0    0  0.78222415943E+01 -0.74913673445E+02  0.12858771111E+03  0.14902364034E+03  0.00000000000E+00 0. -1.
         -5    1    3    3    0  503 -0.61732010838E+02  0.51837818944E+02 -0.11547086736E+02  0.81568534663E+02  0.47000000000E+01 0.  1.
         13    1    4    4    0    0 -0.66944386528E+02  0.35156792751E+02  0.80659718874E+02  0.11056012488E+03  0.00000000000E+00 0. -1.
        -14    1    4    4    0    0 -0.64566613983E+01  0.86992240069E+02  0.10729778151E+03  0.13828287033E+03  0.00000000000E+00 0.  1.
</event>
<event>
12    1  0.8684423E-002  0.2152886E+03  0.7818608E-02  0.1138117E+00
         21   -1    0    0  503  502  0.00000000000E+00  0.00000000000E+00  0.70816261825E+02  0.70816261825E+02  0.00000000000E+00 0.  1.
         21   -1    0    0  501  503 -0.00000000000E+00 -0.00000000000E+00 -0.81551360877E+03  0.81551360877E+03  0.00000000000E+00 0.  1.
          6    2    1    2  501    0 -0.13036726939E+03  0.84294748109E+01 -0.57319834812E+03  0.61108253689E+03  0.16672984025E+03 0.  0.
         24    2    3    3    0    0 -0.72575743216E+02 -0.58158702133E+02 -0.35929824497E+03  0.37967555788E+03  0.80053902321E+02 0.  0.
         -6    2    1    2    0  502  0.13036726939E+03 -0.84294748109E+01 -0.17149899882E+03  0.27524733370E+03  0.17112132286E+03 0.  0.
        -24    2    5    5    0    0  0.36110722113E+01 -0.17064610102E+02 -0.39682462850E+02  0.92109712660E+02  0.81272754032E+02 0.  0.
          5    1    3    3  501    0 -0.57791526177E+02  0.66588176944E+02 -0.21390010315E+03  0.23140697901E+03  0.47000000000E+01 0. -1.
        -13    1    4    4    0    0 -0.85822118730E+02 -0.58371641210E+02 -0.26756818693E+03  0.28699376164E+03  0.00000000000E+00 0.  1.
         14    1    4    4    0    0  0.13246375514E+02  0.21293907705E+00 -0.91730058033E+02  0.92681796239E+02  0.00000000000E+00 0. -1.
         -5    1    5    5    0  502  0.12675619718E+03  0.86351352910E+01 -0.13181653597E+03  0.18313762104E+03  0.47000000000E+01 0.  1.
         11    1    6    6    0    0  0.14838280928E+02 -0.18279327133E+02 -0.62425315474E+02  0.66717526883E+02  0.00000000000E+00 0. -1.
        -12    1    6    6    0    0 -0.11227208717E+02  0.12147170315E+01  0.22742852624E+02  0.25392185776E+02  0.00000000000E+00 0.  1.
</event>
<event>
12    1  0.8684423E-002  0.3376451E+03  0.7818608E-02  0.1067874E+00
         21   -1    0    0  501  502  0.00000000000E+00  0.00000000000E+00  0.18129859853E+03  0.18129859853E+03  0.00000000000E+00 0.  1.
         21   -1    0    0  502  503 -0.00000000000E+00 -0.00000000000E+00 -0.62864652870E+03  0.62864652870E+03  0.00000000000E+00 0. -1.
         -6    2    1    2    0  503 -0.23312064119E+03 -0.17290096230E+03 -0.20687265820E+03  0.39541816641E+03  0.17122865852E+03 0.  0.
        -24    2    3    3    0    0 -0.15867054634E+03 -0.70761049482E+02 -0.89611411757E+02  0.22294304260E+03  0.10719107578E+03 0.  0.
          6    2    1    2  501    0  0.23312064119E+03  0.17290096230E+03 -0.24047527197E+03  0.41452696083E+03  0.17252324108E+03 0.  0.
         24    2    5    5    0    0  0.17449128168E+03  0.17089496215E+03 -0.24507409278E+03  0.35549590980E+03  0.81631706255E+02 0.  0.
          5    1    5    5  501    0  0.58629359501E+02  0.20060001545E+01  0.45988208076E+01  0.59031051024E+02  0.47000000000E+01 0. -1.
        -11    1    6    6    0    0 -0.59097059727E+01  0.24142071037E+02 -0.20663308761E+02  0.32322384621E+02  0.00000000000E+00 0.  1.
         12    1    6    6    0    0  0.18040098766E+03  0.14675289111E+03 -0.22441078401E+03  0.32317352518E+03  0.00000000000E+00 0. -1.
         -5    1    3    3    0  503 -0.74450094842E+02 -0.10213991282E+03 -0.11726124645E+03  0.17247512380E+03  0.47000000000E+01 0.  1.
         11    1    4    4    0    0 -0.60761524331E+01 -0.32765244592E+02 -0.51161009290E+02  0.61056774834E+02  0.00000000000E+00 0. -1.
        -12    1    4    4    0    0 -0.15259439391E+03 -0.37995804890E+02 -0.38450402467E+02  0.16188626777E+03  0.00000000000E+00 0.  1.
</event>
<event>
12    1  0.8684423E-002  0.1882313E+03  0.7818608E-02  0.1160208E+00
         21   -1    0    0  503  502  0.00000000000E+00  0.00000000000E+00  0.52167431787E+02  0.52167431787E+02  0.00000000000E+00 0.  1.
         21   -1    0    0  501  503 -0.00000000000E+00 -0.00000000000E+00 -0.83476954093E+03  0.83476954093E+03  0.00000000000E+00 0.  1.
          6    2    1    2  501    0 -0.20407576354E+02  0.73030852125E+02 -0.58360231929E+03  0.61301737887E+03  0.17160613387E+03 0.  0.
         24    2    3    3    0    0  0.96459370524E+01 -0.23636158898E+01 -0.12865697635E+03  0.15086492076E+03  0.78159938398E+02 0.  0.
         -6    2    1    2    0  502  0.20407576354E+02 -0.73030852125E+02 -0.19899978985E+03  0.27391959384E+03  0.17228189979E+03 0.  0.
        -24    2    5    5    0    0 -0.29935131190E+02 -0.84909904301E+02 -0.18509290420E+03  0.22015165217E+03  0.78112501168E+02 0.  0.
          5    1    3    3  501    0 -0.30053513406E+02  0.75394468015E+02 -0.45494534295E+03  0.46215245812E+03  0.47000000000E+01 0. -1.
        -13    1    4    4    0    0  0.32373804983E+02 -0.16953983460E+02 -0.11486677770E+03  0.12053994120E+03  0.00000000000E+00 0.  1.
         14    1    4    4    0    0 -0.22727867931E+02  0.14590367570E+02 -0.13790198642E+02  0.30324979557E+02  0.00000000000E+00 0. -1.
         -5    1    5    5    0  502  0.50342707544E+02  0.11879052176E+02 -0.13906885648E+02  0.53767941674E+02  0.47000000000E+01 0.  1.
         13    1    6    6    0    0 -0.23117715721E+02 -0.67987770077E+01 -0.10628671971E+03  0.10898403065E+03  0.00000000000E+00 0. -1.
        -14    1    6    6    0    0 -0.68174154689E+01 -0.78111127293E+02 -0.78806184489E+02  0.11116762152E+03  0.00000000000E+00 0.  1.
</event>
<event>
12    1  0.8684423E-002  0.1842136E+03  0.7818608E-02  0.1163823E+00
         21   -1    0    0  501  502  0.00000000000E+00  0.00000000000E+00  0.19002551294E+03  0.19002551294E+03  0.00000000000E+00 0.  1.
         21   -1    0    0  502  503 -0.00000000000E+00 -0.00000000000E+00 -0.78879234386E+03  0.78879234386E+03  0.00000000000E+00 0.  1.
         -6    2    1    2    0  503 -0.35615751507E+02 -0.55620728097E+02 -0.72986659702E+03  0.75271658060E+03  0.17179887693E+03 0.  0.
        -24    2    3    3    0    0 -0.81987117968E+02 -0.18219088337E+02 -0.36130876757E+03  0.37934525078E+03  0.79403847969E+02 0.  0.
          6    2    1    2  501    0  0.35615751507E+02  0.55620728097E+02  0.13109976609E+03  0.22610127620E+03  0.17196654116E+03 0.  0.
         24    2    5    5    0    0 -0.10933384105E+02  0.30741684893E+02  0.13548808219E+01  0.85952733320E+02  0.79507525337E+02 0.  0.
          5    1    5    5  501    0  0.46549135611E+02  0.24879043204E+02  0.12974488527E+03  0.14014854288E+03  0.47000000000E+01 0. -1.
        -11    1    6    6    0    0 -0.11826399359E+02  0.32183616080E+02  0.36897667694E+02  0.50369502152E+02  0.00000000000E+00 0.  1.
         12    1    6    6    0    0  0.89301525413E+00 -0.14419311869E+01 -0.35542786872E+02  0.35583231169E+02  0.00000000000E+00 0. -1.
         -5    1    3    3    0  503  0.46371366461E+02 -0.37401639760E+02 -0.36855782945E+03  0.37337132982E+03  0.47000000000E+01 0.  1.
         11    1    4    4    0    0 -0.42710526339E+01 -0.19659551860E+02 -0.16901333506E+02  0.26275367632E+02  0.00000000000E+00 0. -1.
        -12    1    4    4    0    0 -0.77716065334E+02  0.14404635230E+01 -0.34440743406E+03  0.35306988314E+03  0.00000000000E+00 0.  1.
</event>
<event>
12    1  0.8684423E-002  0.1823545E+03  0.7818608E-02  0.1165613E+00
         21   -1    0    0  501  502  0.00000000000E+00  0.00000000000E+00  0.15397085093E+03  0.15397085093E+03  0.00000000000E+00 0.  1.
         21   -1    0    0  502  503 -0.00000000000E+00 -0.00000000000E+00 -0.45721096107E+03  0.45721096107E+03  0.00000000000E+00 0. -1.
         -6    2    1    2    0  503 -0.49147926236E+02  0.31762957119E+02 -0.37381383610E+03  0.41592058817E+03  0.17271000985E+03 0.  0.
        -24    2    3    3    0    0  0.25653336946E+02 -0.22375404599E+02 -0.22834617947E+03  0.24355725011E+03  0.77584817919E+02 0.  0.
          6    2    1    2  501    0  0.49147926236E+02 -0.31762957119E+02  0.70573725957E+02  0.19526122383E+03  0.17240037888E+03 0.  0.
         24    2    5    5    0    0  0.22641124037E+02 -0.81094059368E+02  0.14759915904E+02  0.11605617598E+03  0.78500407025E+02 0.  0.
          5    1    5    5  501    0  0.26506802199E+02  0.49331102248E+02  0.55813810053E+02  0.79205047847E+02  0.47000000000E+01 0. -1.
        -11    1    6    6    0    0  0.51723932311E+02 -0.55907509255E+02  0.48033681112E+01  0.76315706837E+02  0.00000000000E+00 0.  1.
         12    1    6    6    0    0 -0.29082808275E+02 -0.25186550113E+02  0.99565477926E+01  0.39740469143E+02  0.00000000000E+00 0. -1.
         -5    1    3    3    0  503 -0.74801263182E+02  0.54138361719E+02 -0.14546765662E+03  0.17236333806E+03  0.47000000000E+01 0.  1.
         13    1    4    4    0    0 -0.11328606817E+01 -0.22908677945E+01 -0.19905921883E+03  0.19907562395E+03  0.00000000000E+00 0. -1.
        -14    1    4    4    0    0  0.26786197628E+02 -0.20084536805E+02 -0.29286960643E+02  0.44481626159E+02  0.00000000000E+00 0.  1.
</event>
<event>
12    1  0.8684423E-002  0.2267143E+03  0.7818608E-02  0.1129017E+00
         21   -1    0    0  501  502  0.00000000000E+00  0.00000000000E+00  0.39975075644E+02  0.39975075644E+02  0.00000000000E+00 0.  1.
         21   -1    0    0  502  503 -0.00000000000E+00 -0.00000000000E+00 -0.12916195651E+04  0.12916195651E+04  0.00000000000E+00 0. -1.
         -6    2    1    2    0  503  0.66009881774E+02 -0.13240176917E+03 -0.57578737497E+03  0.61872563310E+03  0.17147237359E+03 0.  0.
        -24    2    3    3    0    0  0.61543633643E+01 -0.11252272051E+03 -0.24399651844E+03  0.28096074129E+03  0.81886496546E+02 0.  0.
          6    2    1    2  501    0 -0.66009881774E+02  0.13240176917E+03 -0.67585711444E+03  0.71286900760E+03  0.17179013327E+03 0.  0.
         24    2    5    5    0    0  0.29823476706E+02  0.21159257101E+02 -0.18912990528E+03  0.20445540115E+03  0.68518144050E+02 0.  0.
          5    1    5    5  501    0 -0.95833358479E+02  0.11124251207E+03 -0.48672720916E+03  0.50841360645E+03  0.47000000000E+01 0. -1.
        -11    1    6    6    0    0 -0.77940120448E+01  0.28544829235E+02 -0.13450222773E+03  0.13771856507E+03  0.00000000000E+00 0.  1.
         12    1    6    6    0    0  0.37617488751E+02 -0.73855721340E+01 -0.54627677543E+02  0.66736836076E+02  0.00000000000E+00 0. -1.
         -5    1    3    3    0  503  0.59855518409E+02 -0.19879048666E+02 -0.33179085654E+03  0.33776489181E+03  0.47000000000E+01 0.  1.
         13    1    4    4    0    0 -0.93992590325E+00 -0.50793450097E+02 -0.19591474214E+03  0.20239427912E+03  0.00000000000E+00 0. -1.
        -14    1    4    4    0    0  0.70942892676E+01 -0.61729270410E+02 -0.48081776301E+02  0.78566462169E+02  0.00000000000E+00 0.  1.
</event>
<event>
12    1  0.8684423E-002  0.3657318E+03  0.7818608E-02  0.1056546E+00
         21   -1    0    0  503  502  0.00000000000E+00  0.00000000000E+00  0.19641175271E+03  0.19641175271E+03  0.00000000000E+00 0.  1.
         21   -1    0    0  501  503 -0.00000000000E+00 -0.00000000000E+00 -0.76495727845E+03  0.76495727845E+03  0.00000000000E+00 0. -1.
          6    2    1    2  501    0 -0.77582130117E+02 -0.31338932377E+03 -0.44650664033E+03  0.57581326701E+03  0.16721508136E+03 0.  0.
         24    2    3    3    0    0 -0.91495902638E+02 -0.32289102750E+03 -0.41723176267E+03  0.54171071723E+03  0.82085574442E+02 0.  0.
         -6    2    1    2    0  502  0.77582130117E+02  0.31338932377E+03 -0.12203888540E+03  0.38555576415E+03  0.17183684865E+03 0.  0.
        -24    2    5    5    0    0  0.75624164338E-01  0.14963955709E+03 -0.60037004604E+01  0.17036399224E+03  0.81214793408E+02 0.  0.
          5    1    3    3  501    0  0.13913772521E+02  0.95017037351E+01 -0.29274877660E+02  0.34102549782E+02  0.47000000000E+01 0. -1.
        -11    1    4    4    0    0 -0.86099119624E+01 -0.18047578348E+03 -0.22216104975E+03  0.28635846597E+03  0.00000000000E+00 0.  1.
         12    1    4    4    0    0 -0.82885990676E+02 -0.14241524402E+03 -0.19507071293E+03  0.25535225125E+03  0.00000000000E+00 0. -1.
         -5    1    5    5    0  502  0.77506505953E+02  0.16374976668E+03 -0.11603518494E+03  0.21519177191E+03  0.47000000000E+01 0.  1.
         11    1    6    6    0    0  0.36537659010E+02  0.39529846031E+02  0.37820650550E+01  0.53962146633E+02  0.00000000000E+00 0. -1.
        -12    1    6    6    0    0 -0.36462034845E+02  0.11010971105E+03 -0.97857655153E+01  0.11640184560E+03  0.00000000000E+00 0.  1.
</event>
<event>
12    1  0.8684423E-002  0.2596582E+03  0.7818608E-02  0.1107460E+00
         21   -1    0    0  501  502  0.00000000000E+00  0.00000000000E+00  0.10132816505E+03  0.10132816505E+03  0.00000000000E+00 0. -1.
         21   -1    0    0  502  503 -0.00000000000E+00 -0.00000000000E+00 -0.89380934745E+03  0.89380934745E+03  0.00000000000E+00 0. -1.
         -6    2    1    2    0  503 -0.19297878369E+03 -0.14797223917E+02 -0.64839697835E+03  0.69818192503E+03  0.17198718008E+03 0.  0.
        -24    2    3    3    0    0 -0.18711326262E+03  0.31702384227E+02 -0.57604414512E+03  0.61184745699E+03  0.80709598459E+02 0.  0.
          6    2    1    2  501    0  0.19297878369E+03  0.14797223917E+02 -0.14408420405E+03  0.29695558747E+03  0.17309706608E+03 0.  0.
         24    2    5    5    0    0  0.16475322293E+03 -0.39262685890E+02 -0.14528514322E+03  0.23577807213E+03  0.76146854744E+02 0.  0.
          5    1    5    5  501    0  0.28225560761E+02  0.54059909807E+02  0.12009391749E+01  0.61177515343E+02  0.47000000000E+01 0. -1.
        -13    1    6    6    0    0  0.78454307751E+01  0.12801856856E+02 -0.32059829784E+02  0.35401567886E+02  0.00000000000E+00 0.  1.
         14    1    6    6    0    0  0.15690779215E+03 -0.52064542746E+02 -0.11322531344E+03  0.20037650424E+03  0.00000000000E+00 0. -1.
         -5    1    3    3    0  503 -0.58655210648E+01 -0.46499608144E+02 -0.72352833228E+02  0.86334468036E+02  0.47000000000E+01 0.  1.
         13    1    4    4    0    0 -0.15313590056E+03 -0.36466699727E+01 -0.37876789301E+03  0.40856947881E+03  0.00000000000E+00 0. -1.
        -14    1    4    4    0    0 -0.33977362067E+02  0.35349054200E+02 -0.19727625212E+03  0.20327797818E+03  0.00000000000E+00 0.  1.
</event>
<event>
12    1  0.8684423E-002  0.2146497E+03  0.7818608E-02  0.1139421E+00
         21   -1    0    0  503  502  0.00000000000E+00  0.00000000000E+00  0.52364968645E+02  0.52364968645E+02  0.00000000000E+00 0.  1.
         21   -1    0    0  501  503 -0.00000000000E+00 -0.00000000000E+00 -0.90482085602E+03  0.90482085602E+03  0.00000000000E+00 0.  1.
          6    2    1    2  501    0 -0.11763514096E+03  0.47514507120E+02 -0.53778460603E+03  0.57627570950E+03  0.16366354545E+03 0.  0.
         24    2    3    3    0    0 -0.12443572017E+03  0.16699441709E+02 -0.28776734136E+03  0.32423099370E+03  0.80947975347E+02 0.  0.
         -6    2    1    2    0  502  0.11763514096E+03 -0.47514507120E+02 -0.31467128135E+03  0.38091011516E+03  0.17314400293E+03 0.  0.
        -24    2    5    5    0    0  0.83524241167E+02 -0.35633686402E+02 -0.82421222383E+02  0.14582101019E+03  0.78895187721E+02 0.  0.
          5    1    3    3  501    0  0.68005792102E+01  0.30815065411E+02 -0.25001726467E+03  0.25204471581E+03  0.47000000000E+01 0. -1.
        -13    1    4    4    0    0 -0.77161608988E+02 -0.27196244702E+02 -0.12778736638E+03  0.15173384802E+03  0.00000000000E+00 0.  1.
         14    1    4    4    0    0 -0.47274111184E+02  0.43895686411E+02 -0.15997997498E+03  0.17249714568E+03  0.00000000000E+00 0. -1.
         -5    1    5    5    0  502  0.34110899794E+02 -0.11880820719E+02 -0.23225005897E+03  0.23508910497E+03  0.47000000000E+01 0.  1.
         13    1    6    6    0    0 -0.13126206631E+02  0.50978469428E+01 -0.33570863630E+01  0.14476027522E+02  0.00000000000E+00 0. -1.
        -14    1    6    6    0    0  0.96650447799E+02 -0.40731533344E+02 -0.79064136020E+02  0.13134498267E+03  0.00000000000E+00 0.  1.
</event>
<event>
12    1  0.8684423E-002  0.5524374E+03  0.7818608E-02  0.1000964E+00
         21   -1    0    0  501  502  0.00000000000E+00  0.00000000000E+00  0.27398445417E+03  0.27398445417E+03  0.00000000000E+00 0. -1.
         21   -1    0    0  502  503 -0.00000000000E+00 -0.00000000000E+00 -0.11162074102E+04  0.11162074102E+04  0.00000000000E+00 0. -1.
         -6    2    1    2    0  503  0.39904064461E+03  0.34100778700E+03 -0.46016155320E+03  0.71898246718E+03  0.17224223126E+03 0.  0.
        -24    2    3    3    0    0  0.37070974030E+03  0.34964475666E+03 -0.45635321908E+03  0.68875283284E+03  0.80280986286E+02 0.  0.
          6    2    1    2  501    0 -0.39904064461E+03 -0.34100778700E+03 -0.38206140282E+03  0.67120939716E+03  0.17038601019E+03 0.  0.
         24    2    5    5    0    0 -0.20380231135E+03 -0.14737752528E+03 -0.11807417472E+03  0.28999812814E+03  0.83077593376E+02 0.  0.
          5    1    5    5  501    0 -0.19523833327E+03 -0.19363026172E+03 -0.26398722810E+03  0.38121126902E+03  0.47000000000E+01 0. -1.
        -11    1    6    6    0    0 -0.21152826670E+02  0.93912948478E+01 -0.18009679249E+02  0.29325535659E+02  0.00000000000E+00 0.  1.
         12    1    6    6    0    0 -0.18264948468E+03 -0.15676882013E+03 -0.10006449547E+03  0.26067259248E+03  0.00000000000E+00 0. -1.
         -5    1    3    3    0  503  0.28330904310E+02 -0.86369696631E+01 -0.38083341178E+01  0.30229634347E+02  0.47000000000E+01 0.  1.
         11    1    4    4    0    0  0.33076001630E+03  0.27159157243E+03 -0.38602796629E+03  0.57635211577E+03  0.00000000000E+00 0. -1.
        -12    1    4    4    0    0  0.39949724004E+02  0.78053184230E+02 -0.70325252794E+02  0.11240071707E+03  0.00000000000E+00 0.  1.
</event>
<event>
12    1  0.8684423E-002  0.1863212E+03  0.7818608E-02  0.1162149E+00
         21   -1    0    0  501  502  0.00000000000E+00  0.00000000000E+00  0.10506331189E+03  0.10506331189E+03  0.00000000000E+00 0. -1.
         21   -1    0    0  502  503 -0.00000000000E+00 -0.00000000000E+00 -0.32793684048E+03  0.32793684048E+03  0.00000000000E+00 0. -1.
         -6    2    1    2    0  503 -0.65217935527E+02 -0.14504859152E+02 -0.11011674039E+03  0.21521656666E+03  0.17242013802E+03 0.  0.
        -24    2    3    3    0    0 -0.99618355293E+02  0.10198849639E+02 -0.42646684415E+02  0.13541706439E+03  0.80568035790E+02 0.  0.
          6    2    1    2  501    0  0.65217935527E+02  0.14504859152E+02 -0.11275678819E+03  0.21778358572E+03  0.17393052311E+03 0.  0.
         24    2    5    5    0    0  0.92573671451E+02  0.54494662808E+02 -0.10701995410E+03  0.16876805808E+03  0.74093413545E+02 0.  0.
          5    1    5    5  501    0 -0.27355735924E+02 -0.39989803656E+02 -0.57368340893E+01  0.49015527639E+02  0.47000000000E+01 0. -1.
        -13    1    6    6    0    0 -0.87291940428E+01 -0.41469349879E+01 -0.22208721367E+02  0.24220305596E+02  0.00000000000E+00 0.  1.
         14    1    6    6    0    0  0.10130286549E+03  0.58641597796E+02 -0.84811232733E+02  0.14454775248E+03  0.00000000000E+00 0. -1.
         -5    1    3    3    0  503  0.34400419767E+02 -0.24703708792E+02 -0.67470055978E+02  0.79799502266E+02  0.47000000000E+01 0.  1.
         11    1    4    4    0    0 -0.10648772745E+03  0.10751579860E+02 -0.55700610726E+02  0.12065566958E+03  0.00000000000E+00 0. -1.
        -12    1    4    4    0    0  0.68693721574E+01 -0.55273022068E+00  0.13053926311E+02  0.14761394807E+02  0.00000000000E+00 0.  1.
</event>
<event>
12    1  0.8684423E-002  0.2104914E+03  0.7818608E-02  0.1141491E+00
         21   -1    0    0  503  502  0.00000000000E+00  0.00000000000E+00  0.11905972187E+04  0.11905972187E+04  0.00000000000E+00 0.  1.
         21   -1    0    0  501  503 -0.00000000000E+00 -0.00000000000E+00 -0.84037375359E+02  0.84037375359E+02  0.00000000000E+00 0.  1.
          6    2    1    2  501    0  0.19804769753E+02  0.11933888947E+03  0.75223648362E+02  0.22203733939E+03  0.17031730202E+03 0.  0.
         24    2    3    3    0    0  0.69748165360E+02  0.11019900475E+03  0.77780847703E+02  0.17098335300E+03  0.78592744682E+02 0.  0.
         -6    2    1    2    0  502 -0.19804769753E+02 -0.11933888947E+03  0.10313361950E+04  0.10525972547E+04  0.17225746433E+03 0.  0.
        -24    2    5    5    0    0 -0.20853644898E+02 -0.23457215588E+02  0.76030950754E+03  0.76506995017E+03  0.79223518844E+02 0.  0.
          5    1    3    3  501    0 -0.49943395607E+02  0.91398847213E+01 -0.25571993413E+01  0.51053986387E+02  0.47000000000E+01 0. -1.
        -11    1    4    4    0    0  0.20740052279E+02  0.66687769437E+02  0.74536792747E+00  0.69842422169E+02  0.00000000000E+00 0.  1.
         12    1    4    4    0    0  0.49008113080E+02  0.43511235310E+02  0.77035479776E+02  0.10114093084E+03  0.00000000000E+00 0. -1.
         -5    1    5    5    0  502  0.10488751450E+01 -0.95881673880E+02  0.27102668746E+03  0.28752730451E+03  0.47000000000E+01 0.  1.
         13    1    6    6    0    0 -0.17517324958E+02  0.26902143249E+02  0.39304884426E+03  0.39435767517E+03  0.00000000000E+00 0. -1.
        -14    1    6    6    0    0 -0.33363199396E+01 -0.50359358837E+02  0.36726066327E+03  0.37071227501E+03  0.00000000000E+00 0.  1.
</event>
<event>
12    1  0.8684423E-002  0.1854261E+03  0.7818608E-02  0.1162943E+00
         21   -1    0    0  501  502  0.00000000000E+00  0.00000000000E+00  0.20533118368E+03  0.20533118368E+03  0.00000000000E+00 0. -1.
         21   -1    0    0  502  503 -0.00000000000E+00 -0.00000000000E+00 -0.25925936894E+03  0.25925936894E+03  0.00000000000E+00 0.  1.
         -6    2    1    2    0  503 -0.11736460924E+02 -0.65922971451E+02 -0.16598021642E+03  0.24793757783E+03  0.17158096508E+03 0.  0.
        -24    2    3    3    0    0 -0.66936870237E+02 -0.68143020983E+02 -0.13895660818E+03  0.18625792794E+03  0.79114226654E+02 0.  0.
          6    2    1    2  501    0  0.11736460924E+02  0.65922971451E+02  0.11205203116E+03  0.21665297479E+03  0.17291405702E+03 0.  0.
         24    2    5    5    0    0 -0.24676754090E+02  0.10078874735E+03  0.55392622683E+02  0.14066663966E+03  0.77145622575E+02 0.  0.
          5    1    5    5  501    0  0.36413215014E+02 -0.34865775895E+02  0.56659408477E+02  0.75986335123E+02  0.47000000000E+01 0. -1.
        -13    1    6    6    0    0 -0.32885162281E+02  0.14999729646E+02 -0.34570730497E+01  0.36309463529E+02  0.00000000000E+00 0.  1.
         14    1    6    6    0    0  0.82084081906E+01  0.85789017701E+02  0.58849695733E+02  0.10435717614E+03  0.00000000000E+00 0. -1.
         -5    1    3    3    0  503  0.55200409312E+02  0.22200495315E+01 -0.27023608236E+02  0.61679649888E+02  0.47000000000E+01 0.  1.
         11    1    4    4    0    0 -0.36483321328E+02 -0.82596712617E+02 -0.10279130394E+03  0.13681849961E+03  0.00000000000E+00 0. -1.
        -12    1    4    4    0    0 -0.30453548908E+02  0.14453691635E+02 -0.36165304242E+02  0.49439428333E+02  0.00000000000E+00 0.  1.
</event>
<event>
12    1  0.8684423E-002  0.1790277E+03  0.7818608E-02  0.1169168E+00
         21   -1    0    0  501  502  0.00000000000E+00  0.00000000000E+00  0.30549108972E+03  0.30549108972E+03  0.00000000000E+00 0. -1.
         21   -1    0    0  502  503 -0.00000000000E+00 -0.00000000000E+00 -0.19155645877E+03  0.19155645877E+03  0.00000000000E+00 0. -1.
         -6    2    1    2    0  503 -0.20688079894E+02 -0.41592282928E+02 -0.11098881315E+03  0.21064054898E+03  0.17289595016E+03 0.  0.
        -24    2    3    3    0    0 -0.79096542437E+02 -0.15683894509E+02 -0.80679068980E+02  0.13976344634E+03  0.80761755735E+02 0.  0.
          6    2    1    2  501    0  0.20688079894E+02  0.41592282928E+02  0.22492344411E+03  0.28640699950E+03  0.17111545520E+03 0.  0.
         24    2    5    5    0    0  0.11428589819E+02  0.86485274091E+02  0.12392123223E+03  0.17539053398E+03  0.88289593470E+02 0.  0.
          5    1    5    5  501    0  0.92594900750E+01 -0.44892991163E+02  0.10100221188E+03  0.11101646552E+03  0.47000000000E+01 0. -1.
        -11    1    6    6    0    0  0.24145038677E+02  0.68698902618E+02  0.29660879292E+02  0.78627538903E+02  0.00000000000E+00 0.  1.
         12    1    6    6    0    0 -0.12716448858E+02  0.17786371473E+02  0.94260352935E+02  0.96762995081E+02  0.00000000000E+00 0. -1.
         -5    1    3    3    0  503  0.58408462544E+02 -0.25908388419E+02 -0.30309744173E+02  0.70877102642E+02  0.47000000000E+01 0.  1.
         13    1    4    4    0    0 -0.16325151967E+02  0.12242601467E+02  0.12548528914E+02  0.23955322067E+02  0.00000000000E+00 0. -1.
        -14    1    4    4    0    0 -0.62771390470E+02 -0.27926495976E+02 -0.93227597894E+02  0.11580812428E+03  0.00000000000E+00 0.  1.
</event>
<event>
12    1  0.8684423E-002  0.1972670E+03  0.7818608E-02  0.1152184E+00
         21   -1    0    0  503  502  0.00000000000E+00  0.00000000000E+00  0.35080966275E+02  0.35080966275E+02  0.00000000000E+00 0.  1.
         21   -1    0    0  501  503 -0.00000000000E+00 -0.00000000000E+00 -0.16101557008E+04  0.16101557008E+04  0.00000000000E+00 0.  1.
          6    2    1    2  501    0  0.57852806343E+01  0.97206901576E+02 -0.12485157698E+04  0.12640039107E+04  0.17155642672E+03 0.  0.
         24    2    3    3    0    0 -0.57329375608E+02  0.76675212154E+02 -0.94632483557E+03  0.95457466053E+03  0.80723866726E+02 0.  0.
         -6    2    1    2    0  502 -0.57852806343E+01 -0.97206901576E+02 -0.32655896466E+03  0.38123275635E+03  0.17092397704E+03 0.  0.
        -24    2    5    5    0    0  0.52509900871E+02 -0.31371994564E+02 -0.22797079407E+03  0.24904243692E+03  0.79435261123E+02 0.  0.
          5    1    3    3  501    0  0.63114656242E+02  0.20531689422E+02 -0.30219093427E+03  0.30942925016E+03  0.47000000000E+01 0. -1.
        -11    1    4    4    0    0 -0.14676216969E+02 -0.12725045441E+02 -0.30780855980E+03  0.30842086118E+03  0.00000000000E+00 0.  1.
         12    1    4    4    0    0 -0.42653158639E+02  0.89400257595E+02 -0.63851627577E+03  0.64615379935E+03  0.00000000000E+00 0. -1.
         -5    1    5    5    0  502 -0.58295181505E+02 -0.65834907012E+02 -0.98588170597E+02  0.13219031943E+03  0.47000000000E+01 0.  1.
         13    1    6    6    0    0  0.71887750630E+01  0.11483469419E+00 -0.16562614765E+03  0.16578212346E+03  0.00000000000E+00 0. -1.
        -14    1    6    6    0    0  0.45321125808E+02 -0.31486829258E+02 -0.62344646417E+02  0.83260313464E+02  0.00000000000E+00 0.  1.
</event>
<event>
12    1  0.8684423E-002  0.2008769E+03  0.7818608E-02  0.1149089E+00
         21   -1    0    0  501  502  0.00000000000E+00  0.00000000000E+00  0.70305595118E+03  0.70305595118E+03  0.00000000000E+00 0. -1.
         21   -1    0    0  502  503 -0.00000000000E+00 -0.00000000000E+00 -0.59870824046E+02  0.59870824046E+02  0.00000000000E+00 0. -1.
         -6    2    1    2    0  503  0.85757990664E+01  0.10242982435E+03  0.24184690594E+03  0.31412405872E+03  0.17210050874E+03 0.  0.
        -24    2    3    3    0    0 -0.62831305820E+02  0.55620434717E+02  0.17950877458E+03  0.20830238699E+03  0.64226774219E+02 0.  0.
          6    2    1    2  501    0 -0.85757990664E+01 -0.10242982435E+03  0.40133822119E+03  0.44880271651E+03  0.17258649224E+03 0.  0.
         24    2    5    5    0    0  0.54620754222E+00 -0.62117418898E+02  0.89376227234E+02  0.13407954177E+03  0.78296497074E+02 0.  0.
          5    1    5    5  501    0 -0.91220066087E+01 -0.40312405452E+02  0.31196199396E+03  0.31472317473E+03  0.47000000000E+01 0. -1.
        -11    1    6    6    0    0  0.36871296646E+02 -0.13987156914E+02  0.31117536414E+02  0.50233794873E+02  0.00000000000E+00 0.  1.
         12    1    6    6    0    0 -0.36325089104E+02 -0.48130261984E+02  0.58258690820E+02  0.83845746899E+02  0.00000000000E+00 0. -1.
         -5    1    3    3    0  503  0.71407104887E+02  0.46809389634E+02  0.62338131362E+02  0.10582167173E+03  0.47000000000E+01 0.  1.
         13    1    4    4    0    0 -0.26735525880E+02  0.61159491576E+02  0.13601856243E+03  0.15151343531E+03  0.00000000000E+00 0. -1.
        -14    1    4    4    0    0 -0.36095779941E+02 -0.55390568590E+01  0.43490212150E+02  0.56788951683E+02  0.00000000000E+00 0.  1.
</event>
<event>
12    1  0.8684423E-002  0.1810726E+03  0.7818608E-02  0.1167250E+00
         21   -1    0    0  503  502  0.00000000000E+00  0.00000000000E+00  0.64989352180E+03  0.64989352180E+03  0.00000000000E+00 0.  1.
         21   -1    0    0  501  503 -0.00000000000E+00 -0.00000000000E+00 -0.10180126037E+03  0.10180126037E+03  0.00000000000E+00 0.  1.
          6    2    1    2  501    0  0.35059110534E+02  0.43167643068E+02  0.49312424379E+01  0.17914679603E+03  0.17022535280E+03 0.  0.
         24    2    3    3    0    0 -0.22047254607E+02  0.22979255127E+02 -0.47074837325E+02  0.99175361883E+02  0.81274746960E+02 0.  0.
         -6    2    1    2    0  502 -0.35059110534E+02 -0.43167643068E+02  0.54316101900E+03  0.57254798614E+03  0.17232155187E+03 0.  0.
        -24    2    5    5    0    0  0.92427358908E+01 -0.24552297675E+02  0.50277124711E+03  0.50959873393E+03  0.78890425380E+02 0.  0.
          5    1    3    3  501    0  0.57106365141E+02  0.20188387941E+02  0.52006079763E+02  0.79971434148E+02  0.47000000000E+01 0. -1.
        -13    1    4    4    0    0  0.10762084656E+02  0.70762901706E+00 -0.57233080035E+02  0.58240438316E+02  0.00000000000E+00 0.  1.
         14    1    4    4    0    0 -0.32809339263E+02  0.22271626110E+02  0.10158242709E+02  0.40934923567E+02  0.00000000000E+00 0. -1.
         -5    1    5    5    0  502 -0.44301846425E+02 -0.18615345393E+02  0.40389771887E+02  0.62949252210E+02  0.47000000000E+01 0.  1.
         11    1    6    6    0    0  0.23775477411E+02  0.18923620196E+02  0.10860883385E+03  0.11277967688E+03  0.00000000000E+00 0. -1.
        -12    1    6    6    0    0 -0.14532741520E+02 -0.43475917871E+02  0.39416241326E+03  0.39681905705E+03  0.00000000000E+00 0.  1.
</event>
<event>
12    1  0.8684423E-002  0.2274449E+03  0.7818608E-02  0.1128619E+00
         21   -1    0    0  503  502  0.00000000000E+00  0.00000000000E+00  0.32423637137E+03  0.32423637137E+03  0.00000000000E+00 0.  1.
         21   -1    0    0  501  503 -0.00000000000E+00 -0.00000000000E+00 -0.24167902245E+03  0.24167902245E+03  0.00000000000E+00 0.  1.
          6    2    1    2  501    0  0.53546377032E+02  0.13766548901E+03 -0.12438862145E+03  0.25841282144E+03  0.17171387767E+03 0.  0.
         24    2    3    3    0    0  0.10198494586E+02  0.68430085575E+02 -0.13938628891E+03  0.17522868816E+03  0.80559727625E+02 0.  0.
         -6    2    1    2    0  502 -0.53546377032E+02 -0.13766548901E+03  0.20694597038E+03  0.30750257238E+03  0.17295142673E+03 0.  0.
        -24    2    5    5    0    0  0.17355826594E+02 -0.74767018503E+02  0.45132268432E+02  0.11991498162E+03  0.80320292515E+02 0.  0.
          5    1    3    3  501    0  0.43347882446E+02  0.69235403430E+02  0.14997667458E+02  0.83184133281E+02  0.47000000000E+01 0. -1.
        -11    1    4    4    0    0  0.35841842520E+02  0.69133739722E+01 -0.70436894546E+02  0.79333401088E+02  0.00000000000E+00 0.  1.
         12    1    4    4    0    0 -0.25643347934E+02  0.61516711603E+02 -0.68949394366E+02  0.95895287075E+02  0.00000000000E+00 0. -1.
         -5    1    5    5    0  502 -0.70902203625E+02 -0.62898470503E+02  0.16181370194E+03  0.18758759076E+03  0.47000000000E+01 0.  1.
         11    1    6    6    0    0  0.23392940232E+02  0.10299052858E+02  0.70212889766E+01  0.26506577322E+02  0.00000000000E+00 0. -1.
        -12    1    6    6    0    0 -0.60371136379E+01 -0.85066071360E+02  0.38110979455E+02  0.93408404294E+02  0.00000000000E+00 0.  1.
</event>
<event>
12    1  0.8684423E-002  0.1763184E+03  0.7818608E-02  0.1172065E+00
         21   -1    0    0  503  502  0.00000000000E+00  0.00000000000E+00  0.82401142803E+02  0.82401142803E+02  0.00000000000E+00 0.  1.
         21   -1    0    0  501  503 -0.00000000000E+00 -0.00000000000E+00 -0.49752564416E+03  0.49752564416E+03  0.00000000000E+00 0.  1.
          6    2    1    2  501    0  0.31158503989E+02 -0.16656390592E+02 -0.62919364376E+02  0.18720854042E+03  0.17274230366E+03 0.  0.
         24    2    3    3    0    0  0.88187354294E+02 -0.21588397538E+02 -0.39525451674E+02  0.12519257787E+03  0.76601905056E+02 0.  0.
         -6    2    1    2    0  502 -0.31158503989E+02  0.16656390592E+02 -0.35220513698E+03  0.39271824654E+03  0.17009078438E+03 0.  0.
        -24    2    5    5    0    0 -0.71788793053E+02  0.38724188271E+02 -0.30867256272E+03  0.32903949729E+03  0.79593003703E+02 0.  0.
          5    1    3    3  501    0 -0.57028850305E+02  0.49320069458E+01 -0.23393912702E+02  0.62015962551E+02  0.47000000000E+01 0. -1.
        -11    1    4    4    0    0  0.37860679070E+01  0.23007109832E+02 -0.69907748739E+01  0.24341987313E+02  0.00000000000E+00 0.  1.
         12    1    4    4    0    0  0.84401286387E+02 -0.44595507369E+02 -0.32534676800E+02  0.10085059056E+03  0.00000000000E+00 0. -1.
         -5    1    5    5    0  502  0.40630289064E+02 -0.22067797679E+02 -0.43532574264E+02  0.63678749249E+02  0.47000000000E+01 0.  1.
         11    1    6    6    0    0 -0.19911523888E+02 -0.93801807204E+01 -0.14213976356E+02  0.26201024746E+02  0.00000000000E+00 0. -1.
        -12    1    6    6    0    0 -0.51877269165E+02  0.48104368991E+02 -0.29445858636E+03  0.30283847255E+03  0.00000000000E+00 0.  1.
</event>
<event>
12    1  0.8684423E-002  0.2009628E+03  0.7818608E-02  0.1152260E+00
         21   -1    0    0  503  502  0.00000000000E+00  0.00000000000E+00  0.14322398821E+03  0.14322398821E+03  0.00000000000E+00 0. -1.
         21   -1    0    0  501  503 -0.00000000000E+00 -0.00000000000E+00 -0.27603028126E+03  0.27603028126E+03  0.00000000000E+00 0. -1.
          6    2    1    2  501    0 -0.73677669533E+02 -0.25974392501E+01 -0.11280035094E+03  0.21729811902E+03  0.17046820137E+03 0.  0.
         24    2    3    3    0    0 -0.82032902732E+02  0.27801463732E+02 -0.21937223863E+02  0.12100636918E+03  0.81602580080E+02 0.  0.
         -6    2    1    2    0  502  0.73677669533E+02  0.25974392501E+01 -0.20005942111E+02  0.20195615046E+03  0.18695160687E+03 0.  0.
        -24    2    5    5    0    0  0.26274109265E+00  0.87303230493E+01 -0.74507210161E+02  0.11019645233E+03  0.80719552570E+02 0.  0.
          5    1    3    3  501    0  0.83552331986E+01 -0.30398902982E+02 -0.90863127076E+02  0.96291749835E+02  0.47000000000E+01 0. -1.
        -13    1    4    4    0    0 -0.89044977449E-01  0.33733683447E+02 -0.19172693848E+02  0.38801565913E+02  0.00000000000E+00 0.  1.
         14    1    4    4    0    0 -0.81943857755E+02 -0.59322197147E+01 -0.27645300151E+01  0.82204803270E+02  0.00000000000E+00 0. -1.
         -5    1    5    5    0  502  0.73414928441E+02 -0.61328837992E+01  0.54501268050E+02  0.91759698129E+02  0.47000000000E+01 0.  1.
         11    1    6    6    0    0  0.28764501246E+02 -0.12800385826E+01 -0.74625660582E+02  0.79987650596E+02  0.00000000000E+00 0. -1.
        -12    1    6    6    0    0 -0.28501760153E+02  0.10010361632E+02  0.11845042020E+00  0.30208801736E+02  0.00000000000E+00 0.  1.
</event>
<event>
12    1  0.8684423E-002  0.1784979E+03  0.7818608E-02  0.1169407E+00
         21   -1    0    0  501  502  0.00000000000E+00  0.00000000000E+00  0.81738865948E+03  0.81738865948E+03  0.00000000000E+00 0.  1.
         21   -1    0    0  502  503 -0.00000000000E+00 -0.00000000000E+00 -0.59232642144E+02  0.59232642144E+02  0.00000000000E+00 0.  1.
         -6    2    1    2    0  503  0.29401571477E+02  0.37568613020E+02  0.12157441509E+03  0.21548768897E+03  0.17140231213E+03 0.  0.
        -24    2    3    3    0    0  0.37932923810E+02  0.81955514224E+02  0.11982101634E+03  0.17001082256E+03  0.79943672746E+02 0.  0.
          6    2    1    2  501    0 -0.29401571477E+02 -0.37568613020E+02  0.63658160224E+03  0.66113361265E+03  0.17200483823E+03 0.  0.
         24    2    5    5    0    0 -0.31442042484E+02  0.41241239976E+02  0.31929541036E+03  0.33416606990E+03  0.83832936775E+02 0.  0.
          5    1    5    5  501    0  0.20404710061E+01 -0.78809852996E+02  0.31728619189E+03  0.32696754275E+03  0.47000000000E+01 0. -1.
        -11    1    6    6    0    0  0.71859680423E+01  0.35551595512E+02  0.26397175400E+03  0.26645194875E+03  0.00000000000E+00 0.  1.
         12    1    6    6    0    0 -0.38628010526E+02  0.56896444643E+01  0.55323656357E+02  0.67714121156E+02  0.00000000000E+00 0. -1.
         -5    1    3    3    0  503 -0.85313523327E+01 -0.44386901204E+02  0.17533987570E+01  0.45476866409E+02  0.47000000000E+01 0.  1.
         11    1    4    4    0    0 -0.91958413219E+01  0.41492102738E+01 -0.81732129208E+01  0.12983868952E+02  0.00000000000E+00 0. -1.
        -12    1    4    4    0    0  0.47128765132E+02  0.77806303950E+02  0.12799422926E+03  0.15702695361E+03  0.00000000000E+00 0.  1.
</event>
<event>
12    1  0.8684423E-002  0.3267316E+03  0.7818608E-02  0.1072595E+00
         21   -1    0    0  503  502  0.00000000000E+00  0.00000000000E+00  0.36720295472E+03  0.36720295472E+03  0.00000000000E+00 0.  1.
         21   -1    0    0  501  503 -0.00000000000E+00 -0.00000000000E+00 -0.32231166228E+03  0.32231166228E+03  0.00000000000E+00 0. -1.
          6    2    1    2  501    0  0.27736353518E+03  0.12529126659E+02  0.13041852489E+03  0.35177437498E+03  0.17218800654E+03 0.  0.
         24    2    3    3    0    0  0.19407572882E+03  0.31370045273E+02  0.21762100415E+02  0.21349875355E+03  0.80365791820E+02 0.  0.
         -6    2    1    2    0  502 -0.27736353518E+03 -0.12529126659E+02 -0.85527232456E+02  0.33774024202E+03  0.17223836370E+03 0.  0.
        -24    2    5    5    0    0 -0.24427253524E+03 -0.55319373550E+01 -0.12583563596E+02  0.25719929740E+03  0.79331322331E+02 0.  0.
          5    1    3    3  501    0  0.83287806361E+02 -0.18840918614E+02  0.10865642447E+03  0.13827562143E+03  0.47000000000E+01 0. -1.
        -11    1    4    4    0    0  0.20127261334E+03  0.28819346215E+02  0.25638693266E+02  0.20493550739E+03  0.00000000000E+00 0.  1.
         12    1    4    4    0    0 -0.71968845250E+01  0.25506990579E+01 -0.38765928512E+01  0.85632461534E+01  0.00000000000E+00 0. -1.
         -5    1    5    5    0  502 -0.33090999935E+02 -0.69971893043E+01 -0.72943668860E+02  0.80540944628E+02  0.47000000000E+01 0.  1.
         11    1    6    6    0    0 -0.95251443818E+02  0.34020236259E+02 -0.18873925823E+02  0.10289042278E+03  0.00000000000E+00 0. -1.
        -12    1    6    6    0    0 -0.14902109142E+03 -0.39552173614E+02  0.62903622271E+01  0.15430887461E+03  0.00000000000E+00 0.  1.
</event>
<event>
12    1  0.8684423E-002  0.2173663E+03  0.7818608E-02  0.1135925E+00
         21   -1    0    0  501  502  0.00000000000E+00  0.00000000000E+00  0.95647224188E+03  0.95647224188E+03  0.00000000000E+00 0.  1.
         21   -1    0    0  502  503 -0.00000000000E+00 -0.00000000000E+00 -0.49492055132E+02  0.49492055132E+02  0.00000000000E+00 0.  1.
         -6    2    1    2    0  503 -0.12643711605E+03 -0.40344617231E+02  0.48261287026E+03  0.52916695169E+03  0.17172200721E+03 0.  0.
        -24    2    3    3    0    0 -0.97720574482E+00 -0.40663026661E+02  0.19509842647E+03  0.21543627760E+03  0.81822717039E+02 0.  0.
          6    2    1    2  501    0  0.12643711605E+03  0.40344617231E+02  0.42436731648E+03  0.47679734532E+03  0.17214545231E+03 0.  0.
         24    2    5    5    0    0  0.69414941450E+02  0.78183471025E+02  0.34338070464E+03  0.37066427531E+03  0.92469494591E+02 0.  0.
          5    1    5    5  501    0  0.57022174605E+02 -0.37838853794E+02  0.80986611837E+02  0.10613307001E+03  0.47000000000E+01 0. -1.
        -11    1    6    6    0    0  0.18755951672E+02 -0.20194929920E+02  0.49736190265E+02  0.56862197809E+02  0.00000000000E+00 0.  1.
         12    1    6    6    0    0  0.50658989777E+02  0.98378400945E+02  0.29364451438E+03  0.31380207750E+03  0.00000000000E+00 0. -1.
         -5    1    3    3    0  503 -0.12545991031E+03  0.31840943002E+00  0.28751444379E+03  0.31373067409E+03  0.47000000000E+01 0.  1.
         13    1    4    4    0    0  0.29305317085E+01 -0.35384023409E+02  0.21074882398E+02  0.41288833803E+02  0.00000000000E+00 0. -1.
        -14    1    4    4    0    0 -0.39077374533E+01 -0.52790032527E+01  0.17402354408E+03  0.17414744379E+03  0.00000000000E+00 0.  1.
</event>
<event>
12    1  0.8684423E-002  0.2178163E+03  0.7818608E-02  0.1135532E+00
         21   -1    0    0  501  502  0.00000000000E+00  0.00000000000E+00  0.82122526230E+02  0.82122526230E+02  0.00000000000E+00 0.  1.
         21   -1    0    0  502  503 -0.00000000000E+00 -0.00000000000E+00 -0.59214691995E+03  0.59214691995E+03  0.00000000000E+00 0.  1.
         -6    2    1    2    0  503 -0.98745294088E+02 -0.89518136048E+02 -0.20216451434E+03  0.29717742241E+03  0.17227826255E+03 0.  0.
        -24    2    3    3    0    0 -0.10956672964E+03 -0.81311877446E+01 -0.13402172467E+03  0.19037635217E+03  0.78805763256E+02 0.  0.
          6    2    1    2  501    0  0.98745294088E+02  0.89518136048E+02 -0.30785987938E+03  0.37709202376E+03  0.17221079894E+03 0.  0.
         24    2    5    5    0    0 -0.16947032549E+02 -0.88921827102E+01 -0.13255484196E+03  0.14509363708E+03  0.55813121827E+02 0.  0.
          5    1    5    5  501    0  0.11569232664E+03  0.98410318758E+02 -0.17530503742E+03  0.23199838669E+03  0.47000000000E+01 0. -1.
        -11    1    6    6    0    0  0.47497981882E+01  0.68690271132E+01 -0.10923907117E+03  0.10955783307E+03  0.00000000000E+00 0.  1.
         12    1    6    6    0    0 -0.21696830737E+02 -0.15761209823E+02 -0.23315770788E+02  0.35535804009E+02  0.00000000000E+00 0. -1.
         -5    1    3    3    0  503  0.10821435555E+02 -0.81386948304E+02 -0.68142789666E+02  0.10680107024E+03  0.47000000000E+01 0.  1.
         13    1    4    4    0    0 -0.10466081797E+03 -0.59982379951E+01 -0.14455261196E+03  0.17856461940E+03  0.00000000000E+00 0. -1.
        -14    1    4    4    0    0 -0.49059116743E+01 -0.21329497495E+01  0.10530887287E+02  0.11811732770E+02  0.00000000000E+00 0.  1.
</event>
<event>
12    1  0.8684423E-002  0.1750186E+03  0.7818608E-02  0.1172857E+00
         21   -1    0    0  503  502  0.00000000000E+00  0.00000000000E+00  0.75784198811E+03  0.75784198811E+03  0.00000000000E+00 0.  1.
         21   -1    0    0  501  503 -0.00000000000E+00 -0.00000000000E+00 -0.45531112823E+02  0.45531112823E+02  0.00000000000E+00 0.  1.
          6    2    1    2  501    0 -0.13686266864E+01 -0.28213728149E+02  0.49299158445E+03  0.52313689694E+03  0.17272412400E+03 0.  0.
         24    2    3    3    0    0 -0.68975365994E+02 -0.32631954133E+02  0.23171686102E+03  0.25317993181E+03  0.67712101180E+02 0.  0.
         -6    2    1    2    0  502  0.13686266864E+01  0.28213728149E+02  0.21931929084E+03  0.28023620399E+03  0.17214380935E+03 0.  0.
        -24    2    5    5    0    0 -0.66796642590E+01  0.53440699310E+02  0.50898055029E+02  0.10968129279E+03  0.80863141950E+02 0.  0.
          5    1    3    3  501    0  0.67606739308E+02  0.44182259838E+01  0.26127472343E+03  0.26995696513E+03  0.47000000000E+01 0. -1.
        -11    1    4    4    0    0 -0.69741054966E+02 -0.49008443665E+02  0.20184176092E+03  0.21910211946E+03  0.00000000000E+00 0.  1.
         12    1    4    4    0    0  0.76568897132E+00  0.16376489532E+02  0.29875100096E+02  0.34077812352E+02  0.00000000000E+00 0. -1.
         -5    1    5    5    0  502  0.80482909454E+01 -0.25226971161E+02  0.16842123581E+03  0.17055491119E+03  0.47000000000E+01 0.  1.
         13    1    6    6    0    0 -0.41228291790E+02  0.14449775791E+02  0.32434312235E+02  0.54410960978E+02  0.00000000000E+00 0. -1.
        -14    1    6    6    0    0  0.34548627531E+02  0.38990923519E+02  0.18463742794E+02  0.55270331816E+02  0.00000000000E+00 0.  1.
</event>
<event>
12    1  0.8684423E-002  0.1770888E+03  0.7818608E-02  0.1170825E+00
         21   -1    0    0  501  502  0.00000000000E+00  0.00000000000E+00  0.10905895542E+03  0.10905895542E+03  0.00000000000E+00 0.  1.
         21   -1    0    0  502  503 -0.00000000000E+00 -0.00000000000E+00 -0.57509814844E+03  0.57509814844E+03  0.00000000000E+00 0.  1.
         -6    2    1    2    0  503  0.36975201696E+02  0.21306076312E+02 -0.47515165846E+03  0.50683400064E+03  0.17114465004E+03 0.  0.
        -24    2    3    3    0    0 -0.12780392855E+02 -0.24945585116E+02 -0.13135257267E+03  0.15635613149E+03  0.80050739214E+02 0.  0.
          6    2    1    2  501    0 -0.36975201696E+02 -0.21306076312E+02  0.91124654461E+01  0.17732310322E+03  0.17187010061E+03 0.  0.
         24    2    5    5    0    0  0.17563220151E+02 -0.66110101014E+02  0.19528972862E+02  0.10582181852E+03  0.78344523335E+02 0.  0.
          5    1    5    5  501    0 -0.54538421847E+02  0.44804024702E+02 -0.10416507416E+02  0.71501284700E+02  0.47000000000E+01 0. -1.
        -13    1    6    6    0    0 -0.25044224462E+02 -0.39658266043E+02 -0.95272039212E+01  0.47861872707E+02  0.00000000000E+00 0.  1.
         14    1    6    6    0    0  0.42607444614E+02 -0.26451834970E+02  0.29056176784E+02  0.57959945817E+02  0.00000000000E+00 0. -1.
         -5    1    3    3    0  503  0.49755594551E+02  0.46251661428E+02 -0.34379908579E+03  0.35047786915E+03  0.47000000000E+01 0.  1.
         13    1    4    4    0    0  0.29207492891E+02 -0.29404168620E+02 -0.77894496329E+02  0.88233980595E+02  0.00000000000E+00 0. -1.
        -14    1    4    4    0    0 -0.41987885746E+02  0.44585835042E+01 -0.53458076343E+02  0.68122150896E+02  0.00000000000E+00 0.  1.
</event>
<event>
12    1  0.8684423E-002  0.2512778E+03  0.7818608E-02  0.1112562E+00
         21   -1    0    0  501  502  0.00000000000E+00  0.00000000000E+00  0.63927869135E+03  0.63927869135E+03  0.00000000000E+00 0.  1.
         21   -1    0    0  502  503 -0.00000000000E+00 -0.00000000000E+00 -0.17934870908E+03  0.17934870908E+03  0.00000000000E+00 0.  1.
         -6    2    1    2    0  503  0.18074874851E+03  0.30217876030E+02 -0.44760296009E+02  0.25484302763E+03  0.17134250645E+03 0.  0.
        -24    2    3    3    0    0  0.11086851421E+02  0.20242440875E+01 -0.10438253518E+02  0.79400350937E+02  0.77900210230E+02 0.  0.
          6    2    1    2  501    0 -0.18074874851E+03 -0.30217876030E+02  0.50469027828E+03  0.56378437279E+03  0.17192240080E+03 0.  0.
         24    2    5    5    0    0 -0.28817589803E+02  0.98639970696E+01  0.25375727447E+03  0.26767781100E+03  0.79566979550E+02 0.  0.
          5    1    5    5  501    0 -0.15193115870E+03 -0.40081873100E+02  0.25093300381E+03  0.29610656180E+03  0.47000000000E+01 0. -1.
        -11    1    6    6    0    0 -0.26855650290E+02 -0.32016742803E+02  0.15153448154E+03  0.15719095670E+03  0.00000000000E+00 0.  1.
         12    1    6    6    0    0 -0.19619395133E+01  0.41880739872E+02  0.10222279293E+03  0.11048685430E+03  0.00000000000E+00 0. -1.
         -5    1    3    3    0  503  0.16966189709E+03  0.28193631943E+02 -0.34322042491E+02  0.17544267669E+03  0.47000000000E+01 0.  1.
         13    1    4    4    0    0 -0.23038598707E+02  0.51035458847E+01  0.21967279399E+02  0.32239487824E+02  0.00000000000E+00 0. -1.
        -14    1    4    4    0    0  0.34125450127E+02 -0.30793017972E+01 -0.32405532917E+02  0.47160863113E+02  0.00000000000E+00 0.  1.
</event>
<event>
12    1  0.8684423E-002  0.1789425E+03  0.7818608E-02  0.1170999E+00
         21   -1    0    0  503  502  0.00000000000E+00  0.00000000000E+00  0.70563708698E+03  0.70563708698E+03  0.00000000000E+00 0. -1.
         21   -1    0    0  501  503 -0.00000000000E+00 -0.00000000000E+00 -0.53298533104E+02  0.53298533104E+02  0.00000000000E+00 0. -1.
          6    2    1    2  501    0 -0.21173122373E+02  0.93248250339E+01  0.16766162550E+03  0.24521592995E+03  0.17744063279E+03 0.  0.
         24    2    3    3    0    0 -0.76623444933E+02  0.14648511401E+02  0.14870099655E+03  0.18618479106E+03  0.80418025649E+02 0.  0.
         -6    2    1    2    0  502  0.21173122373E+02 -0.93248250339E+01  0.48467692838E+03  0.51371969013E+03  0.16870370966E+03 0.  0.
        -24    2    5    5    0    0  0.67079435606E+02 -0.70587174955E+01  0.42776294256E+03  0.44041336967E+03  0.80208010694E+02 0.  0.
          5    1    3    3  501    0  0.55450322560E+02 -0.53236863667E+01  0.18960628949E+02  0.59031138890E+02  0.47000000000E+01 0. -1.
        -13    1    4    4    0    0 -0.56118238066E+02 -0.16454814820E+02  0.38902575715E+02  0.70238365383E+02  0.00000000000E+00 0.  1.
         14    1    4    4    0    0 -0.20505206866E+02  0.31103326221E+02  0.10979842083E+03  0.11594642568E+03  0.00000000000E+00 0. -1.
         -5    1    5    5    0  502 -0.45906313233E+02 -0.22661075384E+01  0.56913985816E+02  0.73306320460E+02  0.47000000000E+01 0.  1.
         13    1    6    6    0    0 -0.16160872949E+02 -0.68999224406E+01  0.13183959100E+03  0.13300549049E+03  0.00000000000E+00 0. -1.
        -14    1    6    6    0    0  0.83240308555E+02 -0.15879505487E+00  0.29592335156E+03  0.30740787918E+03  0.00000000000E+00 0.  1.
</event>
<event>
12    1  0.8684423E-002  0.1895079E+03  0.7818608E-02  0.1159536E+00
         21   -1    0    0  503  502  0.00000000000E+00  0.00000000000E+00  0.76714833481E+02  0.76714833481E+02  0.00000000000E+00 0.  1.
         21   -1    0    0  501  503 -0.00000000000E+00 -0.00000000000E+00 -0.58832236829E+03  0.58832236829E+03  0.00000000000E+00 0. -1.
          6    2    1    2  501    0 -0.19786419712E+02  0.76383757479E+02 -0.41175998186E+03  0.45327643181E+03  0.17229991340E+03 0.  0.
         24    2    3    3    0    0  0.50094397805E+02  0.62663269960E+02 -0.28693900354E+03  0.30949205482E+03  0.83756827506E+02 0.  0.
         -6    2    1    2    0  502  0.19786419712E+02 -0.76383757479E+02 -0.99847552942E+02  0.21176076996E+03  0.16925456878E+03 0.  0.
        -24    2    5    5    0    0 -0.27491251443E+02 -0.95446611863E+02 -0.42689639126E+02  0.13502950046E+03  0.80899543165E+02 0.  0.
          5    1    3    3  501    0 -0.69880817517E+02  0.13720487519E+02 -0.12482097833E+03  0.14378437699E+03  0.47000000000E+01 0. -1.
        -11    1    4    4    0    0  0.61289717776E+02  0.38829883843E+02 -0.11806016940E+03  0.13857269927E+03  0.00000000000E+00 0.  1.
         12    1    4    4    0    0 -0.11195319971E+02  0.23833386117E+02 -0.16887883413E+03  0.17091935555E+03  0.00000000000E+00 0. -1.
         -5    1    5    5    0  502  0.47277671155E+02  0.19062854384E+02 -0.57157913816E+02  0.76731269499E+02  0.47000000000E+01 0.  1.
         13    1    6    6    0    0  0.20517835698E+02 -0.20512989718E+01 -0.17483743992E+02  0.27034620641E+02  0.00000000000E+00 0. -1.
        -14    1    6    6    0    0 -0.48009087141E+02 -0.93395312891E+02 -0.25205895134E+02  0.10799487982E+03  0.00000000000E+00 0.  1.
</event>
<event>
12    1  0.8684423E-002  0.1846016E+03  0.7818608E-02  0.1163795E+00
         21   -1    0    0  503  502  0.00000000000E+00  0.00000000000E+00  0.75036164604E+03  0.75036164604E+03  0.00000000000E+00 0. -1.
         21   -1    0    0  501  503 -0.00000000000E+00 -0.00000000000E+00 -0.50118895323E+02  0.50118895323E+02  0.00000000000E+00 0. -1.
          6    2    1    2  501    0 -0.13488526034E+02 -0.60837618450E+02  0.22118224809E+03  0.28708332701E+03  0.17208164812E+03 0.  0.
         24    2    3    3    0    0 -0.31995957425E+02  0.27671981083E+02  0.86020878220E+02  0.12439601917E+03  0.79279873023E+02 0.  0.
         -6    2    1    2    0  502  0.13488526034E+02  0.60837618450E+02  0.47906050263E+03  0.51339721436E+03  0.17376587231E+03 0.  0.
        -24    2    5    5    0    0 -0.34787732297E+02  0.90251054403E+02  0.36068584362E+03  0.38213260668E+03  0.81090148374E+02 0.  0.
          5    1    3    3  501    0  0.18507431392E+02 -0.88509599534E+02  0.13516136987E+03  0.16268730784E+03  0.47000000000E+01 0. -1.
        -13    1    4    4    0    0  0.22263364277E+02  0.20226699002E+02  0.12158026604E+02  0.32443710520E+02  0.00000000000E+00 0.  1.
         14    1    4    4    0    0 -0.54259321702E+02  0.74452820817E+01  0.73862851616E+02  0.91952308648E+02  0.00000000000E+00 0. -1.
         -5    1    5    5    0  502  0.48276258330E+02 -0.29413435953E+02  0.11837465901E+03  0.13126460768E+03  0.47000000000E+01 0.  1.
         13    1    6    6    0    0  0.88983239574E+01  0.80112592946E+02  0.25128093599E+03  0.26389262307E+03  0.00000000000E+00 0. -1.
        -14    1    6    6    0    0 -0.43686056254E+02  0.10138461457E+02  0.10940490763E+03  0.11823998362E+03  0.00000000000E+00 0.  1.
</event>
<event>
12    1  0.8684423E-002  0.1750830E+03  0.7818608E-02  0.1172851E+00
         21   -1    0    0  501  502  0.00000000000E+00  0.00000000000E+00  0.51764541869E+03  0.51764541869E+03  0.00000000000E+00 0. -1.
         21   -1    0    0  502  503 -0.00000000000E+00 -0.00000000000E+00 -0.92600870397E+02  0.92600870397E+02  0.00000000000E+00 0. -1.
         -6    2    1    2    0  503 -0.21433066369E+02  0.16929119212E+02  0.28262142147E+02  0.17655244464E+03  0.17212218223E+03 0.  0.
        -24    2    3    3    0    0 -0.92158954829E+00  0.37278723693E+02 -0.43296640831E+02  0.99237656236E+02  0.81135446880E+02 0.  0.
          6    2    1    2  501    0  0.21433066369E+02 -0.16929119212E+02  0.39678240615E+03  0.43369384445E+03  0.17293958910E+03 0.  0.
         24    2    5    5    0    0 -0.23272979500E+02  0.39347431029E+02  0.13946664047E+03  0.16648760592E+03  0.78595974567E+02 0.  0.
          5    1    5    5  501    0  0.44706045869E+02 -0.56276550241E+02  0.25731576568E+03  0.26720623853E+03  0.47000000000E+01 0. -1.
        -13    1    6    6    0    0 -0.18701812143E+02 -0.19513161600E+02  0.21368181790E+02  0.34454614293E+02  0.00000000000E+00 0.  1.
         14    1    6    6    0    0 -0.45711673568E+01  0.58860592629E+02  0.11809845868E+03  0.13203299163E+03  0.00000000000E+00 0. -1.
         -5    1    3    3    0  503 -0.20511476821E+02 -0.20349604481E+02  0.71558782979E+02  0.77314788400E+02  0.47000000000E+01 0.  1.
         13    1    4    4    0    0 -0.16922021220E+02  0.26626086005E+02 -0.63774664821E+02  0.71151325576E+02  0.00000000000E+00 0. -1.
        -14    1    4    4    0    0  0.16000431672E+02  0.10652637688E+02  0.20478023990E+02  0.28086330660E+02  0.00000000000E+00 0.  1.
</event>
<event>
12    1  0.8684423E-002  0.1877542E+03  0.7818608E-02  0.1163330E+00
         21   -1    0    0  503  502  0.00000000000E+00  0.00000000000E+00  0.63450978580E+03  0.63450978580E+03  0.00000000000E+00 0.  1.
         21   -1    0    0  501  503 -0.00000000000E+00 -0.00000000000E+00 -0.56445011188E+02  0.56445011188E+02  0.00000000000E+00 0.  1.
          6    2    1    2  501    0 -0.29313803714E+02  0.70553602752E+02  0.20181421683E+03  0.27564580352E+03  0.17150662067E+03 0.  0.
         24    2    3    3    0    0 -0.71773112526E+02  0.60554665859E+02  0.62615154923E+02  0.12969635857E+03  0.63892413965E+02 0.  0.
         -6    2    1    2    0  502  0.29313803714E+02 -0.70553602752E+02  0.37625055779E+03  0.41530899348E+03  0.15836656174E+03 0.  0.
        -24    2    5    5    0    0  0.42501653689E+02 -0.27673625804E+02  0.35116177963E+03  0.36369360237E+03  0.79913833571E+02 0.  0.
          5    1    3    3  501    0  0.42459308811E+02  0.99989368928E+01  0.13919906191E+03  0.14594944494E+03  0.47000000000E+01 0. -1.
        -11    1    4    4    0    0 -0.21199816647E+02 -0.12185579380E+02  0.18896385830E+02  0.30902976687E+02  0.00000000000E+00 0.  1.
         12    1    4    4    0    0 -0.50573295878E+02  0.72740245239E+02  0.43718769093E+02  0.98793381886E+02  0.00000000000E+00 0. -1.
         -5    1    5    5    0  502 -0.13187849975E+02 -0.42879976948E+02  0.25088778156E+02  0.51615391110E+02  0.47000000000E+01 0.  1.
         13    1    6    6    0    0 -0.20298968764E+02 -0.16265056543E+02  0.16145311234E+03  0.16353503502E+03  0.00000000000E+00 0. -1.
        -14    1    6    6    0    0  0.62800622454E+02 -0.11408569261E+02  0.18970866730E+03  0.20015856734E+03  0.00000000000E+00 0.  1.
</event>
<event>
12    1  0.8684423E-002  0.2169653E+03  0.7818608E-02  0.1136677E+00
         21   -1    0    0  503  502  0.00000000000E+00  0.00000000000E+00  0.32298144351E+02  0.32298144351E+02  0.00000000000E+00 0.  1.
         21   -1    0    0  501  503 -0.00000000000E+00 -0.00000000000E+00 -0.14819299680E+04  0.14819299680E+04  0.00000000000E+00 0.  1.
          6    2    1    2  501    0 -0.71928664249E+02  0.11281402790E+03 -0.84847067611E+03  0.87511256493E+03  0.16738809829E+03 0.  0.
         24    2    3    3    0    0 -0.47283770858E+01  0.14793782876E+02 -0.51280437056E+03  0.51899768780E+03  0.78415967245E+02 0.  0.
         -6    2    1    2    0  502  0.71928664249E+02 -0.11281402790E+03 -0.60116114757E+03  0.63911554745E+03  0.17080169792E+03 0.  0.
        -24    2    5    5    0    0  0.30211234461E+02 -0.93465075715E+02 -0.20087579969E+03  0.23616992379E+03  0.76004650756E+02 0.  0.
          5    1    3    3  501    0 -0.67200287163E+02  0.98020245027E+02 -0.33566630555E+03  0.35611487712E+03  0.47000000000E+01 0. -1.
        -13    1    4    4    0    0 -0.31986307952E+02  0.32739336071E+02 -0.24783452355E+03  0.25202567148E+03  0.00000000000E+00 0.  1.
         14    1    4    4    0    0  0.27257930866E+02 -0.17945553195E+02 -0.26496984701E+03  0.26697201633E+03  0.00000000000E+00 0. -1.
         -5    1    5    5    0  502  0.41717429787E+02 -0.19348952188E+02 -0.40028534788E+03  0.40294562366E+03  0.47000000000E+01 0.  1.
         11    1    6    6    0    0 -0.60648222902E+01 -0.58893197361E+02 -0.51012148334E+02  0.78150048256E+02  0.00000000000E+00 0. -1.
        -12    1    6    6    0    0  0.36276056752E+02 -0.34571878354E+02 -0.14986365136E+03  0.15801987554E+03  0.00000000000E+00 0.  1.
</event>
<event>
12    1  0.8684423E-002  0.3127876E+03  0.7818608E-02  0.1079134E+00
         21   -1    0    0  503  502  0.00000000000E+00  0.00000000000E+00  0.11236144604E+03  0.11236144604E+03  0.00000000000E+00 0.  1.
         21   -1    0    0  501  503 -0.00000000000E+00 -0.00000000000E+00 -0.13367238925E+04  0.13367238925E+04  0.00000000000E+00 0. -1.
          6    2    1    2  501    0 -0.24870048446E+03  0.78945995789E+02 -0.18375951184E+03  0.36277217852E+03  0.17248679396E+03 0.  0.
         24    2    3    3    0    0 -0.25755217916E+03  0.51382538862E+02 -0.13306027916E+03  0.30420086428E+03  0.76549576411E+02 0.  0.
         -6    2    1    2    0  502  0.24870048446E+03 -0.78945995789E+02 -0.10406029346E+04  0.10863131600E+04  0.17069684501E+03 0.  0.
        -24    2    5    5    0    0  0.35034287833E+02 -0.30892509281E+02 -0.36767996828E+03  0.37863400266E+03  0.77417055257E+02 0.  0.
          5    1    3    3  501    0  0.88516946990E+01  0.27563456927E+02 -0.50699232683E+02  0.58571314237E+02  0.47000000000E+01 0. -1.
        -13    1    4    4    0    0 -0.26305748138E+03  0.49121371380E+02 -0.13008846206E+03  0.29754857687E+03  0.00000000000E+00 0.  1.
         14    1    4    4    0    0  0.55053022199E+01  0.22611674823E+01 -0.29718171012E+01  0.66522874109E+01  0.00000000000E+00 0. -1.
         -5    1    5    5    0  502  0.21366619663E+03 -0.48053486508E+02 -0.67292296634E+03  0.70767915737E+03  0.47000000000E+01 0.  1.
         11    1    6    6    0    0  0.44037451677E+02 -0.51221509890E+02 -0.29469332984E+03  0.30233606943E+03  0.00000000000E+00 0. -1.
        -12    1    6    6    0    0 -0.90031638439E+01  0.20329000610E+02 -0.72986638437E+02  0.76297933231E+02  0.00000000000E+00 0.  1.
</event>
<event>
12    1  0.8684423E-002  0.1828592E+03  0.7818608E-02  0.1166179E+00
         21   -1    0    0  501  502  0.00000000000E+00  0.00000000000E+00  0.46614843902E+02  0.46614843902E+02  0.00000000000E+00 0.  1.
         21   -1    0    0  502  503 -0.00000000000E+00 -0.00000000000E+00 -0.96117433113E+03  0.96117433113E+03  0.00000000000E+00 0.  1.
         -6    2    1    2    0  503 -0.22882637562E+02 -0.72405896022E+01 -0.72459408271E+03  0.74731123951E+03  0.18127730899E+03 0.  0.
        -24    2    3    3    0    0  0.16169989879E+02  0.58546742312E+02 -0.51707560224E+03  0.52608942664E+03  0.75589131397E+02 0.  0.
          6    2    1    2  501    0  0.22882637562E+02  0.72405896022E+01 -0.18996540452E+03  0.26047793552E+03  0.17659518324E+03 0.  0.
         24    2    5    5    0    0  0.74070266028E+02 -0.30155538230E+02 -0.14322633078E+03  0.18157752552E+03  0.77851494209E+02 0.  0.
          5    1    5    5  501    0 -0.51187628466E+02  0.37396127832E+02 -0.46739073738E+02  0.78900410003E+02  0.47000000000E+01 0. -1.
        -11    1    6    6    0    0  0.80921934832E+02 -0.35474550269E+01 -0.12373718008E+03  0.14789129017E+03  0.00000000000E+00 0.  1.
         12    1    6    6    0    0 -0.68516688047E+01 -0.26608083203E+02 -0.19489150701E+02  0.33686235352E+02  0.00000000000E+00 0. -1.
         -5    1    3    3    0  503 -0.39052627441E+02 -0.65787331914E+02 -0.20751848047E+03  0.22122181287E+03  0.47000000000E+01 0.  1.
         11    1    4    4    0    0  0.17337296903E+02 -0.11527696595E+02 -0.56536605384E+02  0.60248297910E+02  0.00000000000E+00 0. -1.
        -12    1    4    4    0    0 -0.11673070246E+01  0.70074438907E+02 -0.46053899685E+03  0.46584112873E+03  0.00000000000E+00 0.  1.
</event>
<event>
12    1  0.8684423E-002  0.1731725E+03  0.7818608E-02  0.1174701E+00
         21   -1    0    0  501  502  0.00000000000E+00  0.00000000000E+00  0.16665956511E+03  0.16665956511E+03  0.00000000000E+00 0.  1.
         21   -1    0    0  502  503 -0.00000000000E+00 -0.00000000000E+00 -0.18998073818E+03  0.18998073818E+03  0.00000000000E+00 0.  1.
         -6    2    1    2    0  503 -0.22798588000E+02  0.63281502295E+01  0.30318582189E+02  0.17580648499E+03  0.17154848480E+03 0.  0.
        -24    2    3    3    0    0 -0.43919823692E+02  0.61164110531E+02  0.35441737286E+02  0.11663363769E+03  0.81714682702E+02 0.  0.
          6    2    1    2  501    0  0.22798588000E+02 -0.63281502295E+01 -0.53639755256E+02  0.18083381830E+03  0.17106672791E+03 0.  0.
         24    2    5    5    0    0 -0.46539097898E+02 -0.14113179457E+02 -0.16272523178E+02  0.10154497042E+03  0.87644261300E+02 0.  0.
          5    1    5    5  501    0  0.69337685898E+02  0.77850292279E+01 -0.37367232079E+02  0.79288847885E+02  0.47000000000E+01 0. -1.
        -11    1    6    6    0    0 -0.56292371547E+02 -0.29647821931E+02 -0.37213451068E+02  0.73706616935E+02  0.00000000000E+00 0.  1.
         12    1    6    6    0    0  0.97532736488E+01  0.15534642474E+02  0.20940927891E+02  0.27838353482E+02  0.00000000000E+00 0. -1.
         -5    1    3    3    0  503  0.21121235692E+02 -0.54835960301E+02 -0.51231550973E+01  0.59172847299E+02  0.47000000000E+01 0.  1.
         11    1    4    4    0    0  0.36786183333E+01 -0.17327799299E+02  0.13444792854E+02  0.22238419824E+02  0.00000000000E+00 0. -1.
        -12    1    4    4    0    0 -0.47598442025E+02  0.78491909829E+02  0.21996944433E+02  0.94395217868E+02  0.00000000000E+00 0.  1.
</event>
<event>
12    1  0.8684423E-002  0.2308303E+03  0.7818608E-02  0.1126264E+00
         21   -1    0    0  503  502  0.00000000000E+00  0.00000000000E+00  0.46692953395E+02  0.46692953395E+02  0.00000000000E+00 0. -1.
         21   -1    0    0  501  503 -0.00000000000E+00 -0.00000000000E+00 -0.12213765665E+04  0.12213765665E+04  0.00000000000E+00 0.  1.
          6    2    1    2  501    0  0.38558177387E+01 -0.15313656028E+03 -0.42043142769E+03  0.47963029025E+03  0.17267587127E+03 0.  0.
         24    2    3    3    0    0 -0.53835509427E+02 -0.14240262019E+03 -0.31320525412E+03  0.35730674797E+03  0.79961319541E+02 0.  0.
         -6    2    1    2    0  502 -0.38558177387E+01  0.15313656028E+03 -0.75425218539E+03  0.78843922961E+03  0.17109759263E+03 0.  0.
        -24    2    5    5    0    0  0.26699919786E+02  0.12610096072E+02 -0.30124615463E+03  0.31313101998E+03  0.80186593367E+02 0.  0.
          5    1    3    3  501    0  0.57691327166E+02 -0.10733940094E+02 -0.10722617357E+03  0.12232354229E+03  0.47000000000E+01 0. -1.
        -13    1    4    4    0    0 -0.39002868135E+02 -0.31639093692E+02 -0.47798239541E+02  0.69332010468E+02  0.00000000000E+00 0.  1.
         14    1    4    4    0    0 -0.14832641292E+02 -0.11076352649E+03 -0.26540701458E+03  0.28797473750E+03  0.00000000000E+00 0. -1.
         -5    1    5    5    0  502 -0.30555737525E+02  0.14052646421E+03 -0.45300603075E+03  0.47530820963E+03  0.47000000000E+01 0.  1.
         13    1    6    6    0    0 -0.16890787273E+02 -0.19872523281E+02 -0.15352371824E+03  0.15572330571E+03  0.00000000000E+00 0. -1.
        -14    1    6    6    0    0  0.43590707059E+02  0.32482619353E+02 -0.14772243639E+03  0.15740771428E+03  0.00000000000E+00 0.  1.
</event>
<event>
12    1  0.8684423E-002  0.1821913E+03  0.7818608E-02  0.1165836E+00
         21   -1    0    0  501  502  0.00000000000E+00  0.00000000000E+00  0.25065026345E+03  0.25065026345E+03  0.00000000000E+00 0.  1.
         21   -1    0    0  502  503 -0.00000000000E+00 -0.00000000000E+00 -0.24402443658E+03  0.24402443658E+03  0.00000000000E+00 0.  1.
         -6    2    1    2    0  503 -0.57218851214E+02  0.53671763448E+01 -0.16425798296E+03  0.24530461975E+03  0.17288975675E+03 0.  0.
        -24    2    3    3    0    0 -0.63232874695E+02 -0.24417010805E+02 -0.32476185144E+02  0.10998352562E+03  0.80293750985E+02 0.  0.
          6    2    1    2  501    0  0.57218851214E+02 -0.53671763448E+01  0.17088380982E+03  0.24937008028E+03  0.17228278197E+03 0.  0.
         24    2    5    5    0    0  0.11567420136E+02 -0.45126604428E+02  0.32133198994E+02  0.97914848325E+02  0.79903438030E+02 0.  0.
          5    1    5    5  501    0  0.45651431078E+02  0.39759428083E+02  0.13875061083E+03  0.15145523195E+03  0.47000000000E+01 0. -1.
        -11    1    6    6    0    0  0.12356851114E+02 -0.18239346957E+02  0.57107513099E+02  0.61209750851E+02  0.00000000000E+00 0.  1.
         12    1    6    6    0    0 -0.78943097776E+00 -0.26887257471E+02 -0.24974314105E+02  0.36705097474E+02  0.00000000000E+00 0. -1.
         -5    1    3    3    0  503  0.60140234811E+01  0.29784187150E+02 -0.13178179781E+03  0.13532109413E+03  0.47000000000E+01 0.  1.
         13    1    4    4    0    0  0.20215836345E+01 -0.37932383150E+02 -0.69178644855E+01  0.38611000258E+02  0.00000000000E+00 0. -1.
        -14    1    4    4    0    0 -0.65254458330E+02  0.13515372346E+02 -0.25558320658E+02  0.71372525361E+02  0.00000000000E+00 0.  1.
</event>
<event>
12    1  0.8684423E-002  0.1874397E+03  0.7818608E-02  0.1160999E+00
         21   -1    0    0  501  502  0.00000000000E+00  0.00000000000E+00  0.11353416556E+02  0.11353416556E+02  0.00000000000E+00 0. -1.
         21   -1    0    0  502  503 -0.00000000000E+00 -0.00000000000E+00 -0.34614907021E+04  0.34614907021E+04  0.00000000000E+00 0. -1.
         -6    2    1    2    0  503 -0.37130630644E+02 -0.55182287757E+02 -0.23055051606E+04  0.23131121193E+04  0.17524229511E+03 0.  0.
        -24    2    3    3    0    0 -0.44978687194E+02 -0.87585886378E+02 -0.21594336255E+04  0.21632102561E+04  0.81428861683E+02 0.  0.
          6    2    1    2  501    0  0.37130630644E+02  0.55182287757E+02 -0.11446321249E+04  0.11597319994E+04  0.17427518585E+03 0.  0.
         24    2    5    5    0    0 -0.36792525014E+02  0.67395833726E+02 -0.63737693995E+03  0.64695162114E+03  0.80007175982E+02 0.  0.
          5    1    5    5  501    0  0.73923155659E+02 -0.12213545969E+02 -0.50725518494E+03  0.51278037823E+03  0.47000000000E+01 0. -1.
        -11    1    6    6    0    0 -0.20127524474E+02 -0.16065333769E+02 -0.15455336036E+03  0.15668424742E+03  0.00000000000E+00 0.  1.
         12    1    6    6    0    0 -0.16665000540E+02  0.83461167495E+02 -0.48282357959E+03  0.49026737371E+03  0.00000000000E+00 0. -1.
         -5    1    3    3    0  503  0.78480565496E+01  0.32403598621E+02 -0.14607153511E+03  0.14990186312E+03  0.47000000000E+01 0.  1.
         11    1    4    4    0    0 -0.55572042070E+02 -0.60691669827E+02 -0.98831902369E+03  0.99173898947E+03  0.00000000000E+00 0. -1.
        -12    1    4    4    0    0  0.10593354876E+02 -0.26894216550E+02 -0.11711146018E+04  0.11714712667E+04  0.00000000000E+00 0.  1.
</event>
<event>
12    1  0.8684423E-002  0.2233577E+03  0.7818608E-02  0.1131522E+00
         21   -1    0    0  503  502  0.00000000000E+00  0.00000000000E+00  0.59405701953E+03  0.59405701953E+03  0.00000000000E+00 0. -1.
         21   -1    0    0  501  503 -0.00000000000E+00 -0.00000000000E+00 -0.23439361180E+03  0.23439361180E+03  0.00000000000E+00 0.  1.
          6    2    1    2  501    0 -0.11175777391E+03  0.87490078642E+02 -0.15235210779E+03  0.26983757510E+03  0.17162994581E+03 0.  0.
         24    2    3    3    0    0 -0.12447430747E+03  0.32767540170E+02 -0.92750338291E+02  0.18779656481E+03  0.10048561883E+03 0.  0.
         -6    2    1    2    0  502  0.11175777391E+03 -0.87490078642E+02  0.51201551553E+03  0.55861305623E+03  0.17246548802E+03 0.  0.
        -24    2    5    5    0    0  0.61028539919E+02 -0.18208809091E+02  0.11918116187E+03  0.15647592924E+03  0.78895650530E+02 0.  0.
          5    1    3    3  501    0  0.12716533557E+02  0.54722538472E+02 -0.59601769503E+02  0.82041010296E+02  0.47000000000E+01 0. -1.
        -13    1    4    4    0    0 -0.46783680034E+02  0.41696007464E+02 -0.89843570421E+02  0.10954057195E+03  0.00000000000E+00 0.  1.
         14    1    4    4    0    0 -0.77690627434E+02 -0.89284672947E+01 -0.29067678693E+01  0.78255992862E+02  0.00000000000E+00 0. -1.
         -5    1    5    5    0  502  0.50729233992E+02 -0.69281269550E+02  0.39283435366E+03  0.40213712699E+03  0.47000000000E+01 0.  1.
         13    1    6    6    0    0  0.39519631902E+02 -0.48719259053E+02  0.86555378204E+02  0.10689808700E+03  0.00000000000E+00 0. -1.
        -14    1    6    6    0    0  0.21508908017E+02  0.30510449962E+02  0.32625783667E+02  0.49577842237E+02  0.00000000000E+00 0.  1.
</event>
<event>
12    1  0.8684423E-002  0.1889047E+03  0.7818608E-02  0.1160157E+00
         21   -1    0    0  501  502  0.00000000000E+00  0.00000000000E+00  0.19870845405E+03  0.19870845405E+03  0.00000000000E+00 0. -1.
         21   -1    0    0  502  503 -0.00000000000E+00 -0.00000000000E+00 -0.17698951731E+03  0.17698951731E+03  0.00000000000E+00 0. -1.
         -6    2    1    2    0  503  0.64177723276E+02  0.42132793925E+02  0.18678530746E+02  0.18676881443E+03  0.16923282791E+03 0.  0.
        -24    2    3    3    0    0  0.87367511903E+02  0.31637263804E+02  0.61310205437E+02  0.13689425041E+03  0.79668663270E+02 0.  0.
          6    2    1    2  501    0 -0.64177723276E+02 -0.42132793925E+02  0.30404059872E+01  0.18892915693E+03  0.17260078152E+03 0.  0.
         24    2    5    5    0    0 -0.23083174225E+02 -0.96631500958E+01 -0.64496297772E+02  0.10333513794E+03  0.76760464467E+02 0.  0.
          5    1    5    5  501    0 -0.41094549050E+02 -0.32469643830E+02  0.67536703759E+02  0.85594018989E+02  0.47000000000E+01 0. -1.
        -11    1    6    6    0    0  0.49715415640E+01  0.26553550235E+02 -0.47166451959E+02  0.54355141854E+02  0.00000000000E+00 0.  1.
         12    1    6    6    0    0 -0.28054715789E+02 -0.36216700331E+02 -0.17329845813E+02  0.48979996088E+02  0.00000000000E+00 0. -1.
         -5    1    3    3    0  503 -0.23189788628E+02  0.10495530122E+02 -0.42631674692E+02  0.49874564020E+02  0.47000000000E+01 0.  1.
         11    1    4    4    0    0  0.70510781462E+02  0.45363866597E+02  0.14235989371E+02  0.85043013167E+02  0.00000000000E+00 0. -1.
        -12    1    4    4    0    0  0.16856730441E+02 -0.13726602794E+02  0.47074216066E+02  0.51851237243E+02  0.00000000000E+00 0.  1.
</event>
<event>
12    1  0.8684423E-002  0.2092273E+03  0.7818608E-02  0.1146164E+00
         21   -1    0    0  503  502  0.00000000000E+00  0.00000000000E+00  0.52544662591E+03  0.52544662591E+03  0.00000000000E+00 0. -1.
         21   -1    0    0  501  503 -0.00000000000E+00 -0.00000000000E+00 -0.25073072590E+03  0.25073072590E+03  0.00000000000E+00 0.  1.
          6    2    1    2  501    0 -0.67970501867E+02  0.43742557188E+02 -0.18857781607E+03  0.26782989317E+03  0.17215649430E+03 0.  0.
         24    2    3    3    0    0 -0.73615948068E+02 -0.18511759854E+02 -0.72307025341E+02  0.13573728237E+03  0.86222449793E+02 0.  0.
         -6    2    1    2    0  502  0.67970501867E+02 -0.43742557188E+02  0.46329371608E+03  0.50834745864E+03  0.19298360269E+03 0.  0.
        -24    2    5    5    0    0 -0.25303704685E+02  0.12052229282E+02  0.10715860056E+03  0.13596667729E+03  0.78857072976E+02 0.  0.
          5    1    3    3  501    0  0.56454462004E+01  0.62254317042E+02 -0.11627079073E+03  0.13209261080E+03  0.47000000000E+01 0. -1.
        -11    1    4    4    0    0 -0.36474796628E+02  0.27560349328E+02 -0.48061385913E+01  0.45968278326E+02  0.00000000000E+00 0.  1.
         12    1    4    4    0    0 -0.37141151440E+02 -0.46072109181E+02 -0.67500886750E+02  0.89769004042E+02  0.00000000000E+00 0. -1.
         -5    1    5    5    0  502  0.93274206552E+02 -0.55794786470E+02  0.35613511552E+03  0.37238078134E+03  0.47000000000E+01 0.  1.
         13    1    6    6    0    0 -0.16435161479E+02  0.31095003476E+01  0.11810278483E+03  0.11928139549E+03  0.00000000000E+00 0. -1.
        -14    1    6    6    0    0 -0.88685432061E+01  0.89427289344E+01 -0.10944184272E+02  0.16685281801E+02  0.00000000000E+00 0.  1.
</event>
<event>
12    1  0.8684423E-002  0.2072078E+03  0.7818608E-02  0.1143801E+00
         21   -1    0    0  503  502  0.00000000000E+00  0.00000000000E+00  0.71899983755E+02  0.71899983755E+02  0.00000000000E+00 0. -1.
         21   -1    0    0  501  503 -0.00000000000E+00 -0.00000000000E+00 -0.61791949833E+03  0.61791949833E+03  0.00000000000E+00 0. -1.
          6    2    1    2  501    0 -0.24069098662E+02 -0.11377675317E+03 -0.20967077179E+03  0.29476815878E+03  0.17147000850E+03 0.  0.
         24    2    3    3    0    0 -0.47804527580E+02 -0.13332639354E+03 -0.12750059251E+03  0.20690697629E+03  0.80578506283E+02 0.  0.
         -6    2    1    2    0  502  0.24069098662E+02  0.11377675317E+03 -0.33634874278E+03  0.39505132330E+03  0.17149519003E+03 0.  0.
        -24    2    5    5    0    0  0.39035112681E+02  0.76332545018E+02 -0.33436577223E+03  0.35440562892E+03  0.80327347298E+02 0.  0.
          5    1    3    3  501    0  0.23735428918E+02  0.19549640375E+02 -0.82170179288E+02  0.87861182492E+02  0.47000000000E+01 0. -1.
        -13    1    4    4    0    0 -0.56962940264E+02 -0.45123131744E+02 -0.71973433201E+02  0.10227926803E+03  0.00000000000E+00 0.  1.
         14    1    4    4    0    0  0.91584126837E+01 -0.88203261800E+02 -0.55527159306E+02  0.10462770826E+03  0.00000000000E+00 0. -1.
         -5    1    5    5    0  502 -0.14966014019E+02  0.37444208151E+02 -0.19829705547E+01  0.40645694383E+02  0.47000000000E+01 0.  1.
         11    1    6    6    0    0 -0.13868216381E+02 -0.64001294548E+01 -0.20687430411E+02  0.25714954008E+02  0.00000000000E+00 0. -1.
        -12    1    6    6    0    0  0.52903329061E+02  0.82732674473E+02 -0.31367834182E+03  0.32869067491E+03  0.00000000000E+00 0.  1.
</event>
<event>
12    1  0.8684423E-002  0.1768657E+03  0.7818608E-02  0.1171421E+00
         21   -1    0    0  501  502  0.00000000000E+00  0.00000000000E+00  0.60928689404E+03  0.60928689404E+03  0.00000000000E+00 0. -1.
         21   -1    0    0  502  503 -0.00000000000E+00 -0.00000000000E+00 -0.54234593554E+02  0.54234593554E+02  0.00000000000E+00 0. -1.
         -6    2    1    2    0  503  0.15900831892E+02 -0.24062981674E+02  0.19124728332E+03  0.25900256409E+03  0.17226416134E+03 0.  0.
        -24    2    3    3    0    0 -0.27070527548E+02 -0.60135029606E+01  0.30112535090E+02  0.91196668774E+02  0.81492895067E+02 0.  0.
          6    2    1    2  501    0 -0.15900831892E+02  0.24062981674E+02  0.36380501716E+03  0.40451892351E+03  0.17449815306E+03 0.  0.
         24    2    5    5    0    0  0.27902670472E+02  0.41651998271E+02  0.10065172603E+03  0.13712433688E+03  0.78478441831E+02 0.  0.
          5    1    5    5  501    0 -0.43803502365E+02 -0.17589016597E+02  0.26315329113E+03  0.26739458663E+03  0.47000000000E+01 0. -1.
        -11    1    6    6    0    0 -0.17160272203E+02 -0.10508052949E+02  0.80227809050E+01  0.21662389811E+02  0.00000000000E+00 0.  1.
         12    1    6    6    0    0  0.45062942675E+02  0.52160051220E+02  0.92628945130E+02  0.11546194707E+03  0.00000000000E+00 0. -1.
         -5    1    3    3    0  503  0.42971359440E+02 -0.18049478713E+02  0.16113474823E+03  0.16780589531E+03  0.47000000000E+01 0.  1.
         13    1    4    4    0    0 -0.55953236463E+02 -0.60885711035E+01  0.26085142146E+02  0.62034426003E+02  0.00000000000E+00 0. -1.
        -14    1    4    4    0    0  0.28882708915E+02  0.75068142897E-01  0.40273929438E+01  0.29162242771E+02  0.00000000000E+00 0.  1.
</event>
<event>
12    1  0.8684423E-002  0.1857998E+03  0.7818608E-02  0.1162892E+00
         21   -1    0    0  503  502  0.00000000000E+00  0.00000000000E+00  0.32941079958E+02  0.32941079958E+02  0.00000000000E+00 0. -1.
         21   -1    0    0  501  503 -0.00000000000E+00 -0.00000000000E+00 -0.10958435752E+04  0.10958435752E+04  0.00000000000E+00 0. -1.
          6    2    1    2  501    0 -0.40312418810E+02 -0.54081336923E+02 -0.66908079877E+03  0.69439949908E+03  0.17312327089E+03 0.  0.
         24    2    3    3    0    0  0.32060032814E+02  0.88822746347E+01 -0.26659812086E+03  0.28061624162E+03  0.81019605709E+02 0.  0.
         -6    2    1    2    0  502  0.40312418810E+02  0.54081336923E+02 -0.39382169643E+03  0.43438515604E+03  0.17042609276E+03 0.  0.
        -24    2    5    5    0    0 -0.32639293762E+02  0.65404326470E+02 -0.24807730462E+03  0.27094195427E+03  0.80772174037E+02 0.  0.
          5    1    3    3  501    0 -0.72372451624E+02 -0.62963611557E+02 -0.40248267791E+03  0.41378325746E+03  0.47000000000E+01 0. -1.
        -11    1    4    4    0    0 -0.80201350762E+01 -0.13559271173E+02 -0.74462185723E+01  0.17424768934E+02  0.00000000000E+00 0.  1.
         12    1    4    4    0    0  0.40080167890E+02  0.22441545807E+02 -0.25915190229E+03  0.26319147269E+03  0.00000000000E+00 0. -1.
         -5    1    5    5    0  502  0.72951712572E+02 -0.11322989548E+02 -0.14574439181E+03  0.16344320177E+03  0.47000000000E+01 0.  1.
         11    1    6    6    0    0 -0.16826561031E+02  0.38644993657E+02 -0.32735057276E+02  0.53368086585E+02  0.00000000000E+00 0. -1.
        -12    1    6    6    0    0 -0.15812732731E+02  0.26759332813E+02 -0.21534224734E+03  0.21757386769E+03  0.00000000000E+00 0.  1.
</event>
<event>
12    1  0.8684423E-002  0.2168289E+03  0.7818608E-02  0.1136571E+00
         21   -1    0    0  503  502  0.00000000000E+00  0.00000000000E+00  0.88437622016E+02  0.88437622016E+02  0.00000000000E+00 0.  1.
         21   -1    0    0  501  503 -0.00000000000E+00 -0.00000000000E+00 -0.53348119302E+03  0.53348119302E+03  0.00000000000E+00 0.  1.
          6    2    1    2  501    0 -0.12280298519E+03  0.36971392771E+02 -0.18946931001E+03  0.28675768641E+03  0.17286958733E+03 0.  0.
         24    2    3    3    0    0 -0.89459123400E+02  0.89261444369E+02 -0.11065206266E+03  0.18635693395E+03  0.80712376054E+02 0.  0.
         -6    2    1    2    0  502  0.12280298519E+03 -0.36971392771E+02 -0.25557426100E+03  0.33516112863E+03  0.17483512863E+03 0.  0.
        -24    2    5    5    0    0  0.11642273566E+02  0.18234166089E+01 -0.39565458752E+02  0.89104969001E+02  0.78964565423E+02 0.  0.
          5    1    3    3  501    0 -0.33343861794E+02 -0.52290051598E+02 -0.78817247346E+02  0.10040075246E+03  0.47000000000E+01 0. -1.
        -13    1    4    4    0    0  0.65597937267E+01  0.42496606076E+02 -0.35561605952E+02  0.55799822935E+02  0.00000000000E+00 0.  1.
         14    1    4    4    0    0 -0.96018917127E+02  0.46764838294E+02 -0.75090456710E+02  0.13055711101E+03  0.00000000000E+00 0. -1.
         -5    1    5    5    0  502  0.11116071163E+03 -0.38794809380E+02 -0.21600880225E+03  0.24605615963E+03  0.47000000000E+01 0.  1.
         13    1    6    6    0    0 -0.24981338634E+02 -0.18375606265E+02  0.73968961154E+00  0.31020595196E+02  0.00000000000E+00 0. -1.
        -14    1    6    6    0    0  0.36623612200E+02  0.20199022874E+02 -0.40305148364E+02  0.58084373805E+02  0.00000000000E+00 0.  1.
</event>
<event>
12    1  0.8684423E-002  0.1979234E+03  0.7818608E-02  0.1152181E+00
         21   -1    0    0  501  502  0.00000000000E+00  0.00000000000E+00  0.35666371188E+03  0.35666371188E+03  0.00000000000E+00 0. -1.
         21   -1    0    0  502  503 -0.00000000000E+00 -0.00000000000E+00 -0.19916109719E+03  0.19916109719E+03  0.00000000000E+00 0. -1.
         -6    2    1    2    0  503 -0.89629216078E+02 -0.36569814334E+02 -0.10882631233E+03  0.22586909754E+03  0.17263526659E+03 0.  0.
        -24    2    3    3    0    0 -0.46550577796E+02 -0.78371740855E+02 -0.25169936479E+02  0.12279800868E+03  0.78337342161E+02 0.  0.
          6    2    1    2  501    0  0.89629216078E+02  0.36569814334E+02  0.26632892701E+03  0.32995571153E+03  0.16902344960E+03 0.  0.
         24    2    5    5    0    0  0.63041819259E+02  0.86730771958E+02  0.21201774555E+03  0.25124862309E+03  0.81718103239E+02 0.  0.
          5    1    5    5  501    0  0.26587396818E+02 -0.50160957623E+02  0.54311181466E+02  0.78707088445E+02  0.47000000000E+01 0. -1.
        -11    1    6    6    0    0  0.12751622150E+01  0.64328440108E+02  0.71864419884E+02  0.96458639275E+02  0.00000000000E+00 0.  1.
         12    1    6    6    0    0  0.61766657044E+02  0.22402331850E+02  0.14015332566E+03  0.15478998381E+03  0.00000000000E+00 0. -1.
         -5    1    3    3    0  503 -0.43078638282E+02  0.41801926521E+02 -0.83656375848E+02  0.10307108885E+03  0.47000000000E+01 0.  1.
         13    1    4    4    0    0 -0.49907297423E+02 -0.30138419529E+02 -0.41723083542E+02  0.71692945037E+02  0.00000000000E+00 0. -1.
        -14    1    4    4    0    0  0.33567196270E+01 -0.48233321326E+02  0.16553147063E+02  0.51105063648E+02  0.00000000000E+00 0.  1.
</event>
<event>
12    1  0.8684423E-002  0.2088989E+03  0.7818608E-02  0.1142529E+00
         21   -1    0    0  503  502  0.00000000000E+00  0.00000000000E+00  0.12570361807E+03  0.12570361807E+03  0.00000000000E+00 0.  1.
         21   -1    0    0  501  503 -0.00000000000E+00 -0.00000000000E+00 -0.11932747126E+04  0.11932747126E+04  0.00000000000E+00 0.  1.
          6    2    1    2  501    0 -0.41227412370E+02 -0.10609490246E+03 -0.10895236245E+04  0.11093693971E+04  0.17516535942E+03 0.  0.
         24    2    3    3    0    0 -0.74919480583E+02 -0.11219172164E+03 -0.10164545635E+04  0.10285393017E+04  0.80705045581E+02 0.  0.
         -6    2    1    2    0  502  0.41227412370E+02  0.10609490246E+03  0.21952529904E+02  0.20960893358E+03  0.17463723431E+03 0.  0.
        -24    2    5    5    0    0 -0.36845581981E+02  0.28078599875E+02 -0.14348153013E+02  0.93325807133E+02  0.79736015073E+02 0.  0.
          5    1    3    3  501    0  0.33692068214E+02  0.60968191833E+01 -0.73069060942E+02  0.80830095458E+02  0.47000000000E+01 0. -1.
        -11    1    4    4    0    0 -0.18499724620E+02 -0.17915791015E+02 -0.49332868853E+03  0.49400041529E+03  0.00000000000E+00 0.  1.
         12    1    4    4    0    0 -0.56419755963E+02 -0.94275930630E+02 -0.52312587500E+03  0.53453888638E+03  0.00000000000E+00 0. -1.
         -5    1    5    5    0  502  0.78072994351E+02  0.78016302587E+02  0.36300682916E+02  0.11628312645E+03  0.47000000000E+01 0.  1.
         13    1    6    6    0    0 -0.59376479336E+02  0.23753728839E+02  0.38133031398E+01  0.64065179411E+02  0.00000000000E+00 0. -1.
        -14    1    6    6    0    0  0.22530897355E+02  0.43248710360E+01 -0.18161456152E+02  0.29260627722E+02  0.00000000000E+00 0.  1.
</event>
<event>
12    1  0.8684423E-002  0.2049085E+03  0.7818608E-02  0.1145846E+00
         21   -1    0    0  501  502  0.00000000000E+00  0.00000000000E+00  0.61621083053E+03  0.61621083053E+03  0.00000000000E+00 0.  1.
         21   -1    0    0  502  503 -0.00000000000E+00 -0.00000000000E+00 -0.80513026850E+02  0.80513026850E+02  0.00000000000E+00 0.  1.
         -6    2    1    2    0  503 -0.67365266839E+02  0.86743545994E+02  0.13013948700E+03  0.24274219582E+03  0.17298833951E+03 0.  0.
        -24    2    3    3    0    0 -0.11041906391E+02 -0.16302391519E+02  0.84932117797E+02  0.11681927336E+03  0.77753368604E+02 0.  0.
          6    2    1    2  501    0  0.67365266839E+02 -0.86743545994E+02  0.40555831668E+03  0.45398166156E+03  0.17192812119E+03 0.  0.
         24    2    5    5    0    0  0.95607748199E+02 -0.20572938190E+02  0.30954338165E+03  0.33391024598E+03  0.78197569951E+02 0.  0.
          5    1    5    5  501    0 -0.28242481360E+02 -0.66170607804E+02  0.96014935026E+02  0.12007141558E+03  0.47000000000E+01 0. -1.
        -11    1    6    6    0    0  0.93584337901E+02 -0.35084674774E+02  0.30051720328E+03  0.31670104542E+03  0.00000000000E+00 0.  1.
         12    1    6    6    0    0  0.20234102980E+01  0.14511736584E+02  0.90261783713E+01  0.17209200560E+02  0.00000000000E+00 0. -1.
         -5    1    3    3    0  503 -0.56323360448E+02  0.10304593751E+03  0.45207369205E+02  0.12592292246E+03  0.47000000000E+01 0.  1.
         11    1    4    4    0    0  0.28796153676E+02  0.11862441032E+02  0.37872961106E+02  0.49033632913E+02  0.00000000000E+00 0. -1.
        -12    1    4    4    0    0 -0.39838060067E+02 -0.28164832552E+02  0.47059156692E+02  0.67785640449E+02  0.00000000000E+00 0.  1.
</event>
<event>
12    1  0.8684423E-002  0.1906998E+03  0.7818608E-02  0.1158256E+00
         21   -1    0    0  503  502  0.00000000000E+00  0.00000000000E+00  0.97358302510E+02  0.97358302510E+02  0.00000000000E+00 0.  1.
         21   -1    0    0  501  503 -0.00000000000E+00 -0.00000000000E+00 -0.37588530546E+03  0.37588530546E+03  0.00000000000E+00 0.  1.
          6    2    1    2  501    0 -0.34814306133E+02 -0.74986315884E+02 -0.10861401662E+03  0.21782856039E+03  0.16975657170E+03 0.  0.
         24    2    3    3    0    0 -0.63063806524E+02 -0.62665748263E+02 -0.14456223554E+02  0.11864383045E+03  0.77222641796E+02 0.  0.
         -6    2    1    2    0  502  0.34814306133E+02  0.74986315884E+02 -0.16991298633E+03  0.25541504758E+03  0.17184714174E+03 0.  0.
        -24    2    5    5    0    0 -0.12492407126E+02  0.96092680467E+02 -0.92450543859E+02  0.16210950788E+03  0.91337429396E+02 0.  0.
          5    1    3    3  501    0  0.28249500391E+02 -0.12320567620E+02 -0.94157793063E+02  0.99184729940E+02  0.47000000000E+01 0. -1.
        -11    1    4    4    0    0 -0.45135426163E+02 -0.69456502437E+02 -0.35549710209E+02  0.90139859782E+02  0.00000000000E+00 0.  1.
         12    1    4    4    0    0 -0.17928380361E+02  0.67907541734E+01  0.21093486655E+02  0.28503970669E+02  0.00000000000E+00 0. -1.
         -5    1    5    5    0  502  0.47306713259E+02 -0.21106364583E+02 -0.77462442475E+02  0.93305539704E+02  0.47000000000E+01 0.  1.
         11    1    6    6    0    0 -0.79112537476E+01  0.46662958376E+02 -0.10118363229E+03  0.11170562682E+03  0.00000000000E+00 0. -1.
        -12    1    6    6    0    0 -0.45811533786E+01  0.49429722090E+02  0.87330884264E+01  0.50403881058E+02  0.00000000000E+00 0.  1.
</event>
<event>
12    1  0.8684423E-002  0.2199121E+03  0.7818608E-02  0.1133963E+00
         21   -1    0    0  501  502  0.00000000000E+00  0.00000000000E+00  0.22740635933E+04  0.22740635933E+04  0.00000000000E+00 0. -1.
         21   -1    0    0  502  503 -0.00000000000E+00 -0.00000000000E+00 -0.41964783746E+02  0.41964783746E+02  0.00000000000E+00 0. -1.
         -6    2    1    2    0  503  0.87792065525E+01 -0.13701538129E+03  0.19295715760E+04  0.19420627677E+04  0.17178776857E+03 0.  0.
        -24    2    3    3    0    0 -0.46707314877E+02 -0.12029875656E+03  0.10730308359E+04  0.10835510735E+04  0.77681335802E+02 0.  0.
          6    2    1    2  501    0 -0.87792065525E+01  0.13701538129E+03  0.30252723356E+03  0.37396560939E+03  0.17168943120E+03 0.  0.
         24    2    5    5    0    0  0.60984857240E+02  0.79291679219E+02  0.16459872878E+03  0.20890376399E+03  0.80880887034E+02 0.  0.
          5    1    5    5  501    0 -0.69764063792E+02  0.57723702071E+02  0.13792850478E+03  0.16506184540E+03  0.47000000000E+01 0. -1.
        -11    1    6    6    0    0  0.96061328505E+01  0.75266753479E+02  0.11184889356E+03  0.13515745247E+03  0.00000000000E+00 0.  1.
         12    1    6    6    0    0  0.51378724389E+02  0.40249257390E+01  0.52749835220E+02  0.73746311520E+02  0.00000000000E+00 0. -1.
         -5    1    3    3    0  503  0.55486521429E+02 -0.16716624726E+02  0.85654074010E+03  0.85851169419E+03  0.47000000000E+01 0.  1.
         11    1    4    4    0    0  0.15904729972E+02 -0.35842655788E+02  0.45066723100E+03  0.45236999182E+03  0.00000000000E+00 0. -1.
        -12    1    4    4    0    0 -0.62612044849E+02 -0.84456100777E+02  0.62236360490E+03  0.63118108164E+03  0.00000000000E+00 0.  1.
</event>
<event>
12    1  0.8684423E-002  0.2141046E+03  0.7818608E-02  0.1138576E+00
         21   -1    0    0  501  502  0.00000000000E+00  0.00000000000E+00  0.35142489316E+03  0.35142489316E+03  0.00000000000E+00 0. -1.
         21   -1    0    0  502  503 -0.00000000000E+00 -0.00000000000E+00 -0.13023467095E+03  0.13023467095E+03  0.00000000000E+00 0.  1.
         -6    2    1    2    0  503 -0.12696266310E+02 -0.12388020995E+03  0.96237781011E+02  0.23473916412E+03  0.17416447135E+03 0.  0.
        -24    2    3    3    0    0  0.39579686125E+02 -0.13803123475E+03  0.73801745796E+02  0.17593021597E+03  0.69896851767E+02 0.  0.
          6    2    1    2  501    0  0.12696266310E+02  0.12388020995E+03  0.12495244119E+03  0.24692040000E+03  0.17276883336E+03 0.  0.
         24    2    5    5    0    0  0.47132975315E+02  0.14124162939E+03  0.80841675254E+02  0.18813982936E+03  0.81795499272E+02 0.  0.
          5    1    5    5  501    0 -0.34436709006E+02 -0.17361419440E+02  0.44110765938E+02  0.58780570631E+02  0.47000000000E+01 0. -1.
        -13    1    6    6    0    0  0.28280267575E+02  0.16835213618E+02 -0.82929888881E+01  0.33940707364E+02  0.00000000000E+00 0.  1.
         14    1    6    6    0    0  0.18852707740E+02  0.12440641577E+03  0.89134664142E+02  0.15419912200E+03  0.00000000000E+00 0. -1.
         -5    1    3    3    0  503 -0.52275952434E+02  0.14151024807E+02  0.22436035215E+02  0.58808948147E+02  0.47000000000E+01 0.  1.
         11    1    4    4    0    0  0.49366385928E+02 -0.47229499228E+02  0.33852282635E+02  0.76247247141E+02  0.00000000000E+00 0. -1.
        -12    1    4    4    0    0 -0.97866998034E+01 -0.90801735526E+02  0.39949463161E+02  0.99682968828E+02  0.00000000000E+00 0.  1.
</event>
<event>
12    1  0.8684423E-002  0.2264426E+03  0.7818608E-02  0.1129254E+00
         21   -1    0    0  503  502  0.00000000000E+00  0.00000000000E+00  0.16045557854E+03  0.16045557854E+03  0.00000000000E+00 0.  1.
         21   -1    0    0  501  503 -0.00000000000E+00 -0.00000000000E+00 -0.32002299592E+03  0.32002299592E+03  0.00000000000E+00 0.  1.
          6    2    1    2  501    0 -0.11697656126E+03 -0.87888331272E+02 -0.65458344539E+02  0.23525877887E+03  0.17220343640E+03 0.  0.
         24    2    3    3    0    0 -0.14435931597E+03 -0.64776169856E+02 -0.82019465974E+02  0.19550518779E+03  0.80371147589E+02 0.  0.
         -6    2    1    2    0  502  0.11697656126E+03  0.87888331272E+02 -0.94109072846E+02  0.24521979559E+03  0.17282463915E+03 0.  0.
        -24    2    5    5    0    0  0.43536217138E+02  0.62449865288E+02  0.14336914506E+02  0.11171615568E+03  0.80495741780E+02 0.  0.
          5    1    3    3  501    0  0.27382754711E+02 -0.23112161416E+02  0.16561121435E+02  0.39753591084E+02  0.47000000000E+01 0. -1.
        -11    1    4    4    0    0 -0.84599336616E+02 -0.67059230707E+02 -0.82224354472E+02  0.13570126251E+03  0.00000000000E+00 0.  1.
         12    1    4    4    0    0 -0.59759979352E+02  0.22830608508E+01  0.20488849796E+00  0.59803925275E+02  0.00000000000E+00 0. -1.
         -5    1    5    5    0  502  0.73440344119E+02  0.25438465983E+02 -0.10844598735E+03  0.13350363991E+03  0.47000000000E+01 0.  1.
         11    1    6    6    0    0  0.53366427586E+02  0.66360758878E+01  0.25970625411E+01  0.53840113580E+02  0.00000000000E+00 0. -1.
        -12    1    6    6    0    0 -0.98302104484E+01  0.55813789401E+02  0.11739851965E+02  0.57876042098E+02  0.00000000000E+00 0.  1.
</event>
<event>
12    1  0.8684423E-002  0.2611632E+03  0.7818608E-02  0.1107744E+00
         21   -1    0    0  501  502  0.00000000000E+00  0.00000000000E+00  0.18692671220E+03  0.18692671220E+03  0.00000000000E+00 0.  1.
         21   -1    0    0  502  503 -0.00000000000E+00 -0.00000000000E+00 -0.35808907787E+03  0.35808907787E+03  0.00000000000E+00 0. -1.
         -6    2    1    2    0  503  0.13525608463E+03  0.12912632111E+03 -0.11650007318E+03  0.27819341541E+03  0.16985727565E+03 0.  0.
        -24    2    3    3    0    0  0.14562793246E+03  0.10892569797E+03 -0.14216366426E+03  0.24360511811E+03  0.77850136433E+02 0.  0.
          6    2    1    2  501    0 -0.13525608463E+03 -0.12912632111E+03 -0.54662292484E+02  0.26682237467E+03  0.18231400981E+03 0.  0.
         24    2    5    5    0    0  0.13482051994E+02 -0.31728978895E+02 -0.36157388640E+02  0.88010191014E+02  0.72456491368E+02 0.  0.
          5    1    5    5  501    0 -0.14873813663E+03 -0.97397342211E+02 -0.18504903844E+02  0.17881218365E+03  0.47000000000E+01 0. -1.
        -13    1    6    6    0    0  0.19529069303E+02  0.17716271950E+02 -0.26278387855E+02  0.37226395312E+02  0.00000000000E+00 0.  1.
         14    1    6    6    0    0 -0.60470173091E+01 -0.49445250844E+02 -0.98790007852E+01  0.50783795702E+02  0.00000000000E+00 0. -1.
         -5    1    3    3    0  503 -0.10371847830E+02  0.20200623136E+02  0.25663591081E+02  0.34588297293E+02  0.47000000000E+01 0.  1.
         11    1    4    4    0    0  0.62261582727E+02  0.87908638251E+02 -0.54149255708E+02  0.12056772062E+03  0.00000000000E+00 0. -1.
        -12    1    4    4    0    0  0.83366349737E+02  0.21017059719E+02 -0.88014408556E+02  0.12303739749E+03  0.00000000000E+00 0.  1.
</event>
<event>
12    1  0.8684423E-002  0.1797360E+03  0.7818608E-02  0.1168541E+00
         21   -1    0    0  501  502  0.00000000000E+00  0.00000000000E+00  0.63735662788E+03  0.63735662788E+03  0.00000000000E+00 0. -1.
         21   -1    0    0  502  503 -0.00000000000E+00 -0.00000000000E+00 -0.11032760844E+03  0.11032760844E+03  0.00000000000E+00 0. -1.
         -6    2    1    2    0  503 -0.26250173913E+02  0.37448768648E+02 -0.11965771471E+02  0.18013385824E+03  0.17382043980E+03 0.  0.
        -24    2    3    3    0    0  0.85639961638E+01 -0.31719080923E+02 -0.39953527155E+02  0.97661909548E+02  0.82837926819E+02 0.  0.
          6    2    1    2  501    0  0.26250173913E+02 -0.37448768648E+02  0.53899479091E+03  0.56755037809E+03  0.17177475116E+03 0.  0.
         24    2    5    5    0    0  0.77964906071E+02 -0.28016514636E+02  0.26843137409E+03  0.29188747986E+03  0.79242959510E+02 0.  0.
          5    1    5    5  501    0 -0.51714732159E+02 -0.94322540120E+01  0.27056341682E+03  0.27566289823E+03  0.47000000000E+01 0. -1.
        -13    1    6    6    0    0  0.77249779089E+01  0.21400870957E+02  0.25261158438E+02  0.33997039386E+02  0.00000000000E+00 0.  1.
         14    1    6    6    0    0  0.70239928163E+02 -0.49417385593E+02  0.24317021565E+03  0.25789044048E+03  0.00000000000E+00 0. -1.
         -5    1    3    3    0  503 -0.34814170076E+02  0.69167849571E+02  0.27987755684E+02  0.82471948689E+02  0.47000000000E+01 0.  1.
         11    1    4    4    0    0  0.26884254459E+02 -0.50093981804E+02 -0.94783879964E+01  0.57636880465E+02  0.00000000000E+00 0. -1.
        -12    1    4    4    0    0 -0.18320258295E+02  0.18374900880E+02 -0.30475139159E+02  0.40025029083E+02  0.00000000000E+00 0.  1.
</event>
<event>
12    1  0.8684423E-002  0.2203847E+03  0.7818608E-02  0.1134164E+00
         21   -1    0    0  501  502  0.00000000000E+00  0.00000000000E+00  0.38124866704E+03  0.38124866704E+03  0.00000000000E+00 0. -1.
         21   -1    0    0  502  503 -0.00000000000E+00 -0.00000000000E+00 -0.12571155585E+03  0.12571155585E+03  0.00000000000E+00 0. -1.
         -6    2    1    2    0  503  0.11840899449E+03 -0.71327081272E+02  0.12304380754E+03  0.25240676085E+03  0.17164251177E+03 0.  0.
        -24    2    3    3    0    0  0.88627463616E+02 -0.10917450687E+03  0.12623443074E+03  0.20391307793E+03  0.76625789319E+02 0.  0.
          6    2    1    2  501    0 -0.11840899449E+03  0.71327081272E+02  0.13249330365E+03  0.25455346204E+03  0.16773415581E+03 0.  0.
         24    2    5    5    0    0 -0.56466782403E+02 -0.29213921027E+02  0.51771978691E+02  0.11143339676E+03  0.75465975378E+02 0.  0.
          5    1    5    5  501    0 -0.61942212090E+02  0.10054100230E+03  0.80721324963E+02  0.14312006528E+03  0.47000000000E+01 0. -1.
        -11    1    6    6    0    0  0.51507768631E+00  0.92512511419E+01  0.40769346921E+02  0.41808977518E+02  0.00000000000E+00 0.  1.
         12    1    6    6    0    0 -0.56981860090E+02 -0.38465172169E+02  0.11002631769E+02  0.69624419245E+02  0.00000000000E+00 0. -1.
         -5    1    3    3    0  503  0.29781530877E+02  0.37847425603E+02 -0.31906232023E+01  0.48493682914E+02  0.47000000000E+01 0.  1.
         11    1    4    4    0    0  0.76516609772E+02 -0.93551059896E+02  0.60273327344E+02  0.13505356851E+03  0.00000000000E+00 0. -1.
        -12    1    4    4    0    0  0.12110853844E+02 -0.15623446979E+02  0.65961103395E+02  0.68859509419E+02  0.00000000000E+00 0.  1.
</event>
<event>
12    1  0.8684423E-002  0.2935300E+03  0.7818608E-02  0.1088584E+00
         21   -1    0    0  501  502  0.00000000000E+00  0.00000000000E+00  0.14126303997E+03  0.14126303997E+03  0.00000000000E+00 0. -1.
         21   -1    0    0  502  503 -0.00000000000E+00 -0.00000000000E+00 -0.70389926381E+03  0.70389926381E+03  0.00000000000E+00 0.  1.
         -6    2    1    2    0  503 -0.23880166659E+03  0.10675933233E+02 -0.12627959514E+03  0.31954095052E+03  0.17035161107E+03 0.  0.
        -24    2    3    3    0    0 -0.13023186845E+03  0.68639367778E+02 -0.50872832134E+02  0.17512685592E+03  0.80060403736E+02 0.  0.
          6    2    1    2  501    0  0.23880166659E+03 -0.10675933233E+02 -0.43635662870E+03  0.52562135326E+03  0.16950070229E+03 0.  0.
         24    2    5    5    0    0  0.11802676787E+03  0.36903264816E+02 -0.15179303035E+03  0.21281328470E+03  0.83403844014E+02 0.  0.
          5    1    5    5  501    0  0.12077489872E+03 -0.47579198049E+02 -0.28456359835E+03  0.31280806856E+03  0.47000000000E+01 0. -1.
        -11    1    6    6    0    0  0.39082996594E+02 -0.12514233996E+02 -0.95607738519E+02  0.10404290625E+03  0.00000000000E+00 0.  1.
         12    1    6    6    0    0  0.78943771274E+02  0.49417498812E+02 -0.56185291827E+02  0.10877037846E+03  0.00000000000E+00 0. -1.
         -5    1    3    3    0  503 -0.10856979813E+03 -0.57963434545E+02 -0.75406763006E+02  0.14441409460E+03  0.47000000000E+01 0.  1.
         11    1    4    4    0    0 -0.10096232004E+03  0.93209287232E+01 -0.28995531233E+02  0.10545620234E+03  0.00000000000E+00 0. -1.
        -12    1    4    4    0    0 -0.29269548412E+02  0.59318439055E+02 -0.21877300900E+02  0.69670653584E+02  0.00000000000E+00 0.  1.
</event>
<event>
12    1  0.8684423E-002  0.2240394E+03  0.7818608E-02  0.1132964E+00
         21   -1    0    0  501  502  0.00000000000E+00  0.00000000000E+00  0.84086038250E+03  0.84086038250E+03  0.00000000000E+00 0.  1.
         21   -1    0    0  502  503 -0.00000000000E+00 -0.00000000000E+00 -0.71790728879E+02  0.71790728879E+02  0.00000000000E+00 0.  1.
         -6    2    1    2    0  503 -0.14099150349E+03 -0.23664199701E+02  0.18371115483E+03  0.28972992241E+03  0.17249649598E+03 0.  0.
        -24    2    3    3    0    0 -0.60755774781E+01  0.59403592862E+01  0.99655627300E+02  0.12797035171E+03  0.79830860911E+02 0.  0.
          6    2    1    2  501    0  0.14099150349E+03  0.23664199701E+02  0.58535849879E+03  0.62292118897E+03  0.15794821038E+03 0.  0.
         24    2    5    5    0    0  0.49947530866E+02  0.98084073619E+01  0.15173730568E+03  0.17960367629E+03  0.81500367540E+02 0.  0.
          5    1    5    5  501    0  0.91043972622E+02  0.13855792339E+02  0.43362119311E+03  0.44331751267E+03  0.47000000000E+01 0. -1.
        -11    1    6    6    0    0  0.32187839027E+02  0.39438839030E+02  0.12782740189E+03  0.13759114680E+03  0.00000000000E+00 0.  1.
         12    1    6    6    0    0  0.17759691839E+02 -0.29630431668E+02  0.23909903794E+02  0.42012529494E+02  0.00000000000E+00 0. -1.
         -5    1    3    3    0  503 -0.13491592601E+03 -0.29604558987E+02  0.84055527532E+02  0.16175957070E+03  0.47000000000E+01 0.  1.
         13    1    4    4    0    0  0.50888524862E+01  0.32264468033E+02  0.10450272138E+02  0.34294321758E+02  0.00000000000E+00 0. -1.
        -14    1    4    4    0    0 -0.11164429964E+02 -0.26324108747E+02  0.89205355162E+02  0.93676029950E+02  0.00000000000E+00 0.  1.
</event>
<event>
12    1  0.8684423E-002  0.2125255E+03  0.7818608E-02  0.1139680E+00
         21   -1    0    0  501  502  0.00000000000E+00  0.00000000000E+00  0.84228402312E+02  0.84228402312E+02  0.00000000000E+00 0. -1.
         21   -1    0    0  502  503 -0.00000000000E+00 -0.00000000000E+00 -0.89338731727E+03  0.89338731727E+03  0.00000000000E+00 0.  1.
         -6    2    1    2    0  503 -0.36032016241E+02 -0.11902540135E+03 -0.71447519918E+03  0.74541390950E+03  0.17234190977E+03 0.  0.
        -24    2    3    3    0    0  0.26637102785E+01 -0.60550176042E+02 -0.17313171024E+03  0.19952786439E+03  0.78507072327E+02 0.  0.
          6    2    1    2  501    0  0.36032016241E+02  0.11902540135E+03 -0.94683715777E+02  0.23220181009E+03  0.17171872995E+03 0.  0.
         24    2    5    5    0    0 -0.40126604602E+02  0.69805504491E+02 -0.83595917430E+02  0.14072633224E+03  0.79578076884E+02 0.  0.
          5    1    5    5  501    0  0.76158620843E+02  0.49219896857E+02 -0.11087798348E+02  0.91475477848E+02  0.47000000000E+01 0. -1.
        -13    1    6    6    0    0 -0.29255046894E+02  0.79567976445E+02 -0.38103759941E+02  0.92945237457E+02  0.00000000000E+00 0.  1.
         14    1    6    6    0    0 -0.10871557708E+02 -0.97624719540E+01 -0.45492157489E+02  0.47781094783E+02  0.00000000000E+00 0. -1.
         -5    1    3    3    0  503 -0.38695726519E+02 -0.58475225306E+02 -0.54134348894E+03  0.54588604511E+03  0.47000000000E+01 0.  1.
         13    1    4    4    0    0 -0.14581676322E+02 -0.51742700389E+02 -0.45479641990E+02  0.70415411406E+02  0.00000000000E+00 0. -1.
        -14    1    4    4    0    0  0.17245386601E+02 -0.88074756526E+01 -0.12765206825E+03  0.12911245298E+03  0.00000000000E+00 0.  1.
</event>
<event>
12    1  0.8684423E-002  0.2069496E+03  0.7818608E-02  0.1144115E+00
         21   -1    0    0  501  502  0.00000000000E+00  0.00000000000E+00  0.10295351348E+04  0.10295351348E+04  0.00000000000E+00 0.  1.
         21   -1    0    0  502  503 -0.00000000000E+00 -0.00000000000E+00 -0.45494049499E+02  0.45494049499E+02  0.00000000000E+00 0. -1.
         -6    2    1    2    0  503  0.10250641219E+03 -0.56879222510E+02  0.33195659205E+03  0.39089301101E+03  0.16988041842E+03 0.  0.
        -24    2    3    3    0    0  0.95913170346E+02 -0.77589072122E+02  0.33745394347E+03  0.36798712571E+03  0.79498178375E+02 0.  0.
          6    2    1    2  501    0 -0.10250641219E+03  0.56879222510E+02  0.65208449328E+03  0.68413617331E+03  0.17054414902E+03 0.  0.
         24    2    5    5    0    0 -0.12579610084E+03  0.40877592366E+02  0.37384067199E+03  0.40442171918E+03  0.79400518683E+02 0.  0.
          5    1    5    5  501    0  0.23289688646E+02  0.16001630144E+02  0.27824382129E+03  0.27971445413E+03  0.47000000000E+01 0. -1.
        -13    1    6    6    0    0  0.41721222638E+01 -0.66712639577E+01  0.27010418429E+01  0.83191342106E+01  0.00000000000E+00 0.  1.
         14    1    6    6    0    0 -0.12996822310E+03  0.47548856324E+02  0.37113963015E+03  0.39610258497E+03  0.00000000000E+00 0. -1.
         -5    1    3    3    0  503  0.65932418454E+01  0.20709849613E+02 -0.54973514209E+01  0.22905885306E+02  0.47000000000E+01 0.  1.
         13    1    4    4    0    0  0.58598275844E+01  0.37177350067E+01  0.10981326254E+03  0.11003232145E+03  0.00000000000E+00 0. -1.
        -14    1    4    4    0    0  0.90053342762E+02 -0.81306807129E+02  0.22764068093E+03  0.25795480426E+03  0.00000000000E+00 0.  1.
</event>
<event>
12    1  0.8684423E-002  0.2123042E+03  0.7818608E-02  0.1140784E+00
         21   -1    0    0  503  502  0.00000000000E+00  0.00000000000E+00  0.97315145272E+02  0.97315145272E+02  0.00000000000E+00 0.  1.
         21   -1    0    0  501  503 -0.00000000000E+00 -0.00000000000E+00 -0.46645206115E+03  0.46645206115E+03  0.00000000000E+00 0. -1.
          6    2    1    2  501    0 -0.70707175584E+02 -0.96575272459E+02 -0.23661722924E+03  0.31790059547E+03  0.17534761903E+03 0.  0.
         24    2    3    3    0    0 -0.61287838033E+02  0.11731976507E+02 -0.11876829145E+03  0.15749596263E+03  0.82493835091E+02 0.  0.
         -6    2    1    2    0  502  0.70707175584E+02  0.96575272459E+02 -0.13251968663E+03  0.24586661094E+03  0.16900483751E+03 0.  0.
        -24    2    5    5    0    0  0.87085710396E+02  0.35891432896E+02 -0.13413565091E+03  0.18281515476E+03  0.80974638340E+02 0.  0.
          5    1    3    3  501    0 -0.94193375513E+01 -0.10830724897E+03 -0.11784893779E+03  0.16040463284E+03  0.47000000000E+01 0. -1.
        -11    1    4    4    0    0  0.19455110978E+02 -0.93250327114E+00 -0.37398870282E+02  0.42166887529E+02  0.00000000000E+00 0.  1.
         12    1    4    4    0    0 -0.80742949011E+02  0.12664479778E+02 -0.81369421169E+02  0.11532907510E+03  0.00000000000E+00 0. -1.
         -5    1    5    5    0  502 -0.16378534812E+02  0.60683839563E+02  0.16159642731E+01  0.63051456187E+02  0.47000000000E+01 0.  1.
         13    1    6    6    0    0  0.10082256519E+03  0.24783966762E+02 -0.98854840307E+02  0.14335869039E+03  0.00000000000E+00 0. -1.
        -14    1    6    6    0    0 -0.13736854791E+02  0.11107466134E+02 -0.35280810600E+02  0.39456464363E+02  0.00000000000E+00 0.  1.
</event>
<event>
12    1  0.8684423E-002  0.2354674E+03  0.7818608E-02  0.1123310E+00
         21   -1    0    0  501  502  0.00000000000E+00  0.00000000000E+00  0.51257870204E+03  0.51257870204E+03  0.00000000000E+00 0.  1.
         21   -1    0    0  502  503 -0.00000000000E+00 -0.00000000000E+00 -0.14609077845E+03  0.14609077845E+03  0.00000000000E+00 0.  1.
         -6    2    1    2    0  503  0.15273308334E+03 -0.48024076635E+02  0.35296231459E+03  0.42281391557E+03  0.16898374182E+03 0.  0.
        -24    2    3    3    0    0  0.69666289132E+02 -0.10905658026E+02  0.29881491913E+03  0.31683325821E+03  0.78234470638E+02 0.  0.
          6    2    1    2  501    0 -0.15273308334E+03  0.48024076635E+02  0.13525608999E+02  0.23585556492E+03  0.17265919820E+03 0.  0.
         24    2    5    5    0    0 -0.15499343566E+03 -0.12048429959E+02  0.13952952397E+02  0.17555558264E+03  0.80355136452E+02 0.  0.
          5    1    5    5  501    0  0.22603523163E+01  0.60072506595E+02 -0.42734339763E+00  0.60299982285E+02  0.47000000000E+01 0. -1.
        -11    1    6    6    0    0 -0.50825320901E+02 -0.11819579826E+02  0.42775353113E+02  0.67473302468E+02  0.00000000000E+00 0.  1.
         12    1    6    6    0    0 -0.10416811475E+03 -0.22885013327E+00 -0.28822400716E+02  0.10808228017E+03  0.00000000000E+00 0. -1.
         -5    1    3    3    0  503  0.83066794207E+02 -0.37118418609E+02  0.54147395465E+02  0.10598065737E+03  0.47000000000E+01 0.  1.
         11    1    4    4    0    0  0.72141292292E-02 -0.26889774539E+02  0.39026849643E+02  0.47393617923E+02  0.00000000000E+00 0. -1.
        -12    1    4    4    0    0  0.69659075003E+02  0.15984116513E+02  0.25978806948E+03  0.26943964028E+03  0.00000000000E+00 0.  1.
</event>
<event>
12    1  0.8684423E-002  0.2191779E+03  0.7818608E-02  0.1134745E+00
         21   -1    0    0  501  502  0.00000000000E+00  0.00000000000E+00  0.15281546372E+03  0.15281546372E+03  0.00000000000E+00 0. -1.
         21   -1    0    0  502  503 -0.00000000000E+00 -0.00000000000E+00 -0.31395745514E+03  0.31395745514E+03  0.00000000000E+00 0.  1.
         -6    2    1    2    0  503  0.12002936246E+03 -0.60946626975E+02 -0.64745660016E+02  0.22854088204E+03  0.17296645652E+03 0.  0.
        -24    2    3    3    0    0  0.14175975579E+03 -0.84628705355E+02 -0.42590827706E+02  0.18922196261E+03  0.82055629901E+02 0.  0.
          6    2    1    2  501    0 -0.12002936246E+03  0.60946626975E+02 -0.96396331411E+02  0.23823203682E+03  0.17129130586E+03 0.  0.
         24    2    5    5    0    0 -0.15967616526E+02 -0.38105785342E+00  0.45647236143E+01  0.80735508204E+02  0.79008073009E+02 0.  0.
          5    1    5    5  501    0 -0.10406174594E+03  0.61327684828E+02 -0.10096105503E+03  0.15749652861E+03  0.47000000000E+01 0. -1.
        -11    1    6    6    0    0 -0.55473859508E+01  0.14593859595E+02 -0.34363754392E+02  0.37744163054E+02  0.00000000000E+00 0.  1.
         12    1    6    6    0    0 -0.10420230575E+02 -0.14974917448E+02  0.38928478006E+02  0.42991345149E+02  0.00000000000E+00 0. -1.
         -5    1    3    3    0  503 -0.21730393326E+02  0.23682078381E+02 -0.22154832310E+02  0.39318919430E+02  0.47000000000E+01 0.  1.
         13    1    4    4    0    0  0.68137082729E+02  0.44392433208E+01 -0.22766202412E+02  0.71976863619E+02  0.00000000000E+00 0. -1.
        -14    1    4    4    0    0  0.73622673058E+02 -0.89067948676E+02 -0.19824625294E+02  0.11724509899E+03  0.00000000000E+00 0.  1.
</event>
<event>
12    1  0.8684423E-002  0.1918543E+03  0.7818608E-02  0.1157290E+00
         21   -1    0    0  503  502  0.00000000000E+00  0.00000000000E+00  0.58588083828E+03  0.58588083828E+03  0.00000000000E+00 0. -1.
         21   -1    0    0  501  503 -0.00000000000E+00 -0.00000000000E+00 -0.70426978444E+02  0.70426978444E+02  0.00000000000E+00 0. -1.
          6    2    1    2  501    0 -0.60975272995E+02  0.43715312472E+02  0.36918681511E+03  0.41505666493E+03  0.17419563195E+03 0.  0.
         24    2    3    3    0    0  0.29668155600E+02  0.48212826816E+02  0.19178662742E+03  0.21573437472E+03  0.80960075663E+02 0.  0.
         -6    2    1    2    0  502  0.60975272995E+02 -0.43715312472E+02  0.14626704473E+03  0.24125115180E+03  0.17657592534E+03 0.  0.
        -24    2    5    5    0    0  0.10727631116E+03 -0.54361363281E+02  0.11200815772E+03  0.18248989014E+03  0.79330749732E+02 0.  0.
          5    1    3    3  501    0 -0.90643428594E+02 -0.44975143436E+01  0.17740018769E+03  0.19932229021E+03  0.47000000000E+01 0. -1.
        -11    1    4    4    0    0 -0.79246313041E+01  0.45154096761E+02  0.45224110557E+02  0.64396524839E+02  0.00000000000E+00 0.  1.
         12    1    4    4    0    0  0.37592786904E+02  0.30587300547E+01  0.14656251686E+03  0.15133784988E+03  0.00000000000E+00 0. -1.
         -5    1    5    5    0  502 -0.46301038165E+02  0.10646050809E+02  0.34258887014E+02  0.58761261665E+02  0.47000000000E+01 0.  1.
         11    1    6    6    0    0  0.83350572641E+02 -0.15946990103E+02  0.32244174913E+02  0.90781668132E+02  0.00000000000E+00 0. -1.
        -12    1    6    6    0    0  0.23925738518E+02 -0.38414373179E+02  0.79763982807E+02  0.91708222006E+02  0.00000000000E+00 0.  1.
</event>
<event>
12    1  0.8684423E-002  0.1918689E+03  0.7818608E-02  0.1157260E+00
         21   -1    0    0  501  502  0.00000000000E+00  0.00000000000E+00  0.38439075221E+03  0.38439075221E+03  0.00000000000E+00 0. -1.
         21   -1    0    0  502  503 -0.00000000000E+00 -0.00000000000E+00 -0.14809363955E+03  0.14809363955E+03  0.00000000000E+00 0. -1.
         -6    2    1    2    0  503 -0.29399998486E+02  0.81412987213E+02 -0.41268863040E+02  0.19625697339E+03  0.17123447710E+03 0.  0.
        -24    2    3    3    0    0 -0.23585202186E+02  0.20291294284E+02 -0.84551330886E+02  0.12098988081E+03  0.80756580643E+02 0.  0.
          6    2    1    2  501    0  0.29399998486E+02 -0.81412987213E+02  0.27756597569E+03  0.33622741837E+03  0.16885962100E+03 0.  0.
         24    2    5    5    0    0  0.69251654859E+02 -0.26680692184E+02  0.10826195929E+03  0.15382753184E+03  0.80216000197E+02 0.  0.
          5    1    5    5  501    0 -0.39851656373E+02 -0.54732295029E+02  0.16930401641E+03  0.18239988653E+03  0.47000000000E+01 0. -1.
        -11    1    6    6    0    0  0.12129876872E+02  0.19983471382E+02  0.67757330145E+00  0.23386580489E+02  0.00000000000E+00 0.  1.
         12    1    6    6    0    0  0.57121777987E+02 -0.46664163566E+02  0.10758438599E+03  0.13044095135E+03  0.00000000000E+00 0. -1.
         -5    1    3    3    0  503 -0.58147962998E+01  0.61121692930E+02  0.43282467845E+02  0.75267092579E+02  0.47000000000E+01 0.  1.
         11    1    4    4    0    0 -0.30775603421E+02 -0.12100559344E+02 -0.81157805760E+02  0.87636469225E+02  0.00000000000E+00 0. -1.
        -12    1    4    4    0    0  0.71904012352E+01  0.32391853628E+02 -0.33935251254E+01  0.33353411582E+02  0.00000000000E+00 0.  1.
</event>
<event>
12    1  0.8684423E-002  0.1797956E+03  0.7818608E-02  0.1168459E+00
         21   -1    0    0  501  502  0.00000000000E+00  0.00000000000E+00  0.19893677204E+04  0.19893677204E+04  0.00000000000E+00 0.  1.
         21   -1    0    0  502  503 -0.00000000000E+00 -0.00000000000E+00 -0.71809885246E+02  0.71809885246E+02  0.00000000000E+00 0.  1.
         -6    2    1    2    0  503 -0.45860293623E+02  0.27903768225E+01  0.49756616889E+02  0.18474272599E+03  0.17188135777E+03 0.  0.
        -24    2    3    3    0    0 -0.71005639594E+02  0.51722352324E+02  0.50784412377E+02  0.12951797598E+03  0.80491285099E+02 0.  0.
          6    2    1    2  501    0  0.45860293623E+02 -0.27903768225E+01  0.18678012182E+04  0.18764348796E+04  0.17382610246E+03 0.  0.
         24    2    5    5    0    0 -0.84418716027E+01 -0.57742534385E+02  0.12179640329E+04  0.12220046525E+04  0.80333802014E+02 0.  0.
          5    1    5    5  501    0  0.54302165225E+02  0.54952157562E+02  0.64983718530E+03  0.65443022712E+03  0.47000000000E+01 0. -1.
        -13    1    6    6    0    0  0.21591717666E+02 -0.12924098436E+02  0.82164988374E+03  0.82203513674E+03  0.00000000000E+00 0.  1.
         14    1    6    6    0    0 -0.30033589269E+02 -0.44818435949E+02  0.39631414919E+03  0.39996951575E+03  0.00000000000E+00 0. -1.
         -5    1    3    3    0  503  0.25145345971E+02 -0.48931975501E+02 -0.10277954882E+01  0.55224750013E+02  0.47000000000E+01 0.  1.
         13    1    4    4    0    0  0.59373725911E+01  0.40731547890E+02  0.21689066312E+02  0.46526626616E+02  0.00000000000E+00 0. -1.
        -14    1    4    4    0    0 -0.76943012185E+02  0.10990804433E+02  0.29095346065E+02  0.82991349362E+02  0.00000000000E+00 0.  1.
</event>
<event>
12    1  0.8684423E-002  0.1860963E+03  0.7818608E-02  0.1162887E+00
         21   -1    0    0  503  502  0.00000000000E+00  0.00000000000E+00  0.33377863696E+03  0.33377863696E+03  0.00000000000E+00 0. -1.
         21   -1    0    0  501  503 -0.00000000000E+00 -0.00000000000E+00 -0.40851867696E+03  0.40851867696E+03  0.00000000000E+00 0. -1.
          6    2    1    2  501    0  0.16249164374E+02  0.57906315459E+02 -0.35909436221E+03  0.40445096380E+03  0.17610975112E+03 0.  0.
         24    2    3    3    0    0  0.33674257004E+01  0.55884606686E+02 -0.37214686663E+03  0.38541194152E+03  0.83154347467E+02 0.  0.
         -6    2    1    2    0  502 -0.16249164374E+02 -0.57906315459E+02  0.28435432220E+03  0.33784635012E+03  0.17223704312E+03 0.  0.
        -24    2    5    5    0    0  0.50238657740E+02 -0.60042093554E+02  0.21198467287E+03  0.23943574001E+03  0.79139094847E+02 0.  0.
          5    1    3    3  501    0  0.12881738673E+02  0.20217087731E+01  0.13052504426E+02  0.19039022281E+02  0.47000000000E+01 0. -1.
        -13    1    4    4    0    0 -0.13724666260E+01 -0.98840061593E+01 -0.29970529681E+01  0.10419192334E+02  0.00000000000E+00 0.  1.
         14    1    4    4    0    0  0.47398923263E+01  0.65768612846E+02 -0.36914981367E+03  0.37499274919E+03  0.00000000000E+00 0. -1.
         -5    1    5    5    0  502 -0.66487822114E+02  0.21357780947E+01  0.72369649331E+02  0.98410610108E+02  0.47000000000E+01 0.  1.
         13    1    6    6    0    0  0.42571438502E+02 -0.12066710344E+01  0.13899083829E+03  0.14536931092E+03  0.00000000000E+00 0. -1.
        -14    1    6    6    0    0  0.76672192378E+01 -0.58835422520E+02  0.72993834582E+02  0.94066429086E+02  0.00000000000E+00 0.  1.
</event>
<event>
12    1  0.8684423E-002  0.1851492E+03  0.7818608E-02  0.1164265E+00
         21   -1    0    0  501  502  0.00000000000E+00  0.00000000000E+00  0.16120692376E+04  0.16120692376E+04  0.00000000000E+00 0.  1.
         21   -1    0    0  502  503 -0.00000000000E+00 -0.00000000000E+00 -0.30678151101E+02  0.30678151101E+02  0.00000000000E+00 0.  1.
         -6    2    1    2    0  503  0.25761657638E+02  0.40475960223E+02  0.31196651660E+03  0.35989160048E+03  0.17290717237E+03 0.  0.
        -24    2    3    3    0    0 -0.35464377543E+02 -0.22049247777E+02  0.14568825455E+03  0.17193261706E+03  0.81190306640E+02 0.  0.
          6    2    1    2  501    0 -0.25761657638E+02 -0.40475960223E+02  0.12694245699E+04  0.12828557882E+04  0.17882468607E+03 0.  0.
         24    2    5    5    0    0  0.21231623193E+02  0.38279581478E+02  0.53468659977E+03  0.54240134766E+03  0.79958450408E+02 0.  0.
          5    1    5    5  501    0 -0.46993280831E+02 -0.78755541701E+02  0.73473797011E+03  0.74045444054E+03  0.47000000000E+01 0. -1.
        -13    1    6    6    0    0 -0.29028731452E+02  0.53050954601E+01  0.22578821857E+03  0.22770843404E+03  0.00000000000E+00 0.  1.
         14    1    6    6    0    0  0.50260354645E+02  0.32974486018E+02  0.30889838119E+03  0.31469291362E+03  0.00000000000E+00 0. -1.
         -5    1    3    3    0  503  0.61226035180E+02  0.62525208000E+02  0.16627826204E+03  0.18795898342E+03  0.47000000000E+01 0.  1.
         13    1    4    4    0    0 -0.25588265441E+02 -0.54026303242E+01  0.12277812148E+01  0.26181199159E+02  0.00000000000E+00 0. -1.
        -14    1    4    4    0    0 -0.98761121015E+01 -0.16646617452E+02  0.14446047334E+03  0.14575141790E+03  0.00000000000E+00 0.  1.
</event>
<event>
12    1  0.8684423E-002  0.2118942E+03  0.7818608E-02  0.1140100E+00
         21   -1    0    0  503  502  0.00000000000E+00  0.00000000000E+00  0.24267908299E+03  0.24267908299E+03  0.00000000000E+00 0.  1.
         21   -1    0    0  501  503 -0.00000000000E+00 -0.00000000000E+00 -0.29984783065E+03  0.29984783065E+03  0.00000000000E+00 0.  1.
          6    2    1    2  501    0  0.17440215621E+02 -0.12250395778E+03 -0.19654283582E+03  0.28901254246E+03  0.17201099556E+03 0.  0.
         24    2    3    3    0    0  0.46197217567E+02 -0.97816926728E+02 -0.20884311349E+03  0.24889021085E+03  0.81415950150E+02 0.  0.
         -6    2    1    2    0  502 -0.17440215621E+02  0.12250395778E+03  0.13937408817E+03  0.25351437118E+03  0.17185173595E+03 0.  0.
        -24    2    5    5    0    0 -0.71518911394E+02  0.11701443606E+03  0.10626910273E+03  0.18969689516E+03  0.76710213821E+02 0.  0.
          5    1    3    3  501    0 -0.28757001946E+02 -0.24687031049E+02  0.12300277668E+02  0.40122331608E+02  0.47000000000E+01 0. -1.
        -13    1    4    4    0    0  0.48482166662E+02 -0.12567652821E+02 -0.79688301015E+02  0.94120623140E+02  0.00000000000E+00 0.  1.
         14    1    4    4    0    0 -0.22849490948E+01 -0.85249273907E+02 -0.12915481247E+03  0.15476958771E+03  0.00000000000E+00 0. -1.
         -5    1    5    5    0  502  0.54078695773E+02  0.54895217210E+01  0.33104985439E+02  0.63817476025E+02  0.47000000000E+01 0.  1.
         11    1    6    6    0    0 -0.93351781111E+01  0.88036546180E+02  0.60337697484E+02  0.10713643989E+03  0.00000000000E+00 0. -1.
        -12    1    6    6    0    0 -0.62183733283E+02  0.28977889877E+02  0.45931405244E+02  0.82560455270E+02  0.00000000000E+00 0.  1.
</event>
<event>
12    1  0.8684423E-002  0.1751361E+03  0.7818608E-02  0.1172947E+00
         21   -1    0    0  501  502  0.00000000000E+00  0.00000000000E+00  0.11221389356E+03  0.11221389356E+03  0.00000000000E+00 0. -1.
         21   -1    0    0  502  503 -0.00000000000E+00 -0.00000000000E+00 -0.38178485280E+03  0.38178485280E+03  0.00000000000E+00 0. -1.
         -6    2    1    2    0  503 -0.24600353349E+02  0.19411320989E+02 -0.26812380598E+03  0.32025464512E+03  0.17230985354E+03 0.  0.
        -24    2    3    3    0    0 -0.47995657975E+02 -0.22992809372E+02 -0.25208714403E+03  0.26902267194E+03  0.77414581077E+02 0.  0.
          6    2    1    2  501    0  0.24600353349E+02 -0.19411320989E+02 -0.14471532594E+01  0.17374410124E+03  0.17088868217E+03 0.  0.
         24    2    5    5    0    0  0.30225894535E+02  0.45329084289E+02 -0.32719097313E+02  0.10147383575E+03  0.79107960594E+02 0.  0.
          5    1    5    5  501    0 -0.56255411856E+01 -0.64740405278E+02  0.31271944054E+02  0.72270265491E+02  0.47000000000E+01 0. -1.
        -13    1    6    6    0    0 -0.16224783975E+02 -0.70724299237E+01  0.91101834576E+01  0.19906238286E+02  0.00000000000E+00 0.  1.
         14    1    6    6    0    0  0.46450678510E+02  0.52401514213E+02 -0.41829280771E+02  0.81567597461E+02  0.00000000000E+00 0. -1.
         -5    1    3    3    0  503  0.23395304625E+02  0.42404130361E+02 -0.16036661943E+02  0.51231973185E+02  0.47000000000E+01 0.  1.
         13    1    4    4    0    0 -0.47901256682E+02 -0.19512562359E+02 -0.70689021641E+02  0.87591142601E+02  0.00000000000E+00 0. -1.
        -14    1    4    4    0    0 -0.94401293302E-01 -0.34802470130E+01 -0.18139812239E+03  0.18143152934E+03  0.00000000000E+00 0.  1.
</event>
<event>
12    1  0.8684423E-002  0.1924109E+03  0.7818608E-02  0.1156377E+00
         21   -1    0    0  503  502  0.00000000000E+00  0.00000000000E+00  0.22143551220E+03  0.22143551220E+03  0.00000000000E+00 0.  1.
         21   -1    0    0  501  503 -0.00000000000E+00 -0.00000000000E+00 -0.50550299497E+03  0.50550299497E+03  0.00000000000E+00 0.  1.
          6    2    1    2  501    0  0.80354679061E+02 -0.29196176086E+02 -0.43946664160E+03  0.47961106081E+03  0.17200741096E+03 0.  0.
         24    2    3    3    0    0  0.96409286737E+02  0.13916628631E+02 -0.39729535869E+03  0.41702534790E+03  0.81105583226E+02 0.  0.
         -6    2    1    2    0  502 -0.80354679061E+02  0.29196176086E+02  0.15539915884E+03  0.24732744636E+03  0.17237365230E+03 0.  0.
        -24    2    5    5    0    0 -0.17074613076E+02  0.45957003680E+01  0.38772905296E+01  0.81223512830E+02  0.79180570729E+02 0.  0.
          5    1    3    3  501    0 -0.16054607676E+02 -0.43112804717E+02 -0.42171282910E+02  0.62585712910E+02  0.47000000000E+01 0. -1.
        -11    1    4    4    0    0  0.21162275147E+02 -0.23708421195E+02 -0.46768807586E+02  0.56544252475E+02  0.00000000000E+00 0.  1.
         12    1    4    4    0    0  0.75247011590E+02  0.37625049826E+02 -0.35052655111E+03  0.36048109543E+03  0.00000000000E+00 0. -1.
         -5    1    5    5    0  502 -0.63280065985E+02  0.24600475718E+02  0.15152186831E+03  0.16610393353E+03  0.47000000000E+01 0.  1.
         11    1    6    6    0    0 -0.15779255096E+02  0.38214938201E+02 -0.13322238561E+02  0.43437868656E+02  0.00000000000E+00 0. -1.
        -12    1    6    6    0    0 -0.12953579796E+01 -0.33619237833E+02  0.17199529090E+02  0.37785644174E+02  0.00000000000E+00 0.  1.
</event>
<event>
12    1  0.8684423E-002  0.1911146E+03  0.7818608E-02  0.1157653E+00
         21   -1    0    0  503  502  0.00000000000E+00  0.00000000000E+00  0.37003218682E+03  0.37003218682E+03  0.00000000000E+00 0. -1.
         21   -1    0    0  501  503 -0.00000000000E+00 -0.00000000000E+00 -0.16135877987E+03  0.16135877987E+03  0.00000000000E+00 0. -1.
          6    2    1    2  501    0 -0.81071265080E+02 -0.15062306285E+02 -0.61951361050E+02  0.20008666499E+03  0.17145634803E+03 0.  0.
         24    2    3    3    0    0  0.86151918051E+01  0.30012463704E+02 -0.75534820356E+01  0.85821120409E+02  0.79581656869E+02 0.  0.
         -6    2    1    2    0  502  0.81071265080E+02  0.15062306285E+02  0.27062476800E+03  0.33130430170E+03  0.17241041784E+03 0.  0.
        -24    2    5    5    0    0  0.12053796271E+03  0.25047591489E+02  0.18890310884E+03  0.23988304751E+03  0.81870077922E+02 0.  0.
          5    1    3    3  501    0 -0.89686456885E+02 -0.45074769988E+02 -0.54397879014E+02  0.11426554459E+03  0.47000000000E+01 0. -1.
        -11    1    4    4    0    0 -0.10049326954E+02  0.30604591175E+02  0.29912713813E+02  0.43959076660E+02  0.00000000000E+00 0.  1.
         12    1    4    4    0    0  0.18664518759E+02 -0.59212747108E+00 -0.37466195848E+02  0.41862043748E+02  0.00000000000E+00 0. -1.
         -5    1    5    5    0  502 -0.39466697631E+02 -0.99852852043E+01  0.81721659162E+02  0.91421254195E+02  0.47000000000E+01 0.  1.
         11    1    6    6    0    0  0.67585726580E+02 -0.21100236233E+01  0.16004841901E+03  0.17374630662E+03  0.00000000000E+00 0. -1.
        -12    1    6    6    0    0  0.52952236131E+02  0.27157615112E+02  0.28854689826E+02  0.66136740885E+02  0.00000000000E+00 0.  1.
</event>
<event>
12    1  0.8684423E-002  0.2085002E+03  0.7818608E-02  0.1143319E+00
         21   -1    0    0  503  502  0.00000000000E+00  0.00000000000E+00  0.15372721186E+03  0.15372721186E+03  0.00000000000E+00 0.  1.
         21   -1    0    0  501  503 -0.00000000000E+00 -0.00000000000E+00 -0.30505960454E+03  0.30505960454E+03  0.00000000000E+00 0. -1.
          6    2    1    2  501    0 -0.87700482093E+01  0.11594554036E+03 -0.91263261073E+01  0.20869984899E+03  0.17306662031E+03 0.  0.
         24    2    3    3    0    0 -0.49266219920E+02  0.44504083268E+02  0.41670862749E+02  0.11202376038E+03  0.80031795143E+02 0.  0.
         -6    2    1    2    0  502  0.87700482093E+01 -0.11594554036E+03 -0.14220606657E+03  0.25008696740E+03  0.16970752435E+03 0.  0.
        -24    2    5    5    0    0  0.50613942167E+02 -0.54151315654E+02 -0.13543601660E+03  0.17500460433E+03  0.82398791337E+02 0.  0.
          5    1    3    3  501    0  0.40496171711E+02  0.71441457092E+02 -0.50797188857E+02  0.96676088617E+02  0.47000000000E+01 0. -1.
        -13    1    4    4    0    0 -0.24390704959E+02 -0.21854717674E+02  0.88485530590E+01  0.33923915815E+02  0.00000000000E+00 0.  1.
         14    1    4    4    0    0 -0.24875514962E+02  0.66358800942E+02  0.32822309690E+02  0.78099844561E+02  0.00000000000E+00 0. -1.
         -5    1    5    5    0  502 -0.41843893958E+02 -0.61794224705E+02 -0.67700499634E+01  0.75082363075E+02  0.47000000000E+01 0.  1.
         11    1    6    6    0    0 -0.31419412318E+01  0.19068685843E+02 -0.31640812843E+02  0.37075970815E+02  0.00000000000E+00 0. -1.
        -12    1    6    6    0    0  0.53755883399E+02 -0.73220001497E+02 -0.10379520376E+03  0.13792863351E+03  0.00000000000E+00 0.  1.
</event>
<event>
12    1  0.8684423E-002  0.1947077E+03  0.7818608E-02  0.1154957E+00
         21   -1    0    0  503  502  0.00000000000E+00  0.00000000000E+00  0.22034903995E+03  0.22034903995E+03  0.00000000000E+00 0.  1.
         21   -1    0    0  501  503 -0.00000000000E+00 -0.00000000000E+00 -0.17734747984E+03  0.17734747984E+03  0.00000000000E+00 0.  1.
          6    2    1    2  501    0 -0.78397190804E+02  0.44506902397E+02  0.63876513875E+02  0.20491780578E+03  0.17258074693E+03 0.  0.
         24    2    3    3    0    0 -0.10754924523E+03  0.17735060431E+01  0.70063716073E+02  0.15260760685E+03  0.82523765577E+02 0.  0.
         -6    2    1    2    0  502  0.78397190804E+02 -0.44506902397E+02 -0.20874953767E+02  0.19277871401E+03  0.16911796177E+03 0.  0.
        -24    2    5    5    0    0 -0.15700832687E+02 -0.50797698808E+02  0.43722341954E+01  0.95036590828E+02  0.78650586858E+02 0.  0.
          5    1    3    3  501    0  0.29152054422E+02  0.42733396354E+02 -0.61872021981E+01  0.52310198929E+02  0.47000000000E+01 0. -1.
        -11    1    4    4    0    0 -0.97699715806E+02  0.30475454066E+02  0.39970363420E+02  0.10987091390E+03  0.00000000000E+00 0.  1.
         12    1    4    4    0    0 -0.98495294194E+01 -0.28701948023E+02  0.30093352653E+02  0.42736692946E+02  0.00000000000E+00 0. -1.
         -5    1    5    5    0  502  0.94098023491E+02  0.62907964105E+01 -0.25247187963E+02  0.97742123183E+02  0.47000000000E+01 0.  1.
         13    1    6    6    0    0  0.16961532733E+02  0.31554606484E+01 -0.20892237550E+02  0.27094946289E+02  0.00000000000E+00 0. -1.
        -14    1    6    6    0    0 -0.32662365420E+02 -0.53953159456E+02  0.25264471745E+02  0.67941644539E+02  0.00000000000E+00 0.  1.
</event>
<event>
12    1  0.8684423E-002  0.2542416E+03  0.7818608E-02  0.1110754E+00
         21   -1    0    0  501  502  0.00000000000E+00  0.00000000000E+00  0.28885734144E+03  0.28885734144E+03  0.00000000000E+00 0.  1.
         21   -1    0    0  502  503 -0.00000000000E+00 -0.00000000000E+00 -0.23123783875E+03  0.23123783875E+03  0.00000000000E+00 0. -1.
         -6    2    1    2    0  503 -0.16595217642E+03  0.83766427633E+02  0.77247297182E+02  0.26509707336E+03  0.17248876521E+03 0.  0.
        -24    2    3    3    0    0 -0.76261380644E+02  0.11187434794E+03  0.56225802361E+02  0.16866840918E+03  0.83402778722E+02 0.  0.
          6    2    1    2  501    0  0.16595217642E+03 -0.83766427633E+02 -0.19627794496E+02  0.25499810683E+03  0.17344118576E+03 0.  0.
         24    2    5    5    0    0  0.81064114228E+02  0.24244915114E+02 -0.15834821384E+02  0.11748843478E+03  0.79959891281E+02 0.  0.
          5    1    5    5  501    0  0.84888062188E+02 -0.10801134275E+03 -0.37929731112E+01  0.13750967206E+03  0.47000000000E+01 0. -1.
        -11    1    6    6    0    0  0.65989840926E+02  0.27434373450E+02 -0.45035566583E+02  0.84471925570E+02  0.00000000000E+00 0.  1.
         12    1    6    6    0    0  0.15074273302E+02 -0.31894583363E+01  0.29200745199E+02  0.33016509207E+02  0.00000000000E+00 0. -1.
         -5    1    3    3    0  503 -0.89690795771E+02 -0.28107920312E+02  0.21021494821E+02  0.96428664176E+02  0.47000000000E+01 0.  1.
         11    1    4    4    0    0 -0.73148665634E+02  0.39708371488E+02  0.12320130831E+02  0.84138384070E+02  0.00000000000E+00 0. -1.
        -12    1    4    4    0    0 -0.31127150105E+01  0.72165976456E+02  0.43905671530E+02  0.84530025110E+02  0.00000000000E+00 0.  1.
</event>
<event>
12    1  0.8684423E-002  0.1879578E+03  0.7818608E-02  0.1160431E+00
         21   -1    0    0  503  502  0.00000000000E+00  0.00000000000E+00  0.39014343343E+03  0.39014343343E+03  0.00000000000E+00 0.  1.
         21   -1    0    0  501  503 -0.00000000000E+00 -0.00000000000E+00 -0.31911281765E+03  0.31911281765E+03  0.00000000000E+00 0.  1.
          6    2    1    2  501    0 -0.42844016839E+02 -0.62282301806E+02 -0.26475420850E+03  0.32468896423E+03  0.17208555337E+03 0.  0.
         24    2    3    3    0    0  0.11280136088E+02 -0.46561621300E+02 -0.63839499150E+02  0.11596576437E+03  0.84126992143E+02 0.  0.
         -6    2    1    2    0  502  0.42844016839E+02  0.62282301806E+02  0.33578482428E+03  0.38456728684E+03  0.17153966013E+03 0.  0.
        -24    2    5    5    0    0  0.69402357517E+02  0.54799647316E+02  0.33594400946E+03  0.35657709360E+03  0.80431073686E+02 0.  0.
          5    1    3    3  501    0 -0.54124152927E+02 -0.15720680506E+02 -0.20091470935E+03  0.20872319986E+03  0.47000000000E+01 0. -1.
        -11    1    4    4    0    0 -0.47861326410E+01 -0.61645751057E+02 -0.69689341618E+02  0.93164961355E+02  0.00000000000E+00 0.  1.
         12    1    4    4    0    0  0.16066268729E+02  0.15084129758E+02  0.58498424684E+01  0.22800803019E+02  0.00000000000E+00 0. -1.
         -5    1    5    5    0  502 -0.26558340678E+02  0.74826544902E+01 -0.15918518130E+00  0.27990193242E+02  0.47000000000E+01 0.  1.
         11    1    6    6    0    0  0.13308527000E+01  0.28911670356E+02  0.28478090009E+02  0.40603663163E+02  0.00000000000E+00 0. -1.
        -12    1    6    6    0    0  0.68071504817E+02  0.25887976960E+02  0.30746591945E+03  0.31597343044E+03  0.00000000000E+00 0.  1.
</event>
<event>
12    1  0.8684423E-002  0.2348345E+03  0.7818608E-02  0.1124280E+00
         21   -1    0    0  501  502  0.00000000000E+00  0.00000000000E+00  0.13670420553E+03  0.13670420553E+03  0.00000000000E+00 0.  1.
         21   -1    0    0  502  503 -0.00000000000E+00 -0.00000000000E+00 -0.39534286475E+03  0.39534286475E+03  0.00000000000E+00 0. -1.
         -6    2    1    2    0  503 -0.20796470538E+02  0.15289119486E+03 -0.14861938024E+03  0.27791177764E+03  0.17702831784E+03 0.  0.
        -24    2    3    3    0    0 -0.59825545576E+02  0.10461522775E+03 -0.16059643780E+03  0.21451321609E+03  0.75506703430E+02 0.  0.
          6    2    1    2  501    0  0.20796470538E+02 -0.15289119486E+03 -0.11001927898E+03  0.25413529264E+03  0.16932895370E+03 0.  0.
         24    2    5    5    0    0  0.41062102171E+02 -0.74122040295E+02 -0.12411760088E+03  0.17145441083E+03  0.82530376537E+02 0.  0.
          5    1    5    5  501    0 -0.20265631633E+02 -0.78769154566E+02  0.14098321898E+02  0.82680881809E+02  0.47000000000E+01 0. -1.
        -13    1    6    6    0    0  0.65484290240E+02 -0.48356162705E+02 -0.73822611534E+02  0.10989216857E+03  0.00000000000E+00 0.  1.
         14    1    6    6    0    0 -0.24422188068E+02 -0.25765877591E+02 -0.50294989348E+02  0.61562242256E+02  0.00000000000E+00 0. -1.
         -5    1    3    3    0  503  0.39029075038E+02  0.48275967110E+02  0.11977057561E+02  0.63398561549E+02  0.47000000000E+01 0.  1.
         11    1    4    4    0    0 -0.64510733478E+01  0.64744269557E+02 -0.11997829053E+03  0.13648526289E+03  0.00000000000E+00 0. -1.
        -12    1    4    4    0    0 -0.53374472229E+02  0.39870958195E+02 -0.40618147269E+02  0.78027953200E+02  0.00000000000E+00 0.  1.
</event>
<event>
12    1  0.8684423E-002  0.1805424E+03  0.7818608E-02  0.1167380E+00
         21   -1    0    0  501  502  0.00000000000E+00  0.00000000000E+00  0.80853900152E+02  0.80853900152E+02  0.00000000000E+00 0.  1.
         21   -1    0    0  502  503 -0.00000000000E+00 -0.00000000000E+00 -0.17142382960E+04  0.17142382960E+04  0.00000000000E+00 0.  1.
         -6    2    1    2    0  503 -0.35408416902E+02  0.39265329002E+02 -0.16021386463E+04  0.16122790752E+04  0.17262691622E+03 0.  0.
        -24    2    3    3    0    0 -0.73870135003E+02  0.57396597675E+02 -0.14013159675E+04  0.14069503510E+04  0.84093299580E+02 0.  0.
          6    2    1    2  501    0  0.35408416902E+02 -0.39265329002E+02 -0.31245749512E+02  0.18281312095E+03  0.17218832213E+03 0.  0.
         24    2    5    5    0    0  0.56655232652E+02 -0.84741078688E+02 -0.20527851298E+02  0.13127251239E+03  0.80126238057E+02 0.  0.
          5    1    5    5  501    0 -0.21246815750E+02  0.45475749686E+02 -0.10717898214E+02  0.51540608564E+02  0.47000000000E+01 0. -1.
        -13    1    6    6    0    0  0.67913384857E+02 -0.32841687855E+02 -0.20472612376E+02  0.78166055046E+02  0.00000000000E+00 0.  1.
         14    1    6    6    0    0 -0.11258152205E+02 -0.51899390833E+02 -0.55238922416E-01  0.53106457340E+02  0.00000000000E+00 0. -1.
         -5    1    3    3    0  503  0.38461718101E+02 -0.18131268673E+02 -0.20082267882E+03  0.20532872422E+03  0.47000000000E+01 0.  1.
         13    1    4    4    0    0 -0.76191255819E+02  0.11174637415E+02 -0.73301153458E+03  0.73704537839E+03  0.00000000000E+00 0. -1.
        -14    1    4    4    0    0  0.23211208154E+01  0.46221960260E+02 -0.66830443292E+03  0.66990497257E+03  0.00000000000E+00 0.  1.
</event>
<event>
12    1  0.8684423E-002  0.2128931E+03  0.7818608E-02  0.1139633E+00
         21   -1    0    0  501  502  0.00000000000E+00  0.00000000000E+00  0.84048352539E+02  0.84048352539E+02  0.00000000000E+00 0. -1.
         21   -1    0    0  502  503 -0.00000000000E+00 -0.00000000000E+00 -0.10360900721E+04  0.10360900721E+04  0.00000000000E+00 0. -1.
         -6    2    1    2    0  503 -0.69711261252E+02  0.96406395956E+02 -0.86655872178E+03  0.89232700152E+03  0.17654916091E+03 0.  0.
        -24    2    3    3    0    0 -0.10080003717E+02  0.12173526815E+03 -0.53185459401E+03  0.55137776514E+03  0.78911651451E+02 0.  0.
          6    2    1    2  501    0  0.69711261252E+02 -0.96406395956E+02 -0.85482997780E+02  0.22781142312E+03  0.17446159597E+03 0.  0.
         24    2    5    5    0    0  0.58377683523E+02 -0.43050889569E+02  0.20038049053E+02  0.10893316030E+03  0.78762789291E+02 0.  0.
          5    1    5    5  501    0  0.11333577729E+02 -0.53355506387E+02 -0.10552104683E+03  0.11887826282E+03  0.47000000000E+01 0. -1.
        -13    1    6    6    0    0 -0.45877380780E+00  0.78714995550E+00 -0.23564956631E+02  0.23582562615E+02  0.00000000000E+00 0.  1.
         14    1    6    6    0    0  0.58836457331E+02 -0.43838039524E+02  0.43603005684E+02  0.85350597685E+02  0.00000000000E+00 0. -1.
         -5    1    3    3    0  503 -0.59631257535E+02 -0.25328872189E+02 -0.33470412777E+03  0.34094923638E+03  0.47000000000E+01 0.  1.
         13    1    4    4    0    0 -0.23652105461E+02  0.41419676474E+02 -0.33436313559E+03  0.33774800982E+03  0.00000000000E+00 0. -1.
        -14    1    4    4    0    0  0.13572101744E+02  0.80315591671E+02 -0.19749145842E+03  0.21362975533E+03  0.00000000000E+00 0.  1.
</event>
<event>
12    1  0.8684423E-002  0.2045731E+03  0.7818608E-02  0.1146044E+00
         21   -1    0    0  501  502  0.00000000000E+00  0.00000000000E+00  0.50801799273E+02  0.50801799273E+02  0.00000000000E+00 0.  1.
         21   -1    0    0  502  503 -0.00000000000E+00 -0.00000000000E+00 -0.91554471383E+03  0.91554471383E+03  0.00000000000E+00 0.  1.
         -6    2    1    2    0  503  0.93936682950E+02  0.57623744945E+02 -0.58657701164E+03  0.62105473626E+03  0.17173176308E+03 0.  0.
        -24    2    3    3    0    0  0.45604559621E+02 -0.22632715355E+02 -0.41188236073E+03  0.42276856774E+03  0.80586395435E+02 0.  0.
          6    2    1    2  501    0 -0.93936682950E+02 -0.57623744945E+02 -0.27816590291E+03  0.34529177685E+03  0.17235296699E+03 0.  0.
         24    2    5    5    0    0 -0.86824142556E+02  0.76247188740E+01 -0.24429727304E+03  0.27128418027E+03  0.79481952558E+02 0.  0.
          5    1    5    5  501    0 -0.71125403935E+01 -0.65248463819E+02 -0.33868629875E+02  0.74007596578E+02  0.47000000000E+01 0. -1.
        -11    1    6    6    0    0 -0.72489232765E+02 -0.13883498631E+02 -0.23040930709E+03  0.24194191285E+03  0.00000000000E+00 0.  1.
         12    1    6    6    0    0 -0.14334909791E+02  0.21508217505E+02 -0.13887965946E+02  0.29342267416E+02  0.00000000000E+00 0. -1.
         -5    1    3    3    0  503  0.48332123329E+02  0.80256460300E+02 -0.17469465091E+03  0.19828616851E+03  0.47000000000E+01 0.  1.
         11    1    4    4    0    0 -0.98822980246E+01  0.62757552235E+01 -0.23238461218E+03  0.23267929194E+03  0.00000000000E+00 0. -1.
        -12    1    4    4    0    0  0.55486857645E+02 -0.28908470578E+02 -0.17949774855E+03  0.19008927580E+03  0.00000000000E+00 0.  1.
</event>
<event>
12    1  0.8684423E-002  0.1736067E+03  0.7818608E-02  0.1174181E+00
         21   -1    0    0  503  502  0.00000000000E+00  0.00000000000E+00  0.81265760986E+02  0.81265760986E+02  0.00000000000E+00 0. -1.
         21   -1    0    0  501  503 -0.00000000000E+00 -0.00000000000E+00 -0.86113541175E+03  0.86113541175E+03  0.00000000000E+00 0. -1.
          6    2    1    2  501    0 -0.16404936162E+02 -0.18280155188E+02 -0.74552075147E+03  0.76542904103E+03  0.17168907940E+03 0.  0.
         24    2    3    3    0    0 -0.37663120175E+02 -0.18598930395E+02 -0.19607189325E+03  0.21554891792E+03  0.79074128880E+02 0.  0.
         -6    2    1    2    0  502  0.16404936162E+02  0.18280155188E+02 -0.34348899292E+02  0.17697213170E+03  0.17186041578E+03 0.  0.
        -24    2    5    5    0    0  0.25196917905E+02  0.10884277403E+02  0.46137277404E+02  0.95534348143E+02  0.79024117473E+02 0.  0.
          5    1    3    3  501    0  0.21258184013E+02  0.31877520705E+00 -0.54944885822E+03  0.54988012312E+03  0.47000000000E+01 0. -1.
        -13    1    4    4    0    0  0.24753991947E+02 -0.28472646316E+01 -0.47767968837E+02  0.53876208850E+02  0.00000000000E+00 0.  1.
         14    1    4    4    0    0 -0.62417112122E+02 -0.15751665764E+02 -0.14830392441E+03  0.16167270907E+03  0.00000000000E+00 0. -1.
         -5    1    5    5    0  502 -0.87919817425E+01  0.73958777854E+01 -0.80486176696E+02  0.81437783555E+02  0.47000000000E+01 0.  1.
         13    1    6    6    0    0 -0.22756418775E+02 -0.24229764179E+01 -0.57944590803E+01  0.23607226991E+02  0.00000000000E+00 0. -1.
        -14    1    6    6    0    0  0.47953336680E+02  0.13307253821E+02  0.51931736484E+02  0.71927121152E+02  0.00000000000E+00 0.  1.
</event>
<event>
12    1  0.8684423E-002  0.2043186E+03  0.7818608E-02  0.1146570E+00
         21   -1    0    0  501  502  0.00000000000E+00  0.00000000000E+00  0.78065107788E+03  0.78065107788E+03  0.00000000000E+00 0. -1.
         21   -1    0    0  502  503 -0.00000000000E+00 -0.00000000000E+00 -0.55297869762E+02  0.55297869762E+02  0.00000000000E+00 0. -1.
         -6    2    1    2    0  503 -0.23785208755E+02  0.10452528878E+03  0.27460283176E+03  0.34105301558E+03  0.17152017980E+03 0.  0.
        -24    2    3    3    0    0 -0.58138414187E+01  0.12484901818E+03  0.14110543417E+03  0.20474575538E+03  0.79931237328E+02 0.  0.
          6    2    1    2  501    0  0.23785208755E+02 -0.10452528878E+03  0.45075037636E+03  0.49489593206E+03  0.17393909748E+03 0.  0.
         24    2    5    5    0    0  0.48551522126E+02 -0.13273564173E+03  0.31097657045E+03  0.35009261335E+03  0.76696868692E+02 0.  0.
          5    1    5    5  501    0 -0.24766313371E+02  0.28210352948E+02  0.13977380591E+03  0.14480331871E+03  0.47000000000E+01 0. -1.
        -11    1    6    6    0    0 -0.27857835214E+01 -0.29684048659E+02  0.16874707271E+02  0.34258708091E+02  0.00000000000E+00 0.  1.
         12    1    6    6    0    0  0.51337305647E+02 -0.10305159307E+03  0.29410186318E+03  0.31583390526E+03  0.00000000000E+00 0. -1.
         -5    1    3    3    0  503 -0.17971367336E+02 -0.20323729401E+02  0.13349739759E+03  0.13630726020E+03  0.47000000000E+01 0.  1.
         11    1    4    4    0    0 -0.85689678038E+01  0.13587256022E+02  0.71934162019E+02  0.73705931925E+02  0.00000000000E+00 0. -1.
        -12    1    4    4    0    0  0.27551263850E+01  0.11126176216E+03  0.69171272150E+02  0.13103982346E+03  0.00000000000E+00 0.  1.
</event>
<event>
12    1  0.8684423E-002  0.1877985E+03  0.7818608E-02  0.1160835E+00
         21   -1    0    0  503  502  0.00000000000E+00  0.00000000000E+00  0.22291053881E+03  0.22291053881E+03  0.00000000000E+00 0.  1.
         21   -1    0    0  501  503 -0.00000000000E+00 -0.00000000000E+00 -0.17829141938E+03  0.17829141938E+03  0.00000000000E+00 0.  1.
          6    2    1    2  501    0 -0.71857493417E+02 -0.76155081877E+01 -0.47335120189E+02  0.19209941200E+03  0.17158110374E+03 0.  0.
         24    2    3    3    0    0 -0.12483999049E+02 -0.47825964465E+02 -0.68503440075E+02  0.11718425736E+03  0.81217336580E+02 0.  0.
         -6    2    1    2    0  502  0.71857493417E+02  0.76155081877E+01  0.91954239624E+02  0.20910254619E+03  0.17334012032E+03 0.  0.
        -24    2    5    5    0    0 -0.80984481437E+00 -0.17362427708E+02 -0.90327665338E+01  0.82118670285E+02  0.79748199939E+02 0.  0.
          5    1    3    3  501    0 -0.59373494369E+02  0.40210456277E+02  0.21168319886E+02  0.74915154637E+02  0.47000000000E+01 0. -1.
        -13    1    4    4    0    0 -0.42332775810E+02 -0.16988778469E+02 -0.13803043282E+02  0.47657176852E+02  0.00000000000E+00 0.  1.
         14    1    4    4    0    0  0.29848776762E+02 -0.30837185996E+02 -0.54700396793E+02  0.69527080506E+02  0.00000000000E+00 0. -1.
         -5    1    5    5    0  502  0.72667338232E+02  0.24977935896E+02  0.10098700616E+03  0.12698387591E+03  0.47000000000E+01 0.  1.
         13    1    6    6    0    0 -0.32741142551E+02 -0.22204485944E+02  0.14525883168E+02  0.42142886629E+02  0.00000000000E+00 0. -1.
        -14    1    6    6    0    0  0.31931297737E+02  0.48420582362E+01 -0.23558649702E+02  0.39975783656E+02  0.00000000000E+00 0.  1.
</event>
<event>
12    1  0.8684423E-002  0.2602991E+03  0.7818608E-02  0.1107080E+00
         21   -1    0    0  503  502  0.00000000000E+00  0.00000000000E+00  0.59646586700E+02  0.59646586700E+02  0.00000000000E+00 0.  1.
         21   -1    0    0  501  503 -0.00000000000E+00 -0.00000000000E+00 -0.19885608024E+04  0.19885608024E+04  0.00000000000E+00 0.  1.
          6    2    1    2  501    0 -0.13884296722E+02 -0.19485282400E+03 -0.16355428164E+04  0.16560053721E+04  0.17085985886E+03 0.  0.
         24    2    3    3    0    0  0.20169547426E+00 -0.15608707395E+03 -0.15591489516E+04  0.15690610731E+04  0.81510627491E+02 0.  0.
         -6    2    1    2    0  502  0.13884296722E+02  0.19485282400E+03 -0.29337139925E+03  0.39220201697E+03  0.17203269312E+03 0.  0.
        -24    2    5    5    0    0 -0.20232709000E+02  0.28119400072E+02 -0.13317537267E+03  0.15843105712E+03  0.78515328457E+02 0.  0.
          5    1    3    3  501    0 -0.14085992196E+02 -0.38765750047E+02 -0.76393864814E+02  0.86944299032E+02  0.47000000000E+01 0. -1.
        -13    1    4    4    0    0  0.11145434932E+02 -0.14447157908E+03 -0.10837031853E+04  0.10933475438E+04  0.00000000000E+00 0.  1.
         14    1    4    4    0    0 -0.10943739458E+02 -0.11615494869E+02 -0.47544576634E+03  0.47571352922E+03  0.00000000000E+00 0. -1.
         -5    1    5    5    0  502  0.34117005722E+02  0.16673342393E+03 -0.16019602659E+03  0.23377095985E+03  0.47000000000E+01 0.  1.
         11    1    6    6    0    0 -0.65995378598E+00 -0.20273296938E+02 -0.63051321664E+01  0.21241393537E+02  0.00000000000E+00 0. -1.
        -12    1    6    6    0    0 -0.19572755214E+02  0.48392697011E+02 -0.12687024050E+03  0.13718966359E+03  0.00000000000E+00 0.  1.
</event>
<event>
12    1  0.8684423E-002  0.2128703E+03  0.7818608E-02  0.1142391E+00
         21   -1    0    0  503  502  0.00000000000E+00  0.00000000000E+00  0.45125690150E+03  0.45125690150E+03  0.00000000000E+00 0. -1.
         21   -1    0    0  501  503 -0.00000000000E+00 -0.00000000000E+00 -0.12045857847E+03  0.12045857847E+03  0.00000000000E+00 0. -1.
          6    2    1    2  501    0 -0.86990138657E+02  0.34427960313E+02  0.25165162430E+02  0.19925689024E+03  0.17411908061E+03 0.  0.
         24    2    3    3    0    0 -0.10581634289E+03  0.55775026182E+02 -0.16526430792E+02  0.14855775679E+03  0.86535150200E+02 0.  0.
         -6    2    1    2    0  502  0.86990138657E+02 -0.34427960313E+02  0.30563316060E+03  0.37245858974E+03  0.19120984164E+03 0.  0.
        -24    2    5    5    0    0  0.74236746887E+02  0.48120816352E+02  0.23247053514E+03  0.26131989578E+03  0.80117605236E+02 0.  0.
          5    1    3    3  501    0  0.18826204229E+02 -0.21347065869E+02  0.41691593222E+02  0.50699133447E+02  0.47000000000E+01 0. -1.
        -11    1    4    4    0    0 -0.19104522141E+01  0.36413903883E+02  0.13172273799E+02  0.38770233694E+02  0.00000000000E+00 0.  1.
         12    1    4    4    0    0 -0.10390589067E+03  0.19361122299E+02 -0.29698704591E+02  0.10978752310E+03  0.00000000000E+00 0. -1.
         -5    1    5    5    0  502  0.12753391770E+02 -0.82548776665E+02  0.73162625456E+02  0.11113869395E+03  0.47000000000E+01 0.  1.
         13    1    6    6    0    0  0.82504568278E+02  0.31941245885E+02  0.12998764714E+03  0.15723878461E+03  0.00000000000E+00 0. -1.
        -14    1    6    6    0    0 -0.82678213905E+01  0.16179570467E+02  0.10248288800E+03  0.10408111117E+03  0.00000000000E+00 0.  1.
</event>
<event>
12    1  0.8684423E-002  0.2931827E+03  0.7818608E-02  0.1088831E+00
         21   -1    0    0  503  502  0.00000000000E+00  0.00000000000E+00  0.22609964389E+04  0.22609964389E+04  0.00000000000E+00 0.  1.
         21   -1    0    0  501  503 -0.00000000000E+00 -0.00000000000E+00 -0.16918763811E+03  0.16918763811E+03  0.00000000000E+00 0. -1.
          6    2    1    2  501    0 -0.13098942042E+03 -0.19480883924E+03 -0.24942652326E+02  0.29322530646E+03  0.17392593922E+03 0.  0.
         24    2    3    3    0    0 -0.81822594864E+01 -0.10045202665E+03  0.28047803870E+02  0.12947279409E+03  0.76282147840E+02 0.  0.
         -6    2    1    2    0  502  0.13098942042E+03  0.19480883924E+03  0.21167514531E+04  0.21369587705E+04  0.17563416715E+03 0.  0.
        -24    2    5    5    0    0 -0.34296883176E+01  0.90228858448E+02  0.10374025978E+04  0.10442458574E+04  0.78052873385E+02 0.  0.
          5    1    3    3  501    0 -0.12280716093E+03 -0.94356812592E+02 -0.52990456195E+02  0.16375251237E+03  0.47000000000E+01 0. -1.
        -13    1    4    4    0    0  0.78584963149E+01  0.56792827323E+01  0.19523022256E+02  0.21798133285E+02  0.00000000000E+00 0.  1.
         14    1    4    4    0    0 -0.16040755801E+02 -0.10613130938E+03  0.85247816137E+01  0.10767466081E+03  0.00000000000E+00 0. -1.
         -5    1    5    5    0  502  0.13441910874E+03  0.10457998080E+03  0.10793488552E+04  0.10927129131E+04  0.47000000000E+01 0.  1.
         13    1    6    6    0    0 -0.39861696034E+02  0.34275370302E+02  0.46471436749E+03  0.46767852118E+03  0.00000000000E+00 0. -1.
        -14    1    6    6    0    0  0.36432007717E+02  0.55953488146E+02  0.57268823034E+03  0.57656733622E+03  0.00000000000E+00 0.  1.
</event>
<event>
12    1  0.8684423E-002  0.2064798E+03  0.7818608E-02  0.1145301E+00
         21   -1    0    0  503  502  0.00000000000E+00  0.00000000000E+00  0.94217606317E+03  0.94217606317E+03  0.00000000000E+00 0.  1.
         21   -1    0    0  501  503 -0.00000000000E+00 -0.00000000000E+00 -0.49379651007E+02  0.49379651007E+02  0.00000000000E+00 0.  1.
          6    2    1    2  501    0 -0.51363781131E+02  0.91767153725E+02  0.29138717390E+03  0.35712799027E+03  0.17769205892E+03 0.  0.
         24    2    3    3    0    0  0.98163542229E+01  0.10227030733E+03  0.13229376073E+03  0.18628850621E+03  0.81524179524E+02 0.  0.
         -6    2    1    2    0  502  0.51363781131E+02 -0.91767153725E+02  0.60140923826E+03  0.63442772391E+03  0.17247033508E+03 0.  0.
        -24    2    5    5    0    0 -0.32257105483E+02 -0.12248794229E+02  0.24098290622E+03  0.25595070611E+03  0.79040806247E+02 0.  0.
          5    1    3    3  501    0 -0.61180135354E+02 -0.10503153607E+02  0.15909341317E+03  0.17083948406E+03  0.47000000000E+01 0. -1.
        -13    1    4    4    0    0 -0.70860205042E+01  0.11129892139E+03  0.11814742280E+03  0.16246992061E+03  0.00000000000E+00 0.  1.
         14    1    4    4    0    0  0.16902374727E+02 -0.90286140590E+01  0.14146337933E+02  0.23818585604E+02  0.00000000000E+00 0. -1.
         -5    1    5    5    0  502  0.83620886613E+02 -0.79518359496E+02  0.36042633204E+03  0.37847701780E+03  0.47000000000E+01 0.  1.
         11    1    6    6    0    0  0.22678514231E+02 -0.95743218509E+01  0.12734341754E+03  0.12970091995E+03  0.00000000000E+00 0. -1.
        -12    1    6    6    0    0 -0.54935619714E+02 -0.26744723782E+01  0.11363948869E+03  0.12624978616E+03  0.00000000000E+00 0.  1.
</event>
<event>
12    1  0.8684423E-002  0.2295571E+03  0.7818608E-02  0.1127374E+00
         21   -1    0    0  501  502  0.00000000000E+00  0.00000000000E+00  0.67952396259E+03  0.67952396259E+03  0.00000000000E+00 0.  1.
         21   -1    0    0  502  503 -0.00000000000E+00 -0.00000000000E+00 -0.14634130900E+03  0.14634130900E+03  0.00000000000E+00 0.  1.
         -6    2    1    2    0  503  0.86845037600E+02 -0.12373357244E+03 -0.17439277554E+02  0.23021855845E+03  0.17275531467E+03 0.  0.
        -24    2    3    3    0    0  0.27270491974E+02 -0.34823119957E+02  0.50140450811E+02  0.10355639072E+03  0.79079275635E+02 0.  0.
          6    2    1    2  501    0 -0.86845037600E+02  0.12373357244E+03  0.55062193114E+03  0.59564671315E+03  0.16958313102E+03 0.  0.
         24    2    5    5    0    0 -0.21817045278E+02  0.37319608049E+02  0.95810018419E+02  0.12812989101E+03  0.73273274336E+02 0.  0.
          5    1    5    5  501    0 -0.65027992321E+02  0.86413964393E+02  0.45481191272E+03  0.46751682214E+03  0.47000000000E+01 0. -1.
        -13    1    6    6    0    0 -0.29284741812E+02  0.27016252591E+02  0.10508413885E+03  0.11238394122E+03  0.00000000000E+00 0.  1.
         14    1    6    6    0    0  0.74676965335E+01  0.10303355458E+02 -0.92741204266E+01  0.15745949794E+02  0.00000000000E+00 0. -1.
         -5    1    3    3    0  503  0.59574545626E+02 -0.88910452486E+02 -0.67579728365E+02  0.12666216773E+03  0.47000000000E+01 0.  1.
         11    1    4    4    0    0 -0.53121385287E+01 -0.52630580283E+02  0.23649798291E+02  0.57944022607E+02  0.00000000000E+00 0. -1.
        -12    1    4    4    0    0  0.32582630503E+02  0.17807460326E+02  0.26490652520E+02  0.45612368111E+02  0.00000000000E+00 0.  1.
</event>
<event>
12    1  0.8684423E-002  0.1875979E+03  0.7818608E-02  0.1160793E+00
         21   -1    0    0  503  502  0.00000000000E+00  0.00000000000E+00  0.15342515156E+03  0.15342515156E+03  0.00000000000E+00 0.  1.
         21   -1    0    0  501  503 -0.00000000000E+00 -0.00000000000E+00 -0.10197871526E+04  0.10197871526E+04  0.00000000000E+00 0.  1.
          6    2    1    2  501    0 -0.70807104631E+02  0.79556665773E+01 -0.95003992869E+03  0.96838466147E+03  0.17353975846E+03 0.  0.
         24    2    3    3    0    0 -0.18806145333E+02 -0.32642780131E+01 -0.85776522062E+03  0.86176994075E+03  0.80758469915E+02 0.  0.
         -6    2    1    2    0  502  0.70807104631E+02 -0.79556665773E+01  0.83677927696E+02  0.20482764264E+03  0.17284510092E+03 0.  0.
        -24    2    5    5    0    0  0.42396978448E+02 -0.40889919604E+02 -0.12998531932E+02  0.98713420514E+02  0.78140183327E+02 0.  0.
          5    1    3    3  501    0 -0.52000959298E+02  0.11219944590E+02 -0.92274708071E+02  0.10661472072E+03  0.47000000000E+01 0. -1.
        -13    1    4    4    0    0 -0.29079041753E+02 -0.19571776434E+02 -0.16249253390E+03  0.16623016776E+03  0.00000000000E+00 0.  1.
         14    1    4    4    0    0  0.10272896420E+02  0.16307498421E+02 -0.69527268672E+03  0.69553977299E+03  0.00000000000E+00 0. -1.
         -5    1    5    5    0  502  0.28410126183E+02  0.32934253026E+02  0.96676459628E+02  0.10611422213E+03  0.47000000000E+01 0.  1.
         13    1    6    6    0    0  0.24349323750E+02  0.18975449580E+02 -0.18427106192E+02  0.35951571544E+02  0.00000000000E+00 0. -1.
        -14    1    6    6    0    0  0.18047654698E+02 -0.59865369184E+02  0.54285742601E+01  0.62761848970E+02  0.00000000000E+00 0.  1.
</event>
<event>
12    1  0.8684423E-002  0.1727268E+03  0.7818608E-02  0.1175735E+00
         21   -1    0    0  501  502  0.00000000000E+00  0.00000000000E+00  0.71824519425E+03  0.71824519425E+03  0.00000000000E+00 0. -1.
         21   -1    0    0  502  503 -0.00000000000E+00 -0.00000000000E+00 -0.43041997730E+02  0.43041997730E+02  0.00000000000E+00 0.  1.
         -6    2    1    2    0  503 -0.18878995850E+02  0.19461460092E+02  0.24985570964E+03  0.30220655563E+03  0.16782658225E+03 0.  0.
        -24    2    3    3    0    0 -0.46563713743E+02  0.38800666463E+01  0.25225483321E+03  0.27000299650E+03  0.84177686403E+02 0.  0.
          6    2    1    2  501    0  0.18878995850E+02 -0.19461460092E+02  0.42534748688E+03  0.45908063635E+03  0.17058540725E+03 0.  0.
         24    2    5    5    0    0  0.21642882917E+02 -0.25447339424E+02  0.93137318243E+02  0.12677181016E+03  0.79249923256E+02 0.  0.
          5    1    5    5  501    0 -0.27638870671E+01  0.59858793321E+01  0.33221016864E+03  0.33230882620E+03  0.47000000000E+01 0. -1.
        -13    1    6    6    0    0 -0.16780570756E+02 -0.20526473166E+02  0.67328698381E+00  0.26521255078E+02  0.00000000000E+00 0.  1.
         14    1    6    6    0    0  0.38423453673E+02 -0.49208662580E+01  0.92464031259E+02  0.10025055508E+03  0.00000000000E+00 0. -1.
         -5    1    3    3    0  503  0.27684717893E+02  0.15581393446E+02 -0.23991235660E+01  0.32203559127E+02  0.47000000000E+01 0.  1.
         13    1    4    4    0    0 -0.54396502832E+02 -0.19876515647E+02  0.98801404218E+02  0.11452411480E+03  0.00000000000E+00 0. -1.
        -14    1    4    4    0    0  0.78327890891E+01  0.23756582293E+02  0.15345342899E+03  0.15547888170E+03  0.00000000000E+00 0.  1.
</event>
<event>
12    1  0.8684423E-002  0.2339693E+03  0.7818608E-02  0.1123911E+00
         21   -1    0    0  503  502  0.00000000000E+00  0.00000000000E+00  0.30163022211E+03  0.30163022211E+03  0.00000000000E+00 0. -1.
         21   -1    0    0  501  503 -0.00000000000E+00 -0.00000000000E+00 -0.25186086332E+03  0.25186086332E+03  0.00000000000E+00 0. -1.
          6    2    1    2  501    0  0.39003125759E+02 -0.15331705833E+03 -0.12155458215E+03  0.26366105806E+03  0.17237828431E+03 0.  0.
         24    2    3    3    0    0  0.59095559268E+02 -0.23164700785E+02 -0.59517663789E+02  0.11801075322E+03  0.79720117196E+02 0.  0.
         -6    2    1    2    0  502 -0.39003125759E+02  0.15331705833E+03  0.17132394094E+03  0.28983002737E+03  0.17211097534E+03 0.  0.
        -24    2    5    5    0    0 -0.31556669475E+02  0.18197803986E+03  0.16114477961E+03  0.25816605891E+03  0.81057039162E+02 0.  0.
          5    1    3    3  501    0 -0.20092433509E+02 -0.13015235754E+03 -0.62036918360E+02  0.14565030483E+03  0.47000000000E+01 0. -1.
        -11    1    4    4    0    0  0.92467487573E+01 -0.12311268212E+02  0.18949944829E+02  0.24416594697E+02  0.00000000000E+00 0.  1.
         12    1    4    4    0    0  0.49848810511E+02 -0.10853432572E+02 -0.78467608619E+02  0.93594158526E+02  0.00000000000E+00 0. -1.
         -5    1    5    5    0  502 -0.74464562847E+01 -0.28660981527E+02  0.10179161329E+02  0.31663968460E+02  0.47000000000E+01 0.  1.
         13    1    6    6    0    0 -0.18045140797E+02  0.63482221314E+02  0.11025637836E+03  0.12849937159E+03  0.00000000000E+00 0. -1.
        -14    1    6    6    0    0 -0.13511528678E+02  0.11849581854E+03  0.50888401256E+02  0.12966668732E+03  0.00000000000E+00 0.  1.
</event>
<event>
12    1  0.8684423E-002  0.2481944E+03  0.7818608E-02  0.1115787E+00
         21   -1    0    0  503  502  0.00000000000E+00  0.00000000000E+00  0.33987512439E+03  0.33987512439E+03  0.00000000000E+00 0.  1.
         21   -1    0    0  501  503 -0.00000000000E+00 -0.00000000000E+00 -0.19803463591E+03  0.19803463591E+03  0.00000000000E+00 0. -1.
          6    2    1    2  501    0 -0.14561714477E+03 -0.10448698527E+03 -0.21282943476E+02  0.24090851712E+03  0.15956837717E+03 0.  0.
         24    2    3    3    0    0 -0.83758031363E+02 -0.99124557245E+02  0.35147868092E+02  0.15687380976E+03  0.80826566739E+02 0.  0.
         -6    2    1    2    0  502  0.14561714477E+03  0.10448698527E+03  0.16312343196E+03  0.29700124319E+03  0.17169333551E+03 0.  0.
        -24    2    5    5    0    0  0.11611681531E+03  0.80572627281E+02  0.37483751948E+02  0.16566356714E+03  0.77873761642E+02 0.  0.
          5    1    3    3  501    0 -0.61859113409E+02 -0.53624280249E+01 -0.56430811568E+02  0.84034707355E+02  0.47000000000E+01 0. -1.
        -11    1    4    4    0    0  0.35617718408E+01 -0.54880374217E+02  0.12431249450E+02  0.56383310082E+02  0.00000000000E+00 0.  1.
         12    1    4    4    0    0 -0.87319803204E+02 -0.44244183028E+02  0.22716618642E+02  0.10049049968E+03  0.00000000000E+00 0. -1.
         -5    1    5    5    0  502  0.29500329461E+02  0.23914357989E+02  0.12563968001E+03  0.13133767605E+03  0.47000000000E+01 0.  1.
         11    1    6    6    0    0  0.55491614759E+02  0.74148287456E+02  0.47170223679E+02  0.10393419958E+03  0.00000000000E+00 0. -1.
        -12    1    6    6    0    0  0.60625200552E+02  0.64243398250E+01 -0.96864717313E+01  0.61729367555E+02  0.00000000000E+00 0.  1.
</event>
<event>
12    1  0.8684423E-002  0.3956944E+03  0.7818608E-02  0.1045511E+00
         21   -1    0    0  503  502  0.00000000000E+00  0.00000000000E+00  0.24966423193E+03  0.24966423193E+03  0.00000000000E+00 0. -1.
         21   -1    0    0  501  503 -0.00000000000E+00 -0.00000000000E+00 -0.19199858984E+04  0.19199858984E+04  0.00000000000E+00 0. -1.
          6    2    1    2  501    0 -0.21585383251E+03 -0.27995818047E+03 -0.17258777363E+04  0.17700746473E+04  0.17187447967E+03 0.  0.
         24    2    3    3    0    0 -0.51732228439E+02 -0.93449415442E+02 -0.81879613384E+03  0.82957449113E+03  0.79735254655E+02 0.  0.
         -6    2    1    2    0  502  0.21585383251E+03  0.27995818047E+03  0.55556069771E+02  0.39957548303E+03  0.17777691057E+03 0.  0.
        -24    2    5    5    0    0  0.11724501964E+03  0.23473251338E+03  0.85023930927E+02  0.28706102272E+03  0.79556360315E+02 0.  0.
          5    1    3    3  501    0 -0.16412160407E+03 -0.18650876503E+03 -0.90708160244E+03  0.94050015621E+03  0.47000000000E+01 0. -1.
        -13    1    4    4    0    0 -0.44860904119E+02 -0.10735802426E+03 -0.67626274848E+03  0.68619935228E+03  0.00000000000E+00 0.  1.
         14    1    4    4    0    0 -0.68713243202E+01  0.13908608816E+02 -0.14253338536E+03  0.14337513885E+03  0.00000000000E+00 0. -1.
         -5    1    5    5    0  502  0.98608812867E+02  0.45225667096E+02 -0.29467861156E+02  0.11251446032E+03  0.47000000000E+01 0.  1.
         13    1    6    6    0    0  0.34876379599E+02  0.20825323564E+02  0.32199490827E+02  0.51834960838E+02  0.00000000000E+00 0. -1.
        -14    1    6    6    0    0  0.82368640042E+02  0.21390718981E+03  0.52824440100E+02  0.23522606188E+03  0.00000000000E+00 0.  1.
</event>
<event>
12    1  0.8684423E-002  0.1905512E+03  0.7818608E-02  0.1158346E+00
         21   -1    0    0  503  502  0.00000000000E+00  0.00000000000E+00  0.12415843086E+03  0.12415843086E+03  0.00000000000E+00 0.  1.
         21   -1    0    0  501  503 -0.00000000000E+00 -0.00000000000E+00 -0.68601240232E+03  0.68601240232E+03  0.00000000000E+00 0.  1.
          6    2    1    2  501    0  0.76855079859E+01  0.80026093791E+02 -0.58928193163E+03  0.61932460115E+03  0.17276146539E+03 0.  0.
         24    2    3    3    0    0 -0.25556193822E+02  0.11302680356E+03 -0.42064639723E+03  0.44424150360E+03  0.83540078132E+02 0.  0.
         -6    2    1    2    0  502 -0.76855079859E+01 -0.80026093791E+02  0.27427960162E+02  0.19084623203E+03  0.17089982025E+03 0.  0.
        -24    2    5    5    0    0  0.37440091870E+02 -0.71336029682E+02  0.75592318102E+02  0.12410994241E+03  0.56555191084E+02 0.  0.
          5    1    3    3  501    0  0.33241701808E+02 -0.33000709769E+02 -0.16863553440E+03  0.17508309755E+03  0.47000000000E+01 0. -1.
        -13    1    4    4    0    0 -0.15674088997E+02  0.36353402056E+02 -0.41736010958E+02  0.57525138136E+02  0.00000000000E+00 0.  1.
         14    1    4    4    0    0 -0.98821048257E+01  0.76673401503E+02 -0.37891038627E+03  0.38671636546E+03  0.00000000000E+00 0. -1.
         -5    1    5    5    0  502 -0.45125599856E+02 -0.86900641092E+01 -0.48164357941E+02  0.66736289621E+02  0.47000000000E+01 0.  1.
         11    1    6    6    0    0  0.21747548348E+02  0.33749831794E+01  0.19087975372E+02  0.29132407632E+02  0.00000000000E+00 0. -1.
        -12    1    6    6    0    0  0.15692543522E+02 -0.74711012861E+02  0.56504342730E+02  0.94977534777E+02  0.00000000000E+00 0.  1.
</event>
<event>
12    1  0.8684423E-002  0.1743904E+03  0.7818608E-02  0.1173684E+00
         21   -1    0    0  501  502  0.00000000000E+00  0.00000000000E+00  0.83389251361E+03  0.83389251361E+03  0.00000000000E+00 0. -1.
         21   -1    0    0  502  503 -0.00000000000E+00 -0.00000000000E+00 -0.38174004101E+02  0.38174004101E+02  0.00000000000E+00 0. -1.
         -6    2    1    2    0  503 -0.13884775980E+02  0.14412366528E+02  0.49580197028E+03  0.52513435485E+03  0.17188948075E+03 0.  0.
        -24    2    3    3    0    0  0.19986454758E+02  0.33574073435E+01  0.47776646802E+03  0.48492438424E+03  0.80499254094E+02 0.  0.
          6    2    1    2  501    0  0.13884775980E+02 -0.14412366528E+02  0.29991653922E+03  0.34693216286E+03  0.17323825159E+03 0.  0.
         24    2    5    5    0    0  0.62220794831E+02 -0.18879739615E+02  0.27119591778E+03  0.29033452831E+03  0.80740576106E+02 0.  0.
          5    1    5    5  501    0 -0.48336018851E+02  0.44673730867E+01  0.28720621438E+02  0.56597634548E+02  0.47000000000E+01 0. -1.
        -11    1    6    6    0    0  0.50612632954E+02 -0.38306547949E+02  0.10566995283E+03  0.12326868686E+03  0.00000000000E+00 0.  1.
         12    1    6    6    0    0  0.11608161876E+02  0.19426808334E+02  0.16552596496E+03  0.16706584145E+03  0.00000000000E+00 0. -1.
         -5    1    3    3    0  503 -0.33871230738E+02  0.11054959184E+02  0.18035502263E+02  0.40209970606E+02  0.47000000000E+01 0.  1.
         13    1    4    4    0    0  0.13628276302E+02  0.34773427979E+02  0.38438051038E+03  0.38619075334E+03  0.00000000000E+00 0. -1.
        -14    1    4    4    0    0  0.63581784563E+01 -0.31416020636E+02  0.93385957643E+02  0.98733630901E+02  0.00000000000E+00 0.  1.
</event>
<event>
12    1  0.8684423E-002  0.2213617E+03  0.7818608E-02  0.1132891E+00
         21   -1    0    0  501  502  0.00000000000E+00  0.00000000000E+00  0.15893305018E+03  0.15893305018E+03  0.00000000000E+00 0. -1.
         21   -1    0    0  502  503 -0.00000000000E+00 -0.00000000000E+00 -0.32559388443E+03  0.32559388443E+03  0.00000000000E+00 0. -1.
         -6    2    1    2    0  503  0.10337757397E+03 -0.92044694086E+02 -0.13938830249E+03  0.26159144880E+03  0.17274790506E+03 0.  0.
        -24    2    3    3    0    0  0.13056234476E+03 -0.45727815412E+02 -0.13375684282E+03  0.20738749736E+03  0.77337714519E+02 0.  0.
          6    2    1    2  501    0 -0.10337757397E+03  0.92044694086E+02 -0.27272531770E+02  0.22293548581E+03  0.17261891940E+03 0.  0.
         24    2    5    5    0    0 -0.13313904804E+03  0.39936148453E+02 -0.31897272331E+02  0.16256559189E+03  0.78033541635E+02 0.  0.
          5    1    5    5  501    0  0.29761474066E+02  0.52108545633E+02  0.46247405610E+01  0.60369893919E+02  0.47000000000E+01 0. -1.
        -13    1    6    6    0    0  0.59857346938E+00  0.24807697581E+02 -0.50254029387E+01  0.25318665529E+02  0.00000000000E+00 0.  1.
         14    1    6    6    0    0 -0.13373762150E+03  0.15128450872E+02 -0.26871869393E+02  0.13724692636E+03  0.00000000000E+00 0. -1.
         -5    1    3    3    0  503 -0.27184770794E+02 -0.46316878674E+02 -0.56314596629E+01  0.54203951435E+02  0.47000000000E+01 0.  1.
         11    1    4    4    0    0  0.97242561191E+02  0.32500475463E+01 -0.66980057988E+02  0.11812284573E+03  0.00000000000E+00 0. -1.
        -12    1    4    4    0    0  0.33319783572E+02 -0.48977862958E+02 -0.66776784835E+02  0.89264651628E+02  0.00000000000E+00 0.  1.
</event>
<event>
12    1  0.8684423E-002  0.1795258E+03  0.7818608E-02  0.1169826E+00
         21   -1    0    0  501  502  0.00000000000E+00  0.00000000000E+00  0.25465307912E+02  0.25465307912E+02  0.00000000000E+00 0.  1.
         21   -1    0    0  502  503 -0.00000000000E+00 -0.00000000000E+00 -0.14203039916E+04  0.14203039916E+04  0.00000000000E+00 0.  1.
         -6    2    1    2    0  503 -0.45264639331E+02 -0.28440545084E+02 -0.41626121608E+03  0.45086057451E+03  0.16475468265E+03 0.  0.
        -24    2    3    3    0    0  0.23086062447E+02  0.83174828932E+01 -0.14375375011E+03  0.16747853545E+03  0.82351517068E+02 0.  0.
          6    2    1    2  501    0  0.45264639331E+02  0.28440545084E+02 -0.97857746766E+03  0.99490872505E+03  0.17138190919E+03 0.  0.
         24    2    5    5    0    0  0.88975841424E+01  0.68553037614E+02 -0.83037135165E+03  0.83705208889E+03  0.79755450555E+02 0.  0.
          5    1    5    5  501    0  0.36367055189E+02 -0.40112492531E+02 -0.14820611600E+03  0.15785663616E+03  0.47000000000E+01 0. -1.
        -13    1    6    6    0    0  0.22998909767E+02 -0.18336411417E+01 -0.40576120652E+03  0.40641661975E+03  0.00000000000E+00 0.  1.
         14    1    6    6    0    0 -0.14101325625E+02  0.70386678756E+02 -0.42461014513E+03  0.43063546914E+03  0.00000000000E+00 0. -1.
         -5    1    3    3    0  503 -0.68350701779E+02 -0.36758027977E+02 -0.27250746597E+03  0.28338203906E+03  0.47000000000E+01 0.  1.
         11    1    4    4    0    0  0.84070984726E+01 -0.13616858929E+02 -0.13989223862E+03  0.14080460425E+03  0.00000000000E+00 0. -1.
        -12    1    4    4    0    0  0.14678963975E+02  0.21934341822E+02 -0.38615114919E+01  0.26673931198E+02  0.00000000000E+00 0.  1.
</event>
<event>
12    1  0.8684423E-002  0.2078593E+03  0.7818608E-02  0.1143595E+00
         21   -1    0    0  503  502  0.00000000000E+00  0.00000000000E+00  0.19925458305E+03  0.19925458305E+03  0.00000000000E+00 0.  1.
         21   -1    0    0  501  503 -0.00000000000E+00 -0.00000000000E+00 -0.26490207853E+03  0.26490207853E+03  0.00000000000E+00 0. -1.
          6    2    1    2  501    0  0.89726606792E+02  0.70186770436E+02 -0.13327797996E+03  0.24557171472E+03  0.17194592294E+03 0.  0.
         24    2    3    3    0    0  0.49219517551E+02 -0.27276670360E+02 -0.78021905052E+02  0.12634390594E+03  0.81907186785E+02 0.  0.
         -6    2    1    2    0  502 -0.89726606792E+02 -0.70186770436E+02  0.67630484486E+02  0.21858494686E+03  0.17386330796E+03 0.  0.
        -24    2    5    5    0    0 -0.90788850998E+01 -0.80826345040E+02  0.31996709105E+01  0.11470677158E+03  0.80821292652E+02 0.  0.
          5    1    3    3  501    0  0.40507089240E+02  0.97463440796E+02 -0.55256074909E+02  0.11922780877E+03  0.47000000000E+01 0. -1.
        -13    1    4    4    0    0  0.45280553446E+02  0.21054400128E+01 -0.27133799072E+01  0.45410613611E+02  0.00000000000E+00 0.  1.
         14    1    4    4    0    0  0.39389641055E+01 -0.29382110373E+02 -0.75308525144E+02  0.80933292331E+02  0.00000000000E+00 0. -1.
         -5    1    5    5    0  502 -0.80647721692E+02  0.10639574604E+02  0.64430813575E+02  0.10387817528E+03  0.47000000000E+01 0.  1.
         13    1    6    6    0    0 -0.99913635647E+01  0.26061968571E+01 -0.24665192264E+02  0.26739321557E+02  0.00000000000E+00 0. -1.
        -14    1    6    6    0    0  0.91247846496E+00 -0.83432541897E+02  0.27864863174E+02  0.87967450026E+02  0.00000000000E+00 0.  1.
</event>
<event>
12    1  0.8684423E-002  0.2359519E+03  0.7818608E-02  0.1122655E+00
         21   -1    0    0  503  502  0.00000000000E+00  0.00000000000E+00  0.26744552222E+03  0.26744552222E+03  0.00000000000E+00 0. -1.
         21   -1    0    0  501  503 -0.00000000000E+00 -0.00000000000E+00 -0.20941489476E+03  0.20941489476E+03  0.00000000000E+00 0.  1.
          6    2    1    2  501    0  0.12098189735E+03 -0.10623278774E+03  0.59565374521E+01  0.23523054474E+03  0.17139400271E+03 0.  0.
         24    2    3    3    0    0  0.29757642176E+02 -0.11357529280E+03 -0.76700781082E+01  0.14258308517E+03  0.80537206786E+02 0.  0.
         -6    2    1    2    0  502 -0.12098189735E+03  0.10623278774E+03  0.52074090001E+02  0.24162987224E+03  0.17248553455E+03 0.  0.
        -24    2    5    5    0    0 -0.74743717983E+02  0.13818507807E+02  0.77776772377E+02  0.13504147583E+03  0.80058724310E+02 0.  0.
          5    1    3    3  501    0  0.91224255178E+02  0.73425050626E+01  0.13626615560E+02  0.92647459571E+02  0.47000000000E+01 0. -1.
        -13    1    4    4    0    0  0.53571276413E+02 -0.86138611259E+02 -0.21532025480E+02  0.10369845769E+03  0.00000000000E+00 0.  1.
         14    1    4    4    0    0 -0.23813634237E+02 -0.27436681541E+02  0.13861947372E+02  0.38884627483E+02  0.00000000000E+00 0. -1.
         -5    1    5    5    0  502 -0.46238179371E+02  0.92414279930E+02 -0.25702682376E+02  0.10658839640E+03  0.47000000000E+01 0.  1.
         13    1    6    6    0    0  0.25111799609E+01 -0.18554229128E+02  0.37895241893E+02  0.42268366439E+02  0.00000000000E+00 0. -1.
        -14    1    6    6    0    0 -0.77254897944E+02  0.32372736935E+02  0.39881530484E+02  0.92773109395E+02  0.00000000000E+00 0.  1.
</event>
<event>
12    1  0.8684423E-002  0.2017689E+03  0.7818608E-02  0.1148367E+00
         21   -1    0    0  501  502  0.00000000000E+00  0.00000000000E+00  0.75807803124E+02  0.75807803124E+02  0.00000000000E+00 0. -1.
         21   -1    0    0  502  503 -0.00000000000E+00 -0.00000000000E+00 -0.54075377055E+03  0.54075377055E+03  0.00000000000E+00 0. -1.
         -6    2    1    2    0  503 -0.10068984116E+03  0.28516350475E+02 -0.26224823297E+03  0.33055973780E+03  0.17188361820E+03 0.  0.
        -24    2    3    3    0    0 -0.61260710605E+02 -0.47026135417E+02 -0.11311826436E+03  0.15873668624E+03  0.80232547951E+02 0.  0.
          6    2    1    2  501    0  0.10068984116E+03 -0.28516350475E+02 -0.20269773446E+03  0.28600183587E+03  0.17250812216E+03 0.  0.
         24    2    5    5    0    0 -0.12995831986E+02 -0.31030604807E+02 -0.74296697680E+02  0.11442191281E+03  0.80253253898E+02 0.  0.
          5    1    5    5  501    0  0.11368567314E+03  0.25142543320E+01 -0.12840103678E+03  0.17157992306E+03  0.47000000000E+01 0. -1.
        -11    1    6    6    0    0 -0.57845341682E+01  0.20430772463E+02  0.28313928281E+01  0.21421813282E+02  0.00000000000E+00 0.  1.
         12    1    6    6    0    0 -0.72112978174E+01 -0.51461377270E+02 -0.77128090508E+02  0.93000099528E+02  0.00000000000E+00 0. -1.
         -5    1    3    3    0  503 -0.39429130551E+02  0.75542485892E+02 -0.14912996861E+03  0.17182305156E+03  0.47000000000E+01 0.  1.
         13    1    4    4    0    0  0.26928517435E+01 -0.15362552609E+02 -0.77359444241E+02  0.78916050879E+02  0.00000000000E+00 0. -1.
        -14    1    4    4    0    0 -0.63953562348E+02 -0.31663582808E+02 -0.35758820124E+02  0.79820635364E+02  0.00000000000E+00 0.  1.
</event>
<event>
12    1  0.8684423E-002  0.1885629E+03  0.7818608E-02  0.1160352E+00
         21   -1    0    0  503  502  0.00000000000E+00  0.00000000000E+00  0.95242442749E+02  0.95242442749E+02  0.00000000000E+00 0. -1.
         21   -1    0    0  501  503 -0.00000000000E+00 -0.00000000000E+00 -0.37923665747E+03  0.37923665747E+03  0.00000000000E+00 0.  1.
          6    2    1    2  501    0  0.40558732728E+02 -0.62297730758E+02 -0.10258809599E+03  0.21466318960E+03  0.17329151588E+03 0.  0.
         24    2    3    3    0    0  0.20596023734E+02  0.47109279043E+01 -0.11722048924E+03  0.14307501308E+03  0.79268071978E+02 0.  0.
         -6    2    1    2    0  502 -0.40558732728E+02  0.62297730758E+02 -0.18140611874E+03  0.25981591062E+03  0.17049958779E+03 0.  0.
        -24    2    5    5    0    0 -0.33005639122E+02  0.10690704427E+03 -0.11777414109E+03  0.18159725137E+03  0.81168498011E+02 0.  0.
          5    1    3    3  501    0  0.19962708994E+02 -0.67008658663E+02  0.14632393249E+02  0.71588176526E+02  0.47000000000E+01 0. -1.
        -11    1    4    4    0    0 -0.11077883134E+02  0.85363809694E+01  0.64171920454E+01  0.15387321032E+02  0.00000000000E+00 0.  1.
         12    1    4    4    0    0  0.31673906868E+02 -0.38254530650E+01 -0.12363768128E+03  0.12768769205E+03  0.00000000000E+00 0. -1.
         -5    1    5    5    0  502 -0.75530936065E+01 -0.44609313508E+02 -0.63631977648E+02  0.78218659245E+02  0.47000000000E+01 0.  1.
         13    1    6    6    0    0 -0.42869565739E+02  0.37162574614E+02 -0.18112245358E+02  0.59555940514E+02  0.00000000000E+00 0. -1.
        -14    1    6    6    0    0  0.98639266179E+01  0.69744469652E+02 -0.99661895733E+02  0.12204131086E+03  0.00000000000E+00 0.  1.
</event>
<event>
12    1  0.8684423E-002  0.1943134E+03  0.7818608E-02  0.1155888E+00
         21   -1    0    0  503  502  0.00000000000E+00  0.00000000000E+00  0.17090640406E+03  0.17090640406E+03  0.00000000000E+00 0.  1.
         21   -1    0    0  501  503 -0.00000000000E+00 -0.00000000000E+00 -0.21971887612E+03  0.21971887612E+03  0.00000000000E+00 0.  1.
          6    2    1    2  501    0  0.79402983526E+02 -0.30675882752E+02  0.59523086520E+01  0.18874199351E+03  0.16835161585E+03 0.  0.
         24    2    3    3    0    0  0.10482643059E+03 -0.48228610224E+02  0.35530566282E+02  0.14571394189E+03  0.81581568546E+02 0.  0.
         -6    2    1    2    0  502 -0.79402983526E+02  0.30675882752E+02 -0.54764780712E+02  0.20188328667E+03  0.17467637692E+03 0.  0.
        -24    2    5    5    0    0 -0.73550170129E+02  0.46296426909E+02  0.24980534910E+02  0.12027653335E+03  0.79305930917E+02 0.  0.
          5    1    3    3  501    0 -0.25423447060E+02  0.17552727473E+02 -0.29578257630E+02  0.43028051624E+02  0.47000000000E+01 0. -1.
        -11    1    4    4    0    0  0.19285438201E+02 -0.23519267274E+02  0.46955641244E+02  0.55945654920E+02  0.00000000000E+00 0.  1.
         12    1    4    4    0    0  0.85540992384E+02 -0.24709342951E+02 -0.11425074963E+02  0.89768286967E+02  0.00000000000E+00 0. -1.
         -5    1    5    5    0  502 -0.58528133970E+01 -0.15620544157E+02 -0.79745315622E+02  0.81606753324E+02  0.47000000000E+01 0.  1.
         11    1    6    6    0    0 -0.66258410395E+02  0.57814474287E+01  0.38620160248E+02  0.76909809908E+02  0.00000000000E+00 0. -1.
        -12    1    6    6    0    0 -0.72917597339E+01  0.40514979480E+02 -0.13639625338E+02  0.43366723437E+02  0.00000000000E+00 0.  1.
</event>
<event>
12    1  0.8684423E-002  0.2241174E+03  0.7818608E-02  0.1131015E+00
         21   -1    0    0  503  502  0.00000000000E+00  0.00000000000E+00  0.58109059632E+03  0.58109059632E+03  0.00000000000E+00 0. -1.
         21   -1    0    0  501  503 -0.00000000000E+00 -0.00000000000E+00 -0.87818679630E+02  0.87818679630E+02  0.00000000000E+00 0.  1.
          6    2    1    2  501    0  0.61150217624E+02 -0.12997161932E+03  0.20020317764E+03  0.30051610470E+03  0.17203675742E+03 0.  0.
         24    2    3    3    0    0  0.31136356755E+02  0.32704311896E+01  0.69748143892E+02  0.11158521337E+03  0.81279073781E+02 0.  0.
         -6    2    1    2    0  502 -0.61150217624E+02  0.12997161932E+03  0.29306873905E+03  0.36839317124E+03  0.17085746068E+03 0.  0.
        -24    2    5    5    0    0 -0.91359636221E+02  0.14056823145E+03  0.28515344758E+03  0.33508192690E+03  0.53492039113E+02 0.  0.
          5    1    3    3  501    0  0.30013860869E+02 -0.13324205051E+03  0.13045503375E+03  0.18893089133E+03  0.47000000000E+01 0. -1.
        -13    1    4    4    0    0  0.19649175134E+02  0.17667378287E+02 -0.11103644074E+02  0.28662122229E+02  0.00000000000E+00 0.  1.
         14    1    4    4    0    0  0.11487181621E+02 -0.14396947098E+02  0.80851787965E+02  0.82923091142E+02  0.00000000000E+00 0. -1.
         -5    1    5    5    0  502  0.30209418597E+02 -0.10596612127E+02  0.79152914667E+01  0.33311244341E+02  0.47000000000E+01 0.  1.
         11    1    6    6    0    0 -0.35346121431E+02  0.92666480267E+02  0.19380470559E+03  0.21770780596E+03  0.00000000000E+00 0. -1.
        -12    1    6    6    0    0 -0.56013514790E+02  0.47901751181E+02  0.91348741989E+02  0.11737412095E+03  0.00000000000E+00 0.  1.
</event>
<event>
12    1  0.8684423E-002  0.1765174E+03  0.7818608E-02  0.1172251E+00
         21   -1    0    0  503  502  0.00000000000E+00  0.00000000000E+00  0.23561483012E+03  0.23561483012E+03  0.00000000000E+00 0. -1.
         21   -1    0    0  501  503 -0.00000000000E+00 -0.00000000000E+00 -0.21498056555E+03  0.21498056555E+03  0.00000000000E+00 0. -1.
          6    2    1    2  501    0  0.20536288176E+01  0.13358278594E+02 -0.13193834981E+03  0.22037725507E+03  0.17599927671E+03 0.  0.
         24    2    3    3    0    0 -0.73347670630E+01 -0.20615231677E+02 -0.15826731585E+03  0.17613196345E+03  0.74129202727E+02 0.  0.
         -6    2    1    2    0  502 -0.20536288176E+01 -0.13358278594E+02  0.15257261438E+03  0.23021814060E+03  0.17187009224E+03 0.  0.
        -24    2    5    5    0    0  0.11343006484E+02 -0.42647942075E+02  0.17027167369E+03  0.19316816186E+03  0.79837241531E+02 0.  0.
          5    1    3    3  501    0  0.93883958805E+01  0.33973510271E+02  0.26328966040E+02  0.44245291615E+02  0.47000000000E+01 0. -1.
        -11    1    4    4    0    0  0.13984225581E+02 -0.17761077571E+02 -0.74692764390E+01  0.23807657006E+02  0.00000000000E+00 0.  1.
         12    1    4    4    0    0 -0.21318992644E+02 -0.28541541066E+01 -0.15079803941E+03  0.15232430645E+03  0.00000000000E+00 0. -1.
         -5    1    5    5    0  502 -0.13396635302E+02  0.29289663481E+02 -0.17699059315E+02  0.37049978743E+02  0.47000000000E+01 0.  1.
         13    1    6    6    0    0  0.30618524140E+02  0.42969603819E+01  0.11057335106E+03  0.11481473710E+03  0.00000000000E+00 0. -1.
        -14    1    6    6    0    0 -0.19275517656E+02 -0.46944902457E+02  0.59698322627E+02  0.78353424762E+02  0.00000000000E+00 0.  1.
</event>
<event>
12    1  0.8684423E-002  0.2597252E+03  0.7818608E-02  0.1107324E+00
         21   -1    0    0  501  502  0.00000000000E+00  0.00000000000E+00  0.15330470672E+03  0.15330470672E+03  0.00000000000E+00 0. -1.
         21   -1    0    0  502  503 -0.00000000000E+00 -0.00000000000E+00 -0.45196119493E+03  0.45196119493E+03  0.00000000000E+00 0. -1.
         -6    2    1    2    0  503 -0.63909383185E+02  0.18350203442E+03 -0.19884933204E+03  0.32702386005E+03  0.17218055144E+03 0.  0.
        -24    2    3    3    0    0 -0.76842916359E+02  0.51199793030E+02 -0.66544027533E+02  0.13941271177E+03  0.80508036882E+02 0.  0.
          6    2    1    2  501    0  0.63909383185E+02 -0.18350203442E+03 -0.99807156166E+02  0.27824204160E+03  0.17233618132E+03 0.  0.
         24    2    5    5    0    0  0.73398144705E+02 -0.88592288520E+02 -0.12466925263E+01  0.14100446855E+03  0.81515794037E+02 0.  0.
          5    1    5    5  501    0 -0.94887615208E+01 -0.94909745904E+02 -0.98560463640E+02  0.13723757305E+03  0.47000000000E+01 0. -1.
        -11    1    6    6    0    0  0.53644686194E+02 -0.70036544090E+02  0.35711180028E+02  0.95174357071E+02  0.00000000000E+00 0.  1.
         12    1    6    6    0    0  0.19753458512E+02 -0.18555744430E+02 -0.36957872554E+02  0.45830111480E+02  0.00000000000E+00 0. -1.
         -5    1    3    3    0  503  0.12933533174E+02  0.13230224139E+03 -0.13230530451E+03  0.18761114828E+03  0.47000000000E+01 0.  1.
         13    1    4    4    0    0 -0.12640252919E+02  0.41435483204E+02  0.40285057705E+01  0.43507517982E+02  0.00000000000E+00 0. -1.
        -14    1    4    4    0    0 -0.64202663440E+02  0.97643098263E+01 -0.70572533303E+02  0.95905193790E+02  0.00000000000E+00 0.  1.
</event>
<event>
12    1  0.8684423E-002  0.1809168E+03  0.7818608E-02  0.1167310E+00
         21   -1    0    0  501  502  0.00000000000E+00  0.00000000000E+00  0.30403766372E+03  0.30403766372E+03  0.00000000000E+00 0.  1.
         21   -1    0    0  502  503 -0.00000000000E+00 -0.00000000000E+00 -0.10672296699E+03  0.10672296699E+03  0.00000000000E+00 0.  1.
         -6    2    1    2    0  503 -0.21428553563E+02 -0.51707877052E+02  0.10167939006E+03  0.20612192279E+03  0.17033690509E+03 0.  0.
        -24    2    3    3    0    0 -0.72600601142E+02 -0.19686288017E+02  0.31112301375E+02  0.11313931892E+03  0.78575651234E+02 0.  0.
          6    2    1    2  501    0  0.21428553563E+02  0.51707877052E+02  0.95635306672E+02  0.20463870792E+03  0.17204069705E+03 0.  0.
         24    2    5    5    0    0 -0.62838691249E+01  0.33313142915E+01 -0.10594364683E+02  0.84575794113E+02  0.83607653482E+02 0.  0.
          5    1    5    5  501    0  0.27712422688E+02  0.48376562760E+02  0.10622967135E+03  0.12006291381E+03  0.47000000000E+01 0. -1.
        -11    1    6    6    0    0 -0.36357036073E+02  0.24624992173E+02  0.57100585462E+01  0.44281249758E+02  0.00000000000E+00 0.  1.
         12    1    6    6    0    0  0.30073166948E+02 -0.21293677881E+02 -0.16304423230E+02  0.40294544356E+02  0.00000000000E+00 0. -1.
         -5    1    3    3    0  503  0.51172047579E+02 -0.32021589035E+02  0.70567088683E+02  0.92982603873E+02  0.47000000000E+01 0.  1.
         13    1    4    4    0    0 -0.58377142191E+02 -0.42672787853E+02  0.42423648959E+02  0.83836886539E+02  0.00000000000E+00 0. -1.
        -14    1    4    4    0    0 -0.14223458951E+02  0.22986499836E+02 -0.11311347584E+02  0.29302432381E+02  0.00000000000E+00 0.  1.
</event>
<event>
12    1  0.8684423E-002  0.2240150E+03  0.7818608E-02  0.1131106E+00
         21   -1    0    0  501  502  0.00000000000E+00  0.00000000000E+00  0.93846827689E+03  0.93846827689E+03  0.00000000000E+00 0. -1.
         21   -1    0    0  502  503 -0.00000000000E+00 -0.00000000000E+00 -0.14628888410E+03  0.14628888410E+03  0.00000000000E+00 0.  1.
         -6    2    1    2    0  503  0.13485814474E+03  0.47051756923E+02  0.82834353424E+03  0.85784183131E+03  0.17128633865E+03 0.  0.
        -24    2    3    3    0    0  0.12759954532E+03 -0.22596196043E+02  0.58046010028E+03  0.60021455899E+03  0.80816809878E+02 0.  0.
          6    2    1    2  501    0 -0.13485814474E+03 -0.47051756923E+02 -0.36164141448E+02  0.22691532967E+03  0.17257501175E+03 0.  0.
         24    2    5    5    0    0 -0.10424756500E+03 -0.13124303929E+02 -0.87276758755E+02  0.15819364964E+03  0.79800977472E+02 0.  0.
          5    1    5    5  501    0 -0.30610579740E+02 -0.33927452994E+02  0.51112617308E+02  0.68721680034E+02  0.47000000000E+01 0. -1.
        -13    1    6    6    0    0 -0.83267831296E+02 -0.65614640261E+01 -0.17906530525E+02  0.85423816201E+02  0.00000000000E+00 0.  1.
         14    1    6    6    0    0 -0.20979733702E+02 -0.65628399028E+01 -0.69370228230E+02  0.72769833438E+02  0.00000000000E+00 0. -1.
         -5    1    3    3    0  503  0.72585994204E+01  0.69647952965E+02  0.24788343395E+03  0.25762727233E+03  0.47000000000E+01 0.  1.
         13    1    4    4    0    0  0.99967585047E+02  0.19758471744E+02  0.40371968787E+03  0.41638143767E+03  0.00000000000E+00 0. -1.
        -14    1    4    4    0    0  0.27631960270E+02 -0.42354667787E+02  0.17674041242E+03  0.18383312132E+03  0.00000000000E+00 0.  1.
</event>
<event>
12    1  0.8684423E-002  0.1937960E+03  0.7818608E-02  0.1156692E+00
         21   -1    0    0  501  502  0.00000000000E+00  0.00000000000E+00  0.28296201265E+03  0.28296201265E+03  0.00000000000E+00 0.  1.
         21   -1    0    0  502  503 -0.00000000000E+00 -0.00000000000E+00 -0.14688172618E+03  0.14688172618E+03  0.00000000000E+00 0.  1.
         -6    2    1    2    0  503  0.40823147018E+02 -0.55563269519E+02 -0.81855890993E+01  0.19396880750E+03  0.18111622832E+03 0.  0.
        -24    2    3    3    0    0 -0.47006788501E+02 -0.46850091432E+02 -0.49526267016E+01  0.10552357534E+03  0.81890947048E+02 0.  0.
          6    2    1    2  501    0 -0.40823147018E+02  0.55563269519E+02  0.14426587557E+03  0.23587493133E+03  0.17340857569E+03 0.  0.
         24    2    5    5    0    0 -0.38141761946E+02 -0.29705380096E+02  0.43407363008E+02  0.10369149065E+03  0.80811648045E+02 0.  0.
          5    1    5    5  501    0 -0.26813850723E+01  0.85268649615E+02  0.10085851256E+03  0.13218344068E+03  0.47000000000E+01 0. -1.
        -13    1    6    6    0    0  0.24245879490E+01 -0.70176418002E+01  0.55233978845E+02  0.55730766568E+02  0.00000000000E+00 0.  1.
         14    1    6    6    0    0 -0.40566349895E+02 -0.22687738296E+02 -0.11826615837E+02  0.47960724087E+02  0.00000000000E+00 0. -1.
         -5    1    3    3    0  503  0.87829935520E+02 -0.87131780867E+01 -0.32329623978E+01  0.88445232159E+02  0.47000000000E+01 0.  1.
         11    1    4    4    0    0 -0.49502202625E+02 -0.63075527815E+02 -0.20663538436E+02  0.82800797669E+02  0.00000000000E+00 0. -1.
        -12    1    4    4    0    0  0.24954141241E+01  0.16225436382E+02  0.15710911735E+02  0.22722777669E+02  0.00000000000E+00 0.  1.
</event>
<event>
12    1  0.8684423E-002  0.1786305E+03  0.7818608E-02  0.1169588E+00
         21   -1    0    0  501  502  0.00000000000E+00  0.00000000000E+00  0.14428807905E+03  0.14428807905E+03  0.00000000000E+00 0. -1.
         21   -1    0    0  502  503 -0.00000000000E+00 -0.00000000000E+00 -0.21906332922E+03  0.21906332922E+03  0.00000000000E+00 0. -1.
         -6    2    1    2    0  503 -0.23600528523E+01  0.41953953157E+02 -0.42988223719E+02  0.18373033828E+03  0.17361781531E+03 0.  0.
        -24    2    3    3    0    0  0.63265367402E+02  0.25510190431E+02 -0.41797023127E+01  0.10559401862E+03  0.80494411791E+02 0.  0.
          6    2    1    2  501    0  0.23600528523E+01 -0.41953953157E+02 -0.31787026455E+02  0.17962106999E+03  0.17171956702E+03 0.  0.
         24    2    5    5    0    0 -0.59692435050E+02 -0.37703277154E+02  0.62147648072E+01  0.10658131615E+03  0.79600438070E+02 0.  0.
          5    1    5    5  501    0  0.62052487902E+02 -0.42506760032E+01 -0.38001791262E+02  0.73039753836E+02  0.47000000000E+01 0. -1.
        -11    1    6    6    0    0 -0.45018595376E+02  0.85968024087E+01  0.27612205042E+02  0.53507128577E+02  0.00000000000E+00 0.  1.
         12    1    6    6    0    0 -0.14673839674E+02 -0.46300079563E+02 -0.21397440234E+02  0.53074187576E+02  0.00000000000E+00 0. -1.
         -5    1    3    3    0  503 -0.65625420254E+02  0.16443762727E+02 -0.38808521406E+02  0.78136319659E+02  0.47000000000E+01 0.  1.
         11    1    4    4    0    0  0.28755230146E+02  0.37364201195E+02 -0.34279122195E+02  0.58292409541E+02  0.00000000000E+00 0. -1.
        -12    1    4    4    0    0  0.34510137256E+02 -0.11854010764E+02  0.30099419882E+02  0.47301609084E+02  0.00000000000E+00 0.  1.
</event>
<event>
12    1  0.8684423E-002  0.1736879E+03  0.7818608E-02  0.1174224E+00
         21   -1    0    0  503  502  0.00000000000E+00  0.00000000000E+00  0.91786362720E+03  0.91786362720E+03  0.00000000000E+00 0. -1.
         21   -1    0    0  501  503 -0.00000000000E+00 -0.00000000000E+00 -0.45482546263E+02  0.45482546263E+02  0.00000000000E+00 0. -1.
          6    2    1    2  501    0  0.21261332794E+02  0.40602911104E+01  0.18066055254E+03  0.25015279921E+03  0.17166728714E+03 0.  0.
         24    2    3    3    0    0 -0.54685267615E+00 -0.16357344605E+02  0.20210976533E+03  0.21307672160E+03  0.65463503367E+02 0.  0.
         -6    2    1    2    0  502 -0.21261332794E+02 -0.40602911104E+01  0.69172052840E+03  0.71319337425E+03  0.17233388940E+03 0.  0.
        -24    2    5    5    0    0  0.42306149542E+01  0.29893011010E+02  0.64112883792E+03  0.64697951415E+03  0.81392964691E+02 0.  0.
          5    1    3    3  501    0  0.21808185470E+02  0.20417635715E+02 -0.21449212793E+02  0.37076077613E+02  0.47000000000E+01 0. -1.
        -11    1    4    4    0    0 -0.28559294316E+02  0.52036557027E+01  0.12380351709E+03  0.12716140204E+03  0.00000000000E+00 0.  1.
         12    1    4    4    0    0  0.28012441640E+02 -0.21561000308E+02  0.78306248241E+02  0.85915319556E+02  0.00000000000E+00 0. -1.
         -5    1    5    5    0  502 -0.25491947748E+02 -0.33953302121E+02  0.50591690474E+02  0.66213860105E+02  0.47000000000E+01 0.  1.
         13    1    6    6    0    0 -0.35247845195E+02 -0.28052138203E+01  0.24087409014E+03  0.24345555470E+03  0.00000000000E+00 0. -1.
        -14    1    6    6    0    0  0.39478460150E+02  0.32698224831E+02  0.40025474779E+03  0.40352395945E+03  0.00000000000E+00 0.  1.
</event>
<event>
12    1  0.8684423E-002  0.2347518E+03  0.7818608E-02  0.1123530E+00
         21   -1    0    0  501  502  0.00000000000E+00  0.00000000000E+00  0.90710675960E+02  0.90710675960E+02  0.00000000000E+00 0.  1.
         21   -1    0    0  502  503 -0.00000000000E+00 -0.00000000000E+00 -0.61941891623E+03  0.61941891623E+03  0.00000000000E+00 0. -1.
         -6    2    1    2    0  503  0.12840681103E+03  0.92282226365E+02 -0.20891767628E+03  0.31342517413E+03  0.17200123806E+03 0.  0.
        -24    2    3    3    0    0  0.11717246593E+03  0.11902800863E+03 -0.21464518483E+03  0.28348453731E+03  0.79961702763E+02 0.  0.
          6    2    1    2  501    0 -0.12840681103E+03 -0.92282226365E+02 -0.31979056399E+03  0.39670441806E+03  0.17350525085E+03 0.  0.
         24    2    5    5    0    0 -0.15821559401E+03 -0.61871805635E+02 -0.24116703103E+03  0.30716611806E+03  0.85610704403E+02 0.  0.
          5    1    5    5  501    0  0.29808782983E+02 -0.30410420730E+02 -0.78623532960E+02  0.89538300001E+02  0.47000000000E+01 0. -1.
        -13    1    6    6    0    0  0.24255894474E+01 -0.25176770748E+02 -0.27921773172E+02  0.37674642487E+02  0.00000000000E+00 0.  1.
         14    1    6    6    0    0 -0.16064118346E+03 -0.36695034887E+02 -0.21324525786E+03  0.26949147557E+03  0.00000000000E+00 0. -1.
         -5    1    3    3    0  503  0.11234345098E+02 -0.26745782269E+02  0.57275085526E+01  0.29940636820E+02  0.47000000000E+01 0.  1.
         13    1    4    4    0    0  0.11970750638E+02  0.62865624652E+02 -0.95103258425E+02  0.11462990621E+03  0.00000000000E+00 0. -1.
        -14    1    4    4    0    0  0.10520171529E+03  0.56162383981E+02 -0.11954192641E+03  0.16885463110E+03  0.00000000000E+00 0.  1.
</event>
<event>
12    1  0.8684423E-002  0.2289986E+03  0.7818608E-02  0.1127354E+00
         21   -1    0    0  501  502  0.00000000000E+00  0.00000000000E+00  0.19936994775E+03  0.19936994775E+03  0.00000000000E+00 0. -1.
         21   -1    0    0  502  503 -0.00000000000E+00 -0.00000000000E+00 -0.54082749202E+03  0.54082749202E+03  0.00000000000E+00 0. -1.
         -6    2    1    2    0  503  0.57164589039E+02 -0.13874606177E+03 -0.43600714831E+03  0.49248611648E+03  0.17298000363E+03 0.  0.
        -24    2    3    3    0    0  0.86246307478E+02 -0.64091431045E+02 -0.35059899927E+03  0.37528670455E+03  0.79839308819E+02 0.  0.
          6    2    1    2  501    0 -0.57164589039E+02  0.13874606177E+03  0.94549604046E+02  0.24771132329E+03  0.17292487433E+03 0.  0.
         24    2    5    5    0    0 -0.87262929148E+02  0.57852549470E+02  0.91378010836E+02  0.16121381226E+03  0.81720353133E+02 0.  0.
          5    1    5    5  501    0  0.30098340109E+02  0.80893512301E+02  0.31715932097E+01  0.86497511023E+02  0.47000000000E+01 0. -1.
        -13    1    6    6    0    0  0.12374667460E+02 -0.36400593003E+01  0.20879574702E+02  0.24542596973E+02  0.00000000000E+00 0.  1.
         14    1    6    6    0    0 -0.99637596609E+02  0.61492608770E+02  0.70498436134E+02  0.13667121529E+03  0.00000000000E+00 0. -1.
         -5    1    3    3    0  503 -0.29081718439E+02 -0.74654630726E+02 -0.85408149038E+02  0.11719941194E+03  0.47000000000E+01 0.  1.
         11    1    4    4    0    0  0.38518813356E+02 -0.63918772832E+02 -0.13292200054E+03  0.15243873107E+03  0.00000000000E+00 0. -1.
        -12    1    4    4    0    0  0.47727494123E+02 -0.17265821262E+00 -0.21767699873E+03  0.22284797348E+03  0.00000000000E+00 0.  1.
</event>
<event>
12    1  0.8684423E-002  0.1957911E+03  0.7818608E-02  0.1154724E+00
         21   -1    0    0  503  502  0.00000000000E+00  0.00000000000E+00  0.14653844584E+04  0.14653844584E+04  0.00000000000E+00 0. -1.
         21   -1    0    0  501  503 -0.00000000000E+00 -0.00000000000E+00 -0.44678718715E+02  0.44678718715E+02  0.00000000000E+00 0. -1.
          6    2    1    2  501    0  0.18584682778E+02  0.91473236507E+02  0.20693702639E+03  0.28060450516E+03  0.16493396252E+03 0.  0.
         24    2    3    3    0    0 -0.16314878720E+02  0.15227947979E+02  0.16968527929E+03  0.18872901290E+03  0.79545462705E+02 0.  0.
         -6    2    1    2    0  502 -0.18584682778E+02 -0.91473236507E+02  0.12137687133E+04  0.12294586719E+04  0.17210866697E+03 0.  0.
        -24    2    5    5    0    0  0.29760536050E+02 -0.11324323724E+03  0.92800723595E+03  0.93878203882E+03  0.80028533377E+02 0.  0.
          5    1    3    3  501    0  0.34899561498E+02  0.76245288528E+02  0.37251747107E+02  0.91875492260E+02  0.47000000000E+01 0. -1.
        -11    1    4    4    0    0  0.24939776902E+02 -0.16603238584E+02  0.51791511601E+02  0.59833273998E+02  0.00000000000E+00 0.  1.
         12    1    4    4    0    0 -0.41254655622E+02  0.31831186562E+02  0.11789376769E+03  0.12889573890E+03  0.00000000000E+00 0. -1.
         -5    1    5    5    0  502 -0.48345218828E+02  0.21770000734E+02  0.28576147732E+03  0.29067663311E+03  0.47000000000E+01 0.  1.
         11    1    6    6    0    0 -0.12730985098E+02 -0.81611421681E+02  0.69146318051E+03  0.69637908651E+03  0.00000000000E+00 0. -1.
        -12    1    6    6    0    0  0.42491521149E+02 -0.31631815561E+02  0.23654405544E+03  0.24240295232E+03  0.00000000000E+00 0.  1.
</event>
<event>
12    1  0.8684423E-002  0.1968296E+03  0.7818608E-02  0.1152622E+00
         21   -1    0    0  501  502  0.00000000000E+00  0.00000000000E+00  0.11467875924E+03  0.11467875924E+03  0.00000000000E+00 0. -1.
         21   -1    0    0  502  503 -0.00000000000E+00 -0.00000000000E+00 -0.39189112219E+03  0.39189112219E+03  0.00000000000E+00 0.  1.
         -6    2    1    2    0  503  0.18594916023E+02  0.93495205772E+02 -0.23366708568E+03  0.30498099499E+03  0.17124828750E+03 0.  0.
        -24    2    3    3    0    0 -0.11737349774E+02  0.10550263656E+03 -0.10192354419E+03  0.16917718257E+03  0.83450215951E+02 0.  0.
          6    2    1    2  501    0 -0.18594916023E+02 -0.93495205772E+02 -0.43545277270E+02  0.20158888645E+03  0.17220558516E+03 0.  0.
         24    2    5    5    0    0  0.32078746359E+02  0.65175834956E+01 -0.15157443782E+02  0.85837699988E+02  0.77889908041E+02 0.  0.
          5    1    5    5  501    0 -0.50673662382E+02 -0.10001278927E+03 -0.28387833488E+02  0.11575118646E+03  0.47000000000E+01 0. -1.
        -11    1    6    6    0    0 -0.22635927685E+02  0.10454542357E+02 -0.18243063555E+02  0.30894854683E+02  0.00000000000E+00 0.  1.
         12    1    6    6    0    0  0.54714674044E+02 -0.39369588611E+01  0.30856197728E+01  0.54942845305E+02  0.00000000000E+00 0. -1.
         -5    1    3    3    0  503  0.30332265797E+02 -0.12007430788E+02 -0.13174354149E+03  0.13580381242E+03  0.47000000000E+01 0.  1.
         11    1    4    4    0    0 -0.13564963255E+02  0.65666039090E+02 -0.10967893244E+03  0.12855156607E+03  0.00000000000E+00 0. -1.
        -12    1    4    4    0    0  0.18276134806E+01  0.39836597469E+02  0.77553882542E+01  0.40625616499E+02  0.00000000000E+00 0.  1.
</event>
<event>
12    1  0.8684423E-002  0.1893489E+03  0.7818608E-02  0.1159406E+00
         21   -1    0    0  503  502  0.00000000000E+00  0.00000000000E+00  0.35836102462E+03  0.35836102462E+03  0.00000000000E+00 0. -1.
         21   -1    0    0  501  503 -0.00000000000E+00 -0.00000000000E+00 -0.10274590708E+03  0.10274590708E+03  0.00000000000E+00 0. -1.
          6    2    1    2  501    0 -0.71269905785E+02  0.25103274621E+02  0.85617012493E+02  0.20780582719E+03  0.17361859094E+03 0.  0.
         24    2    3    3    0    0 -0.15263554953E+02 -0.14380798795E+02  0.10855932519E+03  0.13538937120E+03  0.78136875194E+02 0.  0.
         -6    2    1    2    0  502  0.71269905785E+02 -0.25103274621E+02  0.16999810505E+03  0.25330110450E+03  0.17190846388E+03 0.  0.
        -24    2    5    5    0    0  0.13797916477E+01 -0.19935745659E+02  0.16324236520E+03  0.18273863976E+03  0.79661803169E+02 0.  0.
          5    1    3    3  501    0 -0.56006350831E+02  0.39484073415E+02 -0.22942312695E+02  0.72416455994E+02  0.47000000000E+01 0. -1.
        -13    1    4    4    0    0  0.23513143390E+02  0.18376983630E+02  0.45906510659E+02  0.54753896302E+02  0.00000000000E+00 0.  1.
         14    1    4    4    0    0 -0.38776698343E+02 -0.32757782424E+02  0.62652814528E+02  0.80635474898E+02  0.00000000000E+00 0. -1.
         -5    1    5    5    0  502  0.69890114137E+02 -0.51675289614E+01  0.67557398490E+01  0.70562464743E+02  0.47000000000E+01 0.  1.
         11    1    6    6    0    0  0.32271271518E+02 -0.35106362246E+02  0.92403240694E+02  0.10398197212E+03  0.00000000000E+00 0. -1.
        -12    1    6    6    0    0 -0.30891479871E+02  0.15170616587E+02  0.70839124511E+02  0.78756667640E+02  0.00000000000E+00 0.  1.
</event>
<event>
12    1  0.8684423E-002  0.2504010E+03  0.7818608E-02  0.1113298E+00
         21   -1    0    0  503  502  0.00000000000E+00  0.00000000000E+00  0.23325371192E+03  0.23325371192E+03  0.00000000000E+00 0. -1.
         21   -1    0    0  501  503 -0.00000000000E+00 -0.00000000000E+00 -0.29547039762E+03  0.29547039762E+03  0.00000000000E+00 0. -1.
          6    2    1    2  501    0  0.90525533565E+02 -0.15688846767E+03  0.50659788813E+02  0.25547418318E+03  0.17289239587E+03 0.  0.
         24    2    3    3    0    0  0.23210333878E+02 -0.16667339384E+02 -0.16736732681E+02  0.85893282020E+02  0.79252872973E+02 0.  0.
         -6    2    1    2    0  502 -0.90525533565E+02  0.15688846767E+03 -0.11287647451E+03  0.27324992636E+03  0.17063282288E+03 0.  0.
        -24    2    5    5    0    0 -0.30710603324E+02  0.16771007050E+03 -0.84180405760E+02  0.20586678805E+03  0.78898572878E+02 0.  0.
          5    1    3    3  501    0  0.67315199687E+02 -0.14022112829E+03  0.67396521494E+02  0.16958090116E+03  0.47000000000E+01 0. -1.
        -11    1    4    4    0    0  0.50948741335E+01  0.31688082137E+01  0.30752632935E+02  0.31332467512E+02  0.00000000000E+00 0.  1.
         12    1    4    4    0    0  0.18115459745E+02 -0.19836147598E+02 -0.47489365616E+02  0.54560814509E+02  0.00000000000E+00 0. -1.
         -5    1    5    5    0  502 -0.59814930241E+02 -0.10821602830E+02 -0.28696068755E+02  0.67383138317E+02  0.47000000000E+01 0.  1.
         11    1    6    6    0    0 -0.30601774022E+02  0.26464560360E+02  0.18210226353E+01  0.40498859883E+02  0.00000000000E+00 0. -1.
        -12    1    6    6    0    0 -0.10882930225E+00  0.14124551014E+03 -0.86001428396E+02  0.16536792816E+03  0.00000000000E+00 0.  1.
</event>
<event>
12    1  0.8684423E-002  0.4079941E+03  0.7818608E-02  0.1041047E+00
         21   -1    0    0  501  502  0.00000000000E+00  0.00000000000E+00  0.12508950901E+03  0.12508950901E+03  0.00000000000E+00 0. -1.
         21   -1    0    0  502  503 -0.00000000000E+00 -0.00000000000E+00 -0.13996904280E+04  0.13996904280E+04  0.00000000000E+00 0. -1.
         -6    2    1    2    0  503 -0.16322381614E+03 -0.33269117546E+03 -0.80657487465E+03  0.90389280388E+03  0.17068608642E+03 0.  0.
        -24    2    3    3    0    0 -0.28599005725E+02 -0.10557055339E+03 -0.33610807829E+03  0.36438496054E+03  0.88570391781E+02 0.  0.
          6    2    1    2  501    0  0.16322381614E+03  0.33269117546E+03 -0.46802604431E+03  0.62088713311E+03  0.17066640421E+03 0.  0.
         24    2    5    5    0    0  0.13209526258E+03  0.23164835504E+03 -0.42363945958E+03  0.50612260327E+03  0.74696579834E+02 0.  0.
          5    1    5    5  501    0  0.31128553565E+02  0.10104282042E+03 -0.44386584726E+02  0.11476452984E+03  0.47000000000E+01 0. -1.
        -13    1    6    6    0    0  0.38681748810E+02  0.10185438781E+03 -0.23355815259E+03  0.25772078816E+03  0.00000000000E+00 0.  1.
         14    1    6    6    0    0  0.93413513768E+02  0.12979396723E+03 -0.19008130699E+03  0.24840181511E+03  0.00000000000E+00 0. -1.
         -5    1    3    3    0  503 -0.13462481042E+03 -0.22712062207E+03 -0.47046679636E+03  0.53950784334E+03  0.47000000000E+01 0.  1.
         11    1    4    4    0    0 -0.42865724500E+02 -0.67095153867E+02 -0.11734502955E+03  0.14180650891E+03  0.00000000000E+00 0. -1.
        -12    1    4    4    0    0  0.14266718775E+02 -0.38475399522E+02 -0.21876304874E+03  0.22257845162E+03  0.00000000000E+00 0.  1.
</event>
<event>
12    1  0.8684423E-002  0.1931383E+03  0.7818608E-02  0.1157555E+00
         21   -1    0    0  503  502  0.00000000000E+00  0.00000000000E+00  0.36512422800E+03  0.36512422800E+03  0.00000000000E+00 0. -1.
         21   -1    0    0  501  503 -0.00000000000E+00 -0.00000000000E+00 -0.11624237100E+03  0.11624237100E+03  0.00000000000E+00 0.  1.
          6    2    1    2  501    0  0.51995389343E+02 -0.43243283432E+02  0.30861403786E+02  0.19558843974E+03  0.18091133032E+03 0.  0.
         24    2    3    3    0    0  0.44558749910E+02 -0.23631953184E+02 -0.39697612093E+02  0.12182820247E+03  0.10354834188E+03 0.  0.
         -6    2    1    2    0  502 -0.51995389343E+02  0.43243283432E+02  0.21802045321E+03  0.28577815926E+03  0.17193817556E+03 0.  0.
        -24    2    5    5    0    0 -0.60899877777E+02 -0.95738125979E+01  0.20035571788E+03  0.22918250199E+03  0.92637748945E+02 0.  0.
          5    1    3    3  501    0  0.74366394331E+01 -0.19611330248E+02  0.70559015879E+02  0.73760237269E+02  0.47000000000E+01 0. -1.
        -13    1    4    4    0    0  0.63928712348E+02 -0.42113017256E+02 -0.32729418982E+01  0.76623094648E+02  0.00000000000E+00 0.  1.
         14    1    4    4    0    0 -0.19369962437E+02  0.18481064072E+02 -0.36424670194E+02  0.45205107818E+02  0.00000000000E+00 0. -1.
         -5    1    5    5    0  502  0.89044884335E+01  0.52817096030E+02  0.17664735328E+02  0.56595657267E+02  0.47000000000E+01 0.  1.
         13    1    6    6    0    0 -0.80261197468E+02  0.33971442874E+00  0.10953652941E+03  0.13579479556E+03  0.00000000000E+00 0. -1.
        -14    1    6    6    0    0  0.19361319691E+02 -0.99135270267E+01  0.90819188474E+02  0.93387706436E+02  0.00000000000E+00 0.  1.
</event>
<event>
12    1  0.8684423E-002  0.2877271E+03  0.7818608E-02  0.1091824E+00
         21   -1    0    0  503  502  0.00000000000E+00  0.00000000000E+00  0.38106781300E+03  0.38106781300E+03  0.00000000000E+00 0.  1.
         21   -1    0    0  501  503 -0.00000000000E+00 -0.00000000000E+00 -0.72687073531E+03  0.72687073531E+03  0.00000000000E+00 0.  1.
          6    2    1    2  501    0 -0.17813100824E+03 -0.14176615450E+03 -0.63767634400E+03  0.69958415319E+03  0.17595047325E+03 0.  0.
         24    2    3    3    0    0 -0.17858607843E+03 -0.10602346143E+03 -0.62076606650E+03  0.65976211554E+03  0.82471680018E+02 0.  0.
         -6    2    1    2    0  502  0.17813100824E+03  0.14176615450E+03  0.29187342169E+03  0.40835439512E+03  0.17243816012E+03 0.  0.
        -24    2    5    5    0    0  0.14968355325E+03  0.37639434727E+02  0.14429070387E+03  0.22544900957E+03  0.78648302773E+02 0.  0.
          5    1    3    3  501    0  0.45507018813E+00 -0.35742693074E+02 -0.16910277495E+02  0.39822037642E+02  0.47000000000E+01 0. -1.
        -11    1    4    4    0    0 -0.12234523438E+03 -0.57848045718E+02 -0.27931927127E+03  0.31037720289E+03  0.00000000000E+00 0.  1.
         12    1    4    4    0    0 -0.56240844045E+02 -0.48175415708E+02 -0.34144679523E+03  0.34938491266E+03  0.00000000000E+00 0. -1.
         -5    1    5    5    0  502  0.28447454982E+02  0.10412671977E+03  0.14758271781E+03  0.18290538555E+03  0.47000000000E+01 0.  1.
         13    1    6    6    0    0  0.32183755783E+02  0.23605294939E+02  0.14227678747E+01  0.39937806073E+02  0.00000000000E+00 0. -1.
        -14    1    6    6    0    0  0.11749979747E+03  0.14034139788E+02  0.14286793600E+03  0.18551120350E+03  0.00000000000E+00 0.  1.
</event>
<event>
12    1  0.8684423E-002  0.2213812E+03  0.7818608E-02  0.1133101E+00
         21   -1    0    0  501  502  0.00000000000E+00  0.00000000000E+00  0.11833583262E+03  0.11833583262E+03  0.00000000000E+00 0.  1.
         21   -1    0    0  502  503 -0.00000000000E+00 -0.00000000000E+00 -0.82001632156E+03  0.82001632156E+03  0.00000000000E+00 0. -1.
         -6    2    1    2    0  503  0.13639777325E+02  0.13824381174E+03 -0.68243301822E+03  0.71744300360E+03  0.17237239932E+03 0.  0.
        -24    2    3    3    0    0  0.23645026456E+02  0.16844943049E+03 -0.55906166634E+03  0.58994765122E+03  0.80956695211E+02 0.  0.
          6    2    1    2  501    0 -0.13639777325E+02 -0.13824381174E+03 -0.19247470724E+02  0.22090915058E+03  0.17068389693E+03 0.  0.
         24    2    5    5    0    0 -0.39349989798E+02 -0.15029861369E+03  0.16091054585E+02  0.17533246085E+03  0.79652086080E+02 0.  0.
          5    1    5    5  501    0  0.25710212473E+02  0.12054801948E+02 -0.35338525309E+02  0.45576689726E+02  0.47000000000E+01 0. -1.
        -13    1    6    6    0    0 -0.48904529260E+02 -0.41077105931E+02  0.15375042878E+02  0.65691502931E+02  0.00000000000E+00 0.  1.
         14    1    6    6    0    0  0.95545394621E+01 -0.10922150776E+03  0.71601170705E+00  0.10964095792E+03  0.00000000000E+00 0. -1.
         -5    1    3    3    0  503 -0.10005249131E+02 -0.30205618748E+02 -0.12337135188E+03  0.12749535238E+03  0.47000000000E+01 0.  1.
         11    1    4    4    0    0  0.28129379370E+01  0.29735303371E+02 -0.23419378213E+03  0.23609072086E+03  0.00000000000E+00 0. -1.
        -12    1    4    4    0    0  0.20832088519E+02  0.13871412712E+03 -0.32486788421E+03  0.35385693037E+03  0.00000000000E+00 0.  1.
</event>
<event>
12    1  0.8684423E-002  0.1840813E+03  0.7818608E-02  0.1164127E+00
         21   -1    0    0  503  502  0.00000000000E+00  0.00000000000E+00  0.23803025387E+03  0.23803025387E+03  0.00000000000E+00 0.  1.
         21   -1    0    0  501  503 -0.00000000000E+00 -0.00000000000E+00 -0.14538779681E+03  0.14538779681E+03  0.00000000000E+00 0.  1.
          6    2    1    2  501    0  0.65609419803E+02 -0.46852773627E+01  0.15691472925E+02  0.18474890630E+03  0.17192843937E+03 0.  0.
         24    2    3    3    0    0  0.93347495756E+02  0.38733555267E+02 -0.59117143026E+01  0.12868302021E+03  0.79437573327E+02 0.  0.
         -6    2    1    2    0  502 -0.65609419803E+02  0.46852773627E+01  0.76950984140E+02  0.19866914438E+03  0.17094275995E+03 0.  0.
        -24    2    5    5    0    0  0.16753540092E+01  0.50169308174E+02  0.10270256659E+02  0.93481467998E+02  0.78189132196E+02 0.  0.
          5    1    3    3  501    0 -0.27738075953E+02 -0.43418832630E+02  0.21603187227E+02  0.56065886088E+02  0.47000000000E+01 0. -1.
        -13    1    4    4    0    0  0.96240965085E+02  0.12969880883E+02  0.10995619195E+02  0.97731493451E+02  0.00000000000E+00 0.  1.
         14    1    4    4    0    0 -0.28934693293E+01  0.25763674384E+02 -0.16907333498E+02  0.30951526756E+02  0.00000000000E+00 0. -1.
         -5    1    5    5    0  502 -0.67284773812E+02 -0.45484030811E+02  0.66680727481E+02  0.10518767638E+03  0.47000000000E+01 0.  1.
         11    1    6    6    0    0  0.23649007171E+02 -0.10899943088E+02  0.11736453210E+02  0.28562714042E+02  0.00000000000E+00 0. -1.
        -12    1    6    6    0    0 -0.21973653162E+02  0.61069251261E+02 -0.14661965506E+01  0.64918753956E+02  0.00000000000E+00 0.  1.
</event>
<event>
12    1  0.8684423E-002  0.2000746E+03  0.7818608E-02  0.1150345E+00
         21   -1    0    0  503  502  0.00000000000E+00  0.00000000000E+00  0.18431104039E+03  0.18431104039E+03  0.00000000000E+00 0.  1.
         21   -1    0    0  501  503 -0.00000000000E+00 -0.00000000000E+00 -0.21869873720E+03  0.21869873720E+03  0.00000000000E+00 0.  1.
          6    2    1    2  501    0  0.62825687887E+02  0.79842677167E+02  0.13147720513E+02  0.19736571677E+03  0.16869630537E+03 0.  0.
         24    2    3    3    0    0  0.14593031940E+02 -0.20248357799E+02 -0.60544754471E+01  0.84514404368E+02  0.80517546523E+02 0.  0.
         -6    2    1    2    0  502 -0.62825687887E+02 -0.79842677167E+02 -0.47535417330E+02  0.20564406083E+03  0.17235992486E+03 0.  0.
        -24    2    5    5    0    0 -0.42903137261E+02 -0.55659594774E+01  0.29125023721E+02  0.96957115720E+02  0.81735892913E+02 0.  0.
          5    1    3    3  501    0  0.48232655947E+02  0.10009103497E+03  0.19202195960E+02  0.11285131240E+03  0.47000000000E+01 0. -1.
        -11    1    4    4    0    0  0.22687158687E+02 -0.36025898121E+02 -0.31879702567E+02  0.53187291156E+02  0.00000000000E+00 0.  1.
         12    1    4    4    0    0 -0.80941267475E+01  0.15777540322E+02  0.25825227120E+02  0.31327113213E+02  0.00000000000E+00 0. -1.
         -5    1    5    5    0  502 -0.19922550626E+02 -0.74276717689E+02 -0.76660441051E+02  0.10868694511E+03  0.47000000000E+01 0.  1.
         13    1    6    6    0    0 -0.35351407647E+02  0.10187690196E+02 -0.22043416777E+02  0.42888498194E+02  0.00000000000E+00 0. -1.
        -14    1    6    6    0    0 -0.75517296144E+01 -0.15753649674E+02  0.51168440498E+02  0.54068617526E+02  0.00000000000E+00 0.  1.
</event>
<event>
12    1  0.8684423E-002  0.1927787E+03  0.7818608E-02  0.1156046E+00
         21   -1    0    0  503  502  0.00000000000E+00  0.00000000000E+00  0.21897831220E+03  0.21897831220E+03  0.00000000000E+00 0. -1.
         21   -1    0    0  501  503 -0.00000000000E+00 -0.00000000000E+00 -0.21571455235E+03  0.21571455235E+03  0.00000000000E+00 0.  1.
          6    2    1    2  501    0 -0.81643828462E+02 -0.26484314165E+02 -0.99030437910E+02  0.21645511494E+03  0.17227494167E+03 0.  0.
         24    2    3    3    0    0 -0.92447599123E+02  0.24422413789E+02 -0.10625156985E+03  0.16370617033E+03  0.79795370966E+02 0.  0.
         -6    2    1    2    0  502  0.81643828462E+02  0.26484314165E+02  0.10229419776E+03  0.21823774961E+03  0.17261656594E+03 0.  0.
        -24    2    5    5    0    0  0.80911805359E+02 -0.22638313070E+02  0.11943588515E+03  0.16599317275E+03  0.78927747174E+02 0.  0.
          5    1    3    3  501    0  0.10803770660E+02 -0.50906727954E+02  0.72211319429E+01  0.52748944615E+02  0.47000000000E+01 0. -1.
        -11    1    4    4    0    0 -0.11779653055E+02  0.10829410480E+02 -0.74102652074E+02  0.75810549410E+02  0.00000000000E+00 0.  1.
         12    1    4    4    0    0 -0.80667946068E+02  0.13593003309E+02 -0.32148917779E+02  0.87895620915E+02  0.00000000000E+00 0. -1.
         -5    1    5    5    0  502  0.73202310383E+00  0.49122627236E+02 -0.17141687391E+02  0.52244576857E+02  0.47000000000E+01 0.  1.
         13    1    6    6    0    0  0.76996412693E+02  0.10800290340E+02  0.62111683013E+02  0.99513592065E+02  0.00000000000E+00 0. -1.
        -14    1    6    6    0    0  0.39153926655E+01 -0.33438603410E+02  0.57324202137E+02  0.66479580688E+02  0.00000000000E+00 0.  1.
</event>
<event>
12    1  0.8684423E-002  0.2410525E+03  0.7818608E-02  0.1119095E+00
         21   -1    0    0  503  502  0.00000000000E+00  0.00000000000E+00  0.18573042921E+03  0.18573042921E+03  0.00000000000E+00 0. -1.
         21   -1    0    0  501  503 -0.00000000000E+00 -0.00000000000E+00 -0.39982761524E+03  0.39982761524E+03  0.00000000000E+00 0.  1.
          6    2    1    2  501    0  0.15404892828E+03  0.70238177695E+02 -0.24360569680E+03  0.34270609906E+03  0.17157873094E+03 0.  0.
         24    2    3    3    0    0  0.16806667557E+03  0.80952560376E+02 -0.25129066493E+03  0.32289590042E+03  0.79467224418E+02 0.  0.
         -6    2    1    2    0  502 -0.15404892828E+03 -0.70238177695E+02  0.29508510775E+02  0.24285194538E+03  0.17158625020E+03 0.  0.
        -24    2    5    5    0    0 -0.27759505938E+02 -0.35591417220E+01 -0.28675758250E+02  0.88570996475E+02  0.78989015980E+02 0.  0.
          5    1    3    3  501    0 -0.14017747289E+02 -0.10714382681E+02  0.76849681274E+01  0.19810198647E+02  0.47000000000E+01 0. -1.
        -13    1    4    4    0    0  0.58308049875E+02  0.24078141912E+02 -0.15121530057E+03  0.16384643031E+03  0.00000000000E+00 0.  1.
         14    1    4    4    0    0  0.10975862570E+03  0.56874418463E+02 -0.10007536436E+03  0.15904947011E+03  0.00000000000E+00 0. -1.
         -5    1    5    5    0  502 -0.12628942234E+03 -0.66679035973E+02  0.58184269025E+02  0.15428094891E+03  0.47000000000E+01 0.  1.
         13    1    6    6    0    0 -0.11910749937E+01 -0.37418967691E+02 -0.10971664292E+01  0.37453992803E+02  0.00000000000E+00 0. -1.
        -14    1    6    6    0    0 -0.26568430944E+02  0.33859825969E+02 -0.27578591820E+02  0.51117003671E+02  0.00000000000E+00 0.  1.
</event>
<event>
12    1  0.8684423E-002  0.1781080E+03  0.7818608E-02  0.1169776E+00
         21   -1    0    0  501  502  0.00000000000E+00  0.00000000000E+00  0.23569669399E+03  0.23569669399E+03  0.00000000000E+00 0. -1.
         21   -1    0    0  502  503 -0.00000000000E+00 -0.00000000000E+00 -0.22351379466E+03  0.22351379466E+03  0.00000000000E+00 0. -1.
         -6    2    1    2    0  503  0.25639278649E+02  0.41068860130E+02  0.15124336333E+03  0.23366004154E+03  0.17140138908E+03 0.  0.
        -24    2    3    3    0    0 -0.16585018710E+02  0.27648593820E+01  0.15638372134E+03  0.17622659273E+03  0.79481044232E+02 0.  0.
          6    2    1    2  501    0 -0.25639278649E+02 -0.41068860130E+02 -0.13906046400E+03  0.22555044712E+03  0.17085422928E+03 0.  0.
         24    2    5    5    0    0  0.36061782322E+02 -0.16738587575E+02 -0.20665975064E+02  0.89762641705E+02  0.77779282988E+02 0.  0.
          5    1    5    5  501    0 -0.61701060972E+02 -0.24330272555E+02 -0.11839448894E+03  0.13578780541E+03  0.47000000000E+01 0. -1.
        -11    1    6    6    0    0  0.45707072791E+01 -0.96021317788E+01  0.28794349072E+02  0.30695387898E+02  0.00000000000E+00 0.  1.
         12    1    6    6    0    0  0.31491075043E+02 -0.71364557961E+01 -0.49460324135E+02  0.59067253807E+02  0.00000000000E+00 0. -1.
         -5    1    3    3    0  503  0.42224297359E+02  0.38304000748E+02 -0.51403580132E+01  0.57433448802E+02  0.47000000000E+01 0.  1.
         13    1    4    4    0    0 -0.24667130105E+02  0.22373150293E+02  0.15060757619E+03  0.15424547698E+03  0.00000000000E+00 0. -1.
        -14    1    4    4    0    0  0.80821113956E+01 -0.19608290911E+02  0.57761451519E+01  0.21981115756E+02  0.00000000000E+00 0.  1.
</event>
<event>
12    1  0.8684423E-002  0.2791606E+03  0.7818608E-02  0.1096422E+00
         21   -1    0    0  503  502  0.00000000000E+00  0.00000000000E+00  0.24691190089E+03  0.24691190089E+03  0.00000000000E+00 0.  1.
         21   -1    0    0  501  503 -0.00000000000E+00 -0.00000000000E+00 -0.31745586402E+03  0.31745586402E+03  0.00000000000E+00 0.  1.
          6    2    1    2  501    0  0.11929799465E+03 -0.18030555577E+03 -0.67390388816E+02  0.28717956924E+03  0.17660276191E+03 0.  0.
         24    2    3    3    0    0  0.10035569959E+03 -0.18028948448E+03 -0.59069836937E+01  0.22267290365E+03  0.83503083221E+02 0.  0.
         -6    2    1    2    0  502 -0.11929799465E+03  0.18030555577E+03 -0.31535743124E+01  0.27718819567E+03  0.17343945865E+03 0.  0.
        -24    2    5    5    0    0 -0.16914768164E+02  0.45911814689E+02 -0.43448450169E+02  0.10343616049E+03  0.80107848336E+02 0.  0.
          5    1    3    3  501    0  0.18942295060E+02 -0.16071291655E-01 -0.61483405122E+02  0.64506665592E+02  0.47000000000E+01 0. -1.
        -13    1    4    4    0    0  0.35036339310E+01 -0.86985202929E+02  0.82489724352E+01  0.87445677569E+02  0.00000000000E+00 0.  1.
         14    1    4    4    0    0  0.96852065663E+02 -0.93304281550E+02 -0.14155956129E+02  0.13522722608E+03  0.00000000000E+00 0. -1.
         -5    1    5    5    0  502 -0.10238322649E+03  0.13439374108E+03  0.40294875857E+02  0.17375203518E+03  0.47000000000E+01 0.  1.
         11    1    6    6    0    0 -0.43054616170E+02  0.32119229086E+01 -0.26098357386E+02  0.50449387316E+02  0.00000000000E+00 0. -1.
        -12    1    6    6    0    0  0.26139848007E+02  0.42699891781E+02 -0.17350092783E+02  0.52986773175E+02  0.00000000000E+00 0.  1.
</event>
<event>
12    1  0.8684423E-002  0.5327141E+03  0.7818608E-02  0.1005583E+00
         21   -1    0    0  503  502  0.00000000000E+00  0.00000000000E+00  0.11445885092E+04  0.11445885092E+04  0.00000000000E+00 0.  1.
         21   -1    0    0  501  503 -0.00000000000E+00 -0.00000000000E+00 -0.95536212647E+03  0.95536212647E+03  0.00000000000E+00 0. -1.
          6    2    1    2  501    0  0.64400218755E+02  0.50022063061E+03 -0.80893786649E+03  0.96852845997E+03  0.17116903477E+03 0.  0.
         24    2    3    3    0    0  0.15793694878E+02  0.10281544951E+03 -0.22544289945E+03  0.26086898063E+03  0.80047902467E+02 0.  0.
         -6    2    1    2    0  502 -0.64400218755E+02 -0.50022063061E+03  0.99816424924E+03  0.11314221757E+04  0.17151152669E+03 0.  0.
        -24    2    5    5    0    0  0.10020380896E+02 -0.37270169921E+03  0.77695516727E+03  0.86542395869E+03  0.79324218861E+02 0.  0.
          5    1    3    3  501    0  0.48606523877E+02  0.39740518111E+03 -0.58349496704E+03  0.70765947934E+03  0.47000000000E+01 0. -1.
        -13    1    4    4    0    0  0.28507667879E+02  0.28381688742E+02 -0.26745052903E+02  0.48306368509E+02  0.00000000000E+00 0.  1.
         14    1    4    4    0    0 -0.12713973001E+02  0.74433760764E+02 -0.19869784654E+03  0.21256261212E+03  0.00000000000E+00 0. -1.
         -5    1    5    5    0  502 -0.74420599651E+02 -0.12751893140E+03  0.22120908196E+03  0.26599821703E+03  0.47000000000E+01 0.  1.
         11    1    6    6    0    0  0.35174801683E+02 -0.10912360954E+03  0.19808195034E+03  0.22887046092E+03  0.00000000000E+00 0. -1.
        -12    1    6    6    0    0 -0.25154420787E+02 -0.26357808967E+03  0.57887321694E+03  0.63655349777E+03  0.00000000000E+00 0.  1.
</event>
<event>
12    1  0.8684423E-002  0.1768141E+03  0.7818608E-02  0.1171183E+00
         21   -1    0    0  503  502  0.00000000000E+00  0.00000000000E+00  0.12469895463E+03  0.12469895463E+03  0.00000000000E+00 0. -1.
         21   -1    0    0  501  503 -0.00000000000E+00 -0.00000000000E+00 -0.26203265462E+03  0.26203265462E+03  0.00000000000E+00 0. -1.
          6    2    1    2  501    0 -0.31896438166E+02  0.28463461028E+02 -0.25727929905E+02  0.17764057380E+03  0.17048957651E+03 0.  0.
         24    2    3    3    0    0 -0.46928689228E+02  0.79880689261E+02 -0.26530890105E+02  0.12385921386E+03  0.77807392578E+02 0.  0.
         -6    2    1    2    0  502  0.31896438166E+02 -0.28463461028E+02 -0.11160577009E+03  0.20909103546E+03  0.17156824243E+03 0.  0.
        -24    2    5    5    0    0 -0.34202770061E+02 -0.56781666971E+02 -0.53355360907E+02  0.11642914315E+03  0.79466745577E+02 0.  0.
          5    1    3    3  501    0  0.15032251061E+02 -0.51417228233E+02  0.80296020049E+00  0.53781359932E+02  0.47000000000E+01 0. -1.
        -13    1    4    4    0    0  0.20921054312E+02  0.28192159316E+02 -0.13310565935E+02  0.37545432824E+02  0.00000000000E+00 0.  1.
         14    1    4    4    0    0 -0.67849743540E+02  0.51688529944E+02 -0.13220324170E+02  0.86313781040E+02  0.00000000000E+00 0. -1.
         -5    1    5    5    0  502  0.66099208227E+02  0.28318205943E+02 -0.58250409183E+02  0.92661892308E+02  0.47000000000E+01 0.  1.
         13    1    6    6    0    0  0.48649160902E+01  0.16275062641E+02 -0.22120030045E+02  0.27889797448E+02  0.00000000000E+00 0. -1.
        -14    1    6    6    0    0 -0.39067686151E+02 -0.73056729612E+02 -0.31235330862E+02  0.88539345699E+02  0.00000000000E+00 0.  1.
</event>
<event>
12    1  0.8684423E-002  0.1796766E+03  0.7818608E-02  0.1169304E+00
         21   -1    0    0  503  502  0.00000000000E+00  0.00000000000E+00  0.81980424675E+02  0.81980424675E+02  0.00000000000E+00 0. -1.
         21   -1    0    0  501  503 -0.00000000000E+00 -0.00000000000E+00 -0.38346753132E+03  0.38346753132E+03  0.00000000000E+00 0. -1.
          6    2    1    2  501    0 -0.53838976400E+02 -0.73403327877E+01 -0.15363778582E+03  0.23276126180E+03  0.16619482512E+03 0.  0.
         24    2    3    3    0    0 -0.54232249097E+02 -0.68278681665E+02 -0.88209552057E+02  0.14322590119E+03  0.71621354945E+02 0.  0.
         -6    2    1    2    0  502  0.53838976400E+02  0.73403327877E+01 -0.14784932083E+03  0.23268669420E+03  0.17126342319E+03 0.  0.
        -24    2    5    5    0    0  0.54292887236E+02 -0.55541628222E+02 -0.64357901366E+02  0.12805756738E+03  0.78893669101E+02 0.  0.
          5    1    3    3  501    0  0.39327269733E+00  0.60938348877E+02 -0.65428233761E+02  0.89535360614E+02  0.47000000000E+01 0. -1.
        -11    1    4    4    0    0  0.11892168271E+02 -0.38543880346E+02 -0.31679929079E+02  0.51290079789E+02  0.00000000000E+00 0.  1.
         12    1    4    4    0    0 -0.66124417368E+02 -0.29734801319E+02 -0.56529622978E+02  0.91935821396E+02  0.00000000000E+00 0. -1.
         -5    1    5    5    0  502 -0.45391083556E+00  0.62881961010E+02 -0.83491419465E+02  0.10462912682E+03  0.47000000000E+01 0.  1.
         11    1    6    6    0    0  0.64125970340E+02 -0.10959720145E+02 -0.38113803961E+02  0.75398392490E+02  0.00000000000E+00 0. -1.
        -12    1    6    6    0    0 -0.98330831043E+01 -0.44581908077E+02 -0.26244097406E+02  0.52659174887E+02  0.00000000000E+00 0.  1.
</event>
<event>
12    1  0.8684423E-002  0.1721723E+03  0.7818608E-02  0.1175774E+00
         21   -1    0    0  503  502  0.00000000000E+00  0.00000000000E+00  0.54408593114E+02  0.54408593114E+02  0.00000000000E+00 0. -1.
         21   -1    0    0  501  503 -0.00000000000E+00 -0.00000000000E+00 -0.58924980368E+03  0.58924980368E+03  0.00000000000E+00 0. -1.
          6    2    1    2  501    0 -0.10984623092E+02 -0.75390497339E+01 -0.35739063636E+03  0.39640950782E+03  0.17098225556E+03 0.  0.
         24    2    3    3    0    0  0.24034710135E+01 -0.68947163394E+02 -0.25939761816E+03  0.27989805300E+03  0.79349276967E+02 0.  0.
         -6    2    1    2    0  502  0.10984623092E+02  0.75390497339E+01 -0.17745057420E+03  0.24724888897E+03  0.17165607358E+03 0.  0.
        -24    2    5    5    0    0 -0.28763855152E+02  0.34844769094E+01 -0.18830835627E+03  0.20557920557E+03  0.77222223339E+02 0.  0.
          5    1    3    3  501    0 -0.13388094106E+02  0.61408113660E+02 -0.97993018208E+02  0.11651145482E+03  0.47000000000E+01 0. -1.
        -13    1    4    4    0    0 -0.39373383067E+01  0.13117736729E+02 -0.95668898677E+02  0.96644274656E+02  0.00000000000E+00 0.  1.
         14    1    4    4    0    0  0.63408093202E+01 -0.82064900123E+02 -0.16372871948E+03  0.18325377834E+03  0.00000000000E+00 0. -1.
         -5    1    5    5    0  502  0.39748478244E+02  0.40545728245E+01  0.10857782071E+02  0.41669683404E+02  0.47000000000E+01 0.  1.
         11    1    6    6    0    0  0.11598714737E+02 -0.88462998363E+01 -0.14268523682E+03  0.14342895109E+03  0.00000000000E+00 0. -1.
        -12    1    6    6    0    0 -0.40362569889E+02  0.12330776746E+02 -0.45623119454E+02  0.62150254479E+02  0.00000000000E+00 0.  1.
</event>
<event>
12    1  0.8684423E-002  0.1998832E+03  0.7818608E-02  0.1153298E+00
         21   -1    0    0  501  502  0.00000000000E+00  0.00000000000E+00  0.92009519648E+03  0.92009519648E+03  0.00000000000E+00 0.  1.
         21   -1    0    0  502  503 -0.00000000000E+00 -0.00000000000E+00 -0.40304662622E+02  0.40304662622E+02  0.00000000000E+00 0.  1.
         -6    2    1    2    0  503 -0.44837562663E+02  0.49675718601E+02  0.49356443154E+03  0.53250272968E+03  0.18834867928E+03 0.  0.
        -24    2    3    3    0    0  0.28312152126E+02 -0.20941239275E+02  0.30927004342E+03  0.32196972275E+03  0.82319069174E+02 0.  0.
          6    2    1    2  501    0  0.44837562663E+02 -0.49675718601E+02  0.38622610232E+03  0.42789712943E+03  0.17160206064E+03 0.  0.
         24    2    5    5    0    0  0.96050490351E+02 -0.41395008050E+02  0.25848528079E+03  0.28994372564E+03  0.79457411668E+02 0.  0.
          5    1    5    5  501    0 -0.51212927688E+02 -0.82807105506E+01  0.12774082153E+03  0.13795340378E+03  0.47000000000E+01 0. -1.
        -13    1    6    6    0    0  0.73591736588E+02 -0.63228282952E+02  0.16571861374E+03  0.19203181611E+03  0.00000000000E+00 0.  1.
         14    1    6    6    0    0  0.22458753763E+02  0.21833274901E+02  0.92766667045E+02  0.97911909532E+02  0.00000000000E+00 0. -1.
         -5    1    3    3    0  503 -0.73149714789E+02  0.70616957876E+02  0.18429438812E+03  0.21053300693E+03  0.47000000000E+01 0.  1.
         11    1    4    4    0    0  0.10817657548E+02 -0.45607147045E+02  0.98991014997E+02  0.10952741495E+03  0.00000000000E+00 0. -1.
        -12    1    4    4    0    0  0.17494494578E+02  0.24665907770E+02  0.21027902843E+03  0.21244230780E+03  0.00000000000E+00 0.  1.
</event>
<event>
12    1  0.8684423E-002  0.2328013E+03  0.7818608E-02  0.1125097E+00
         21   -1    0    0  501  502  0.00000000000E+00  0.00000000000E+00  0.79934371959E+03  0.79934371959E+03  0.00000000000E+00 0.  1.
         21   -1    0    0  502  503 -0.00000000000E+00 -0.00000000000E+00 -0.68076570667E+02  0.68076570667E+02  0.00000000000E+00 0.  1.
         -6    2    1    2    0  503 -0.21513991049E+02  0.15498356668E+03  0.31584519418E+03  0.39237055367E+03  0.17237664270E+03 0.  0.
        -24    2    3    3    0    0  0.17405811347E+02  0.75965308299E+02  0.27175949412E+03  0.29375881438E+03  0.79795539024E+02 0.  0.
          6    2    1    2  501    0  0.21513991049E+02 -0.15498356668E+03  0.41542195475E+03  0.47504973659E+03  0.16915700991E+03 0.  0.
         24    2    5    5    0    0 -0.68575671489E+01 -0.14669679680E+03  0.21278162300E+03  0.27021123943E+03  0.78556466381E+02 0.  0.
          5    1    5    5  501    0  0.28371558198E+02 -0.82867698804E+01  0.20264033174E+03  0.20483849716E+03  0.47000000000E+01 0. -1.
        -11    1    6    6    0    0  0.21747063110E+02 -0.80466648865E+02  0.16136063317E+03  0.18161792387E+03  0.00000000000E+00 0.  1.
         12    1    6    6    0    0 -0.28604630259E+02 -0.66230147930E+02  0.51420989836E+02  0.88593315565E+02  0.00000000000E+00 0. -1.
         -5    1    3    3    0  503 -0.38919802396E+02  0.79018258377E+02  0.44085700057E+02  0.98611739286E+02  0.47000000000E+01 0.  1.
         11    1    4    4    0    0 -0.23925629955E+02 -0.32741107552E+00  0.74789309030E+02  0.78523778003E+02  0.00000000000E+00 0. -1.
        -12    1    4    4    0    0  0.41331441302E+02  0.76292719374E+02  0.19697018509E+03  0.21523503638E+03  0.00000000000E+00 0.  1.
</event>
<event>
12    1  0.8684423E-002  0.2326800E+03  0.7818608E-02  0.1125885E+00
         21   -1    0    0  501  502  0.00000000000E+00  0.00000000000E+00  0.19016763547E+03  0.19016763547E+03  0.00000000000E+00 0. -1.
         21   -1    0    0  502  503 -0.00000000000E+00 -0.00000000000E+00 -0.27699044368E+03  0.27699044368E+03  0.00000000000E+00 0.  1.
         -6    2    1    2    0  503 -0.13909738369E+03  0.70634089196E+02 -0.42379197645E+02  0.23650792831E+03  0.17263472146E+03 0.  0.
        -24    2    3    3    0    0 -0.74276626190E+02  0.93303217664E+02 -0.70267857522E+02  0.16224160123E+03  0.84630123146E+02 0.  0.
          6    2    1    2  501    0  0.13909738369E+03 -0.70634089196E+02 -0.44443610567E+02  0.23065015085E+03  0.16397256130E+03 0.  0.
         24    2    5    5    0    0  0.62576155320E+02 -0.95348372915E+02 -0.30750803365E+01  0.14009773782E+03  0.81307026710E+02 0.  0.
          5    1    5    5  501    0  0.76521228369E+02  0.24714283719E+02 -0.41368530231E+02  0.90552413023E+02  0.47000000000E+01 0. -1.
        -13    1    6    6    0    0 -0.50629699040E+01 -0.42552258773E+02 -0.27459205634E+02  0.50895347184E+02  0.00000000000E+00 0.  1.
         14    1    6    6    0    0  0.67639125224E+02 -0.52796114142E+02  0.24384125297E+02  0.89202390641E+02  0.00000000000E+00 0. -1.
         -5    1    3    3    0  503 -0.64820757499E+02 -0.22669128468E+02  0.27888659876E+02  0.74266327080E+02  0.47000000000E+01 0.  1.
         11    1    4    4    0    0  0.13209427048E+02  0.26732954495E+02  0.32435591176E+01  0.29994341045E+02  0.00000000000E+00 0. -1.
        -12    1    4    4    0    0 -0.87486053238E+02  0.66570263169E+02 -0.73511416639E+02  0.13224726018E+03  0.00000000000E+00 0.  1.
</event>
<event>
12    1  0.8684423E-002  0.1884727E+03  0.7818608E-02  0.1159993E+00
         21   -1    0    0  503  502  0.00000000000E+00  0.00000000000E+00  0.83586318120E+03  0.83586318120E+03  0.00000000000E+00 0.  1.
         21   -1    0    0  501  503 -0.00000000000E+00 -0.00000000000E+00 -0.43384426428E+02  0.43384426428E+02  0.00000000000E+00 0.  1.
          6    2    1    2  501    0 -0.77742420944E+02  0.10655286138E+02  0.32909583135E+03  0.37924400396E+03  0.17136081578E+03 0.  0.
         24    2    3    3    0    0 -0.11847646856E+03  0.20127272991E+02  0.22543958155E+03  0.26737046243E+03  0.78880786819E+02 0.  0.
         -6    2    1    2    0  502  0.77742420944E+02 -0.10655286138E+02  0.46338292342E+03  0.50000360367E+03  0.17065301296E+03 0.  0.
        -24    2    5    5    0    0  0.74336997992E+02 -0.19595172874E+01  0.47333914433E+03  0.48556651130E+03  0.78708718460E+02 0.  0.
          5    1    3    3  501    0  0.40734047621E+02 -0.94719868536E+01  0.10365624980E+03  0.11187354152E+03  0.47000000000E+01 0. -1.
        -13    1    4    4    0    0 -0.83653695570E+02  0.15414427687E+02  0.21420774483E+03  0.23047885653E+03  0.00000000000E+00 0.  1.
         14    1    4    4    0    0 -0.34822772995E+02  0.47128453039E+01  0.11231836727E+02  0.36891605904E+02  0.00000000000E+00 0. -1.
         -5    1    5    5    0  502  0.34054229514E+01 -0.86957688503E+01 -0.99562209101E+01  0.14437092373E+02  0.47000000000E+01 0.  1.
         11    1    6    6    0    0  0.68333735145E+01 -0.17585647149E+02  0.22184553115E+02  0.29122231648E+02  0.00000000000E+00 0. -1.
        -12    1    6    6    0    0  0.67503624478E+02  0.15626129861E+02  0.45115459122E+03  0.45644427965E+03  0.00000000000E+00 0.  1.
</event>
<event>
12    1  0.8684423E-002  0.1790739E+03  0.7818608E-02  0.1168859E+00
         21   -1    0    0  503  502  0.00000000000E+00  0.00000000000E+00  0.98353479359E+02  0.98353479359E+02  0.00000000000E+00 0. -1.
         21   -1    0    0  501  503 -0.00000000000E+00 -0.00000000000E+00 -0.43531573838E+03  0.43531573838E+03  0.00000000000E+00 0. -1.
          6    2    1    2  501    0 -0.46014841204E+02  0.12071080760E+02 -0.30265752082E+03  0.35133903766E+03  0.17197228808E+03 0.  0.
         24    2    3    3    0    0 -0.10043946996E+02 -0.59139939880E+02 -0.16900403504E+03  0.19561409118E+03  0.78128710792E+02 0.  0.
         -6    2    1    2    0  502  0.46014841204E+02 -0.12071080760E+02 -0.34304738194E+02  0.18233018008E+03  0.17263951721E+03 0.  0.
        -24    2    5    5    0    0  0.18210664338E+02  0.15320046567E+02  0.44962154664E+02  0.93850372154E+02  0.78866753952E+02 0.  0.
          5    1    3    3  501    0 -0.35970894208E+02  0.71211020640E+02 -0.13365348579E+03  0.15572494647E+03  0.47000000000E+01 0. -1.
        -13    1    4    4    0    0 -0.99754994417E+01  0.17334113554E+01  0.49834853716E+01  0.11284964798E+02  0.00000000000E+00 0.  1.
         14    1    4    4    0    0 -0.68447554013E-01 -0.60873351236E+02 -0.17398752041E+03  0.18432912638E+03  0.00000000000E+00 0. -1.
         -5    1    5    5    0  502  0.27804176866E+02 -0.27391127327E+02 -0.79266892858E+02  0.88479807927E+02  0.47000000000E+01 0.  1.
         11    1    6    6    0    0  0.43387203762E+01 -0.21789307704E+02  0.49222899175E+02  0.54004557474E+02  0.00000000000E+00 0. -1.
        -12    1    6    6    0    0  0.13871943962E+02  0.37109354272E+02 -0.42607445110E+01  0.39845814680E+02  0.00000000000E+00 0.  1.
</event>
<event>
12    1  0.8684423E-002  0.1995526E+03  0.7818608E-02  0.1150459E+00
         21   -1    0    0  503  502  0.00000000000E+00  0.00000000000E+00  0.91319198027E+03  0.91319198027E+03  0.00000000000E+00 0.  1.
         21   -1    0    0  501  503 -0.00000000000E+00 -0.00000000000E+00 -0.44599434729E+02  0.44599434729E+02  0.00000000000E+00 0.  1.
          6    2    1    2  501    0  0.98711443764E+02 -0.15939564265E+02  0.34945846480E+03  0.40162469267E+03  0.17083078266E+03 0.  0.
         24    2    3    3    0    0  0.12041780953E+03  0.13876067768E+02  0.20853973974E+03  0.25588411733E+03  0.85409977996E+02 0.  0.
         -6    2    1    2    0  502 -0.98711443764E+02  0.15939564265E+02  0.51913408074E+03  0.55616672232E+03  0.17269397905E+03 0.  0.
        -24    2    5    5    0    0 -0.27830070880E+02 -0.42324827310E+02  0.17238592035E+03  0.19745334778E+03  0.81884156965E+02 0.  0.
          5    1    3    3  501    0 -0.21706365766E+02 -0.29815632033E+02  0.14091872506E+03  0.14574057534E+03  0.47000000000E+01 0. -1.
        -13    1    4    4    0    0  0.82558402858E+02  0.21498383091E+02  0.65034566949E+02  0.10727332034E+03  0.00000000000E+00 0.  1.
         14    1    4    4    0    0  0.37859406672E+02 -0.76223153226E+01  0.14350517279E+03  0.14861079699E+03  0.00000000000E+00 0. -1.
         -5    1    5    5    0  502 -0.70881372884E+02  0.58264391574E+02  0.34674816038E+03  0.35871337454E+03  0.47000000000E+01 0.  1.
         11    1    6    6    0    0  0.40673791416E+01 -0.45849522740E+01  0.13587707706E+03  0.13601523971E+03  0.00000000000E+00 0. -1.
        -12    1    6    6    0    0 -0.31897450022E+02 -0.37739875036E+02  0.36508843288E+02  0.61438108075E+02  0.00000000000E+00 0.  1.
</event>
<event>
12    1  0.8684423E-002  0.1739764E+03  0.7818608E-02  0.1174199E+00
         21   -1    0    0  501  502  0.00000000000E+00  0.00000000000E+00  0.36492902850E+02  0.36492902850E+02  0.00000000000E+00 0. -1.
         21   -1    0    0  502  503 -0.00000000000E+00 -0.00000000000E+00 -0.12474470070E+04  0.12474470070E+04  0.00000000000E+00 0. -1.
         -6    2    1    2    0  503 -0.16562049738E+02  0.31785357838E+02 -0.97873425126E+03  0.99377813268E+03  0.16849223112E+03 0.  0.
        -24    2    3    3    0    0 -0.10304202310E+02 -0.16304842959E+02 -0.87779213854E+03  0.88169232543E+03  0.80562359399E+02 0.  0.
          6    2    1    2  501    0  0.16562049738E+02 -0.31785357838E+02 -0.23221985294E+03  0.29016177721E+03  0.17024449005E+03 0.  0.
         24    2    5    5    0    0  0.52015142187E+02 -0.85421168864E+00 -0.64585682638E+02  0.11598668537E+03  0.81088199431E+02 0.  0.
          5    1    5    5  501    0 -0.35453092449E+02 -0.30931146149E+02 -0.16763417030E+03  0.17417509184E+03  0.47000000000E+01 0. -1.
        -11    1    6    6    0    0 -0.97919349246E+01 -0.11207653296E+02 -0.49277456283E+02  0.51475831025E+02  0.00000000000E+00 0.  1.
         12    1    6    6    0    0  0.61807077112E+02  0.10353441608E+02 -0.15308226354E+02  0.64510854345E+02  0.00000000000E+00 0. -1.
         -5    1    3    3    0  503 -0.62578474280E+01  0.48090200797E+02 -0.10094211272E+03  0.11208580725E+03  0.47000000000E+01 0.  1.
         11    1    4    4    0    0 -0.28423096397E+02  0.12080061011E+02 -0.70345767919E+03  0.70413529005E+03  0.00000000000E+00 0. -1.
        -12    1    4    4    0    0  0.18118894087E+02 -0.28384903970E+02 -0.17433445935E+03  0.17755703539E+03  0.00000000000E+00 0.  1.
</event>
<event>
12    1  0.8684423E-002  0.1736809E+03  0.7818608E-02  0.1174283E+00
         21   -1    0    0  503  502  0.00000000000E+00  0.00000000000E+00  0.11687464162E+03  0.11687464162E+03  0.00000000000E+00 0. -1.
         21   -1    0    0  501  503 -0.00000000000E+00 -0.00000000000E+00 -0.26869632333E+03  0.26869632333E+03  0.00000000000E+00 0. -1.
          6    2    1    2  501    0 -0.25929028103E+02  0.41268871901E+01 -0.35182066995E+02  0.17635851585E+03  0.17080750153E+03 0.  0.
         24    2    3    3    0    0 -0.61987287737E+02 -0.46130332279E+02 -0.19932685887E+02  0.11247878651E+03  0.79270007255E+02 0.  0.
         -6    2    1    2    0  502  0.25929028103E+02 -0.41268871901E+01 -0.11663961471E+03  0.20921244910E+03  0.17168489580E+03 0.  0.
        -24    2    5    5    0    0 -0.51329617309E+02 -0.25292206602E+02 -0.83998070600E+02  0.12258433912E+03  0.68533342296E+02 0.  0.
          5    1    3    3  501    0  0.36058259634E+02  0.50257219469E+02 -0.15249381109E+02  0.63879729342E+02  0.47000000000E+01 0. -1.
        -11    1    4    4    0    0  0.16597745861E+02 -0.23723787310E+02 -0.41030400190E+01  0.29242745928E+02  0.00000000000E+00 0.  1.
         12    1    4    4    0    0 -0.78585033598E+02 -0.22406544969E+02 -0.15829645868E+02  0.83236040579E+02  0.00000000000E+00 0. -1.
         -5    1    5    5    0  502  0.77258645412E+02  0.21165319411E+02 -0.32641544106E+02  0.86628109978E+02  0.47000000000E+01 0.  1.
         13    1    6    6    0    0 -0.63891545084E+01 -0.35986035303E+02 -0.60681263270E+02  0.70838067055E+02  0.00000000000E+00 0. -1.
        -14    1    6    6    0    0 -0.44940462800E+02  0.10693828701E+02 -0.23316807330E+02  0.51746272069E+02  0.00000000000E+00 0.  1.
</event>
<event>
12    1  0.8684423E-002  0.3674891E+03  0.7818608E-02  0.1056135E+00
         21   -1    0    0  501  502  0.00000000000E+00  0.00000000000E+00  0.20399829910E+04  0.20399829910E+04  0.00000000000E+00 0.  1.
         21   -1    0    0  502  503 -0.00000000000E+00 -0.00000000000E+00 -0.70290331151E+02  0.70290331151E+02  0.00000000000E+00 0. -1.
         -6    2    1    2    0  503 -0.30965154663E+02  0.31773895937E+03  0.69803702532E+03  0.78658292104E+03  0.17187238242E+03 0.  0.
        -24    2    3    3    0    0 -0.25288773248E+02  0.20980947917E+03  0.31035120707E+03  0.38408648916E+03  0.80901296781E+02 0.  0.
          6    2    1    2  501    0  0.30965154663E+02 -0.31773895937E+03  0.12716556345E+04  0.13236904011E+04  0.18202015842E+03 0.  0.
         24    2    5    5    0    0  0.10057549262E+02 -0.67693281656E+02  0.23602455406E+03  0.25808550542E+03  0.78847975927E+02 0.  0.
          5    1    5    5  501    0  0.20907605400E+02 -0.25004567772E+03  0.10356310805E+04  0.10656048957E+04  0.47000000000E+01 0. -1.
        -11    1    6    6    0    0 -0.24834390572E+02  0.32377779840E+01  0.48613392706E+02  0.54685392123E+02  0.00000000000E+00 0.  1.
         12    1    6    6    0    0  0.34891939834E+02 -0.70931059640E+02  0.18741116136E+03  0.20340011329E+03  0.00000000000E+00 0. -1.
         -5    1    3    3    0  503 -0.56763814149E+01  0.10792948020E+03  0.38768581825E+03  0.40249643188E+03  0.47000000000E+01 0.  1.
         11    1    4    4    0    0 -0.42442954044E+02  0.11340445904E+03  0.21861267548E+03  0.24990693779E+03  0.00000000000E+00 0. -1.
        -12    1    4    4    0    0  0.17154180796E+02  0.96405020130E+02  0.91738531593E+02  0.13417955136E+03  0.00000000000E+00 0.  1.
</event>
<event>
12    1  0.8684423E-002  0.1848743E+03  0.7818608E-02  0.1163354E+00
         21   -1    0    0  501  502  0.00000000000E+00  0.00000000000E+00  0.22333784320E+04  0.22333784320E+04  0.00000000000E+00 0. -1.
         21   -1    0    0  502  503 -0.00000000000E+00 -0.00000000000E+00 -0.72434704472E+02  0.72434704472E+02  0.00000000000E+00 0.  1.
         -6    2    1    2    0  503 -0.18867274992E+02  0.59640123500E+02  0.55490932824E+02  0.19225926014E+03  0.17312267641E+03 0.  0.
        -24    2    3    3    0    0 -0.22651876162E+02 -0.31251657503E+02  0.50664777706E+02  0.10103963049E+03  0.78436685549E+02 0.  0.
          6    2    1    2  501    0  0.18867274992E+02 -0.59640123500E+02  0.21054527947E+04  0.21135538763E+04  0.17397010956E+03 0.  0.
         24    2    5    5    0    0 -0.38503352914E+02 -0.77179530136E+02  0.10930101545E+04  0.10993245091E+04  0.80024935600E+02 0.  0.
          5    1    5    5  501    0  0.57370627906E+02  0.17539406636E+02  0.10124426402E+04  0.10142293673E+04  0.47000000000E+01 0. -1.
        -13    1    6    6    0    0 -0.45978830063E+02 -0.54279443112E+02  0.42746609041E+03  0.43334463099E+03  0.00000000000E+00 0.  1.
         14    1    6    6    0    0  0.74754771490E+01 -0.22900087024E+02  0.66554406410E+03  0.66597987807E+03  0.00000000000E+00 0. -1.
         -5    1    3    3    0  503  0.37846011692E+01  0.90891781004E+02  0.48261551174E+01  0.91219629649E+02  0.47000000000E+01 0.  1.
         11    1    4    4    0    0  0.24223125208E+02 -0.29375902586E+02  0.34614471803E+02  0.51457410601E+02  0.00000000000E+00 0. -1.
        -12    1    4    4    0    0 -0.46875001369E+02 -0.18757549174E+01  0.16050305903E+02  0.49582219893E+02  0.00000000000E+00 0.  1.
</event>
<event>
12    1  0.8684423E-002  0.1803827E+03  0.7818608E-02  0.1168595E+00
         21   -1    0    0  501  502  0.00000000000E+00  0.00000000000E+00  0.17139438583E+03  0.17139438583E+03  0.00000000000E+00 0. -1.
         21   -1    0    0  502  503 -0.00000000000E+00 -0.00000000000E+00 -0.22943980905E+03  0.22943980905E+03  0.00000000000E+00 0. -1.
         -6    2    1    2    0  503  0.21646913455E+02  0.46107049551E+02 -0.11702862827E+03  0.21105294830E+03  0.16808687715E+03 0.  0.
        -24    2    3    3    0    0 -0.13682701246E+02  0.35976499350E+02 -0.14112522008E+03  0.16685401778E+03  0.80264629132E+02 0.  0.
          6    2    1    2  501    0 -0.21646913455E+02 -0.46107049551E+02  0.58983205050E+02  0.18978124658E+03  0.17304177009E+03 0.  0.
         24    2    5    5    0    0 -0.46040030431E+02 -0.13427907178E+02  0.96526499701E+02  0.13415266153E+03  0.79872262749E+02 0.  0.
          5    1    5    5  501    0  0.24393116976E+02 -0.32679142372E+02 -0.37543294650E+02  0.55628585055E+02  0.47000000000E+01 0. -1.
        -13    1    6    6    0    0 -0.10056161196E+02  0.28847381342E+02  0.11574068780E+02  0.32668897386E+02  0.00000000000E+00 0.  1.
         14    1    6    6    0    0 -0.35983869235E+02 -0.42275288520E+02  0.84952430921E+02  0.10148376414E+03  0.00000000000E+00 0. -1.
         -5    1    3    3    0  503  0.35329614701E+02  0.10130550201E+02  0.24096591806E+02  0.44198930518E+02  0.47000000000E+01 0.  1.
         11    1    4    4    0    0 -0.94841830462E+00  0.37460970925E+02 -0.14774654258E+03  0.15242461968E+03  0.00000000000E+00 0. -1.
        -12    1    4    4    0    0 -0.12734282942E+02 -0.14844715756E+01  0.66213225046E+01  0.14429398103E+02  0.00000000000E+00 0.  1.
</event>
<event>
12    1  0.8684423E-002  0.2061642E+03  0.7818608E-02  0.1146071E+00
         21   -1    0    0  501  502  0.00000000000E+00  0.00000000000E+00  0.39192891236E+03  0.39192891236E+03  0.00000000000E+00 0. -1.
         21   -1    0    0  502  503 -0.00000000000E+00 -0.00000000000E+00 -0.10552460809E+03  0.10552460809E+03  0.00000000000E+00 0. -1.
         -6    2    1    2    0  503  0.75085774796E+02  0.68918532841E+02  0.12551034836E+03  0.24136385309E+03  0.17920944252E+03 0.  0.
        -24    2    3    3    0    0  0.10992948291E+03  0.78592865109E+02  0.13074396311E+03  0.20452423551E+03  0.80466448671E+02 0.  0.
          6    2    1    2  501    0 -0.75085774796E+02 -0.68918532841E+02  0.16089395591E+03  0.25608966736E+03  0.17119408558E+03 0.  0.
         24    2    5    5    0    0 -0.12400635719E+02  0.15232571884E+02  0.11473066285E+03  0.14135530148E+03  0.80202177322E+02 0.  0.
          5    1    5    5  501    0 -0.62685139076E+02 -0.84151104725E+02  0.46163293056E+02  0.11473436588E+03  0.47000000000E+01 0. -1.
        -11    1    6    6    0    0 -0.11190937079E+02 -0.19925021178E+02  0.16307519641E+01  0.22910759342E+02  0.00000000000E+00 0.  1.
         12    1    6    6    0    0 -0.12096986401E+01  0.35157593062E+02  0.11309991089E+03  0.11844454214E+03  0.00000000000E+00 0. -1.
         -5    1    3    3    0  503 -0.34843708116E+02 -0.96743322683E+01 -0.52336147539E+01  0.36839617580E+02  0.47000000000E+01 0.  1.
         13    1    4    4    0    0  0.22990366128E+02  0.65380217838E+02  0.55475016021E+02  0.88772784240E+02  0.00000000000E+00 0. -1.
        -14    1    4    4    0    0  0.86939116783E+02  0.13212647271E+02  0.75268947088E+02  0.11575145127E+03  0.00000000000E+00 0.  1.
</event>
<event>
12    1  0.8684423E-002  0.1811552E+03  0.7818608E-02  0.1166839E+00
         21   -1    0    0  501  502  0.00000000000E+00  0.00000000000E+00  0.25355405435E+02  0.25355405435E+02  0.00000000000E+00 0. -1.
         21   -1    0    0  502  503 -0.00000000000E+00 -0.00000000000E+00 -0.29474286656E+04  0.29474286656E+04  0.00000000000E+00 0. -1.
         -6    2    1    2    0  503  0.30362764364E+02 -0.45697092877E+02 -0.25746127703E+04  0.25809345909E+04  0.17199512674E+03 0.  0.
        -24    2    3    3    0    0  0.44384588448E+02 -0.93130773926E+02 -0.18439389393E+04  0.18485734075E+04  0.80433190894E+02 0.  0.
          6    2    1    2  501    0 -0.30362764364E+02  0.45697092877E+02 -0.34746048985E+03  0.39184948015E+03  0.17264733223E+03 0.  0.
         24    2    5    5    0    0 -0.50003046371E+02 -0.32966404480E+02 -0.19173669020E+03  0.21622010256E+03  0.80006786656E+02 0.  0.
          5    1    5    5  501    0  0.19640282008E+02  0.78663497358E+02 -0.15572379965E+03  0.17562937759E+03  0.47000000000E+01 0. -1.
        -13    1    6    6    0    0 -0.22036486315E+02 -0.23250038748E+02 -0.12231337603E+02  0.34289599742E+02  0.00000000000E+00 0.  1.
         14    1    6    6    0    0 -0.27966560056E+02 -0.97163657325E+01 -0.17950535260E+03  0.18193050282E+03  0.00000000000E+00 0. -1.
         -5    1    3    3    0  503 -0.14021824084E+02  0.47433681048E+02 -0.73067383096E+03  0.73236118336E+03  0.47000000000E+01 0.  1.
         13    1    4    4    0    0  0.49170130617E+02 -0.56514354285E+02 -0.69201419966E+03  0.69605691327E+03  0.00000000000E+00 0. -1.
        -14    1    4    4    0    0 -0.47855421693E+01 -0.36616419641E+02 -0.11519247397E+04  0.11525164942E+04  0.00000000000E+00 0.  1.
</event>
<event>
12    1  0.8684423E-002  0.1746687E+03  0.7818608E-02  0.1174300E+00
         21   -1    0    0  503  502  0.00000000000E+00  0.00000000000E+00  0.30528936142E+03  0.30528936142E+03  0.00000000000E+00 0. -1.
         21   -1    0    0  501  503 -0.00000000000E+00 -0.00000000000E+00 -0.17953651781E+03  0.17953651781E+03  0.00000000000E+00 0. -1.
          6    2    1    2  501    0 -0.29863256913E+02  0.15716991842E+02 -0.10081202697E+03  0.20167355244E+03  0.17137770866E+03 0.  0.
         24    2    3    3    0    0  0.24696328470E+02 -0.24764502676E+02 -0.82422157755E+01  0.86752885459E+02  0.78961634873E+02 0.  0.
         -6    2    1    2    0  502  0.29863256913E+02 -0.15716991842E+02  0.22656487058E+03  0.28315232678E+03  0.16644747411E+03 0.  0.
        -24    2    5    5    0    0  0.25500894462E+01 -0.49504977993E+02  0.22166150359E+03  0.23917767348E+03  0.74932579814E+02 0.  0.
          5    1    3    3  501    0 -0.54559585383E+02  0.40481494519E+02 -0.92569811190E+02  0.11492066698E+03  0.47000000000E+01 0. -1.
        -11    1    4    4    0    0  0.47430692876E+02 -0.35485989878E+02 -0.14213747997E+02  0.60917622544E+02  0.00000000000E+00 0.  1.
         12    1    4    4    0    0 -0.22734364406E+02  0.10721487202E+02  0.59715322215E+01  0.25835262914E+02  0.00000000000E+00 0. -1.
         -5    1    5    5    0  502  0.27313167467E+02  0.33787986151E+02  0.49033669883E+01  0.43974653302E+02  0.47000000000E+01 0.  1.
         13    1    6    6    0    0 -0.17203770915E+02 -0.59467530128E+02  0.19467830738E+03  0.20428411646E+03  0.00000000000E+00 0. -1.
        -14    1    6    6    0    0  0.19753860361E+02  0.99625521348E+01  0.26983196210E+02  0.34893557025E+02  0.00000000000E+00 0.  1.
</event>
<event>
12    1  0.8684423E-002  0.1795069E+03  0.7818608E-02  0.1168630E+00
         21   -1    0    0  503  502  0.00000000000E+00  0.00000000000E+00  0.70276606238E+03  0.70276606238E+03  0.00000000000E+00 0. -1.
         21   -1    0    0  501  503 -0.00000000000E+00 -0.00000000000E+00 -0.52886802759E+02  0.52886802759E+02  0.00000000000E+00 0. -1.
          6    2    1    2  501    0 -0.43891003054E+02  0.17165778416E+02  0.18472610789E+03  0.25757810185E+03  0.17320987131E+03 0.  0.
         24    2    3    3    0    0 -0.84255901508E+02  0.37203656458E+02  0.87491230432E+02  0.15030483875E+03  0.80334675920E+02 0.  0.
         -6    2    1    2    0  502  0.43891003054E+02 -0.17165778416E+02  0.46515315173E+03  0.49807476329E+03  0.17172632634E+03 0.  0.
        -24    2    5    5    0    0 -0.28160972153E+02  0.45000016653E+01  0.12986662391E+03  0.15441790114E+03  0.78525523369E+02 0.  0.
          5    1    3    3  501    0  0.40364898454E+02 -0.20037878042E+02  0.97234877457E+02  0.10727326311E+03  0.47000000000E+01 0. -1.
        -13    1    4    4    0    0 -0.25620679261E+02  0.21117626003E+02 -0.10638948768E+02  0.34864890143E+02  0.00000000000E+00 0.  1.
         14    1    4    4    0    0 -0.58635222246E+02  0.16086030455E+02  0.98130179200E+02  0.11543994860E+03  0.00000000000E+00 0. -1.
         -5    1    5    5    0  502  0.72051975207E+02 -0.21665780081E+02  0.33528652782E+03  0.34365686214E+03  0.47000000000E+01 0.  1.
         13    1    6    6    0    0  0.85051730995E+01  0.10245077549E+02  0.11277429150E+03  0.11355765235E+03  0.00000000000E+00 0. -1.
        -14    1    6    6    0    0 -0.36666145253E+02 -0.57450758842E+01  0.17092332413E+02  0.40860248799E+02  0.00000000000E+00 0.  1.
</event>
<event>
12    1  0.8684423E-002  0.1814016E+03  0.7818608E-02  0.1167683E+00
         21   -1    0    0  503  502  0.00000000000E+00  0.00000000000E+00  0.89333327400E+02  0.89333327400E+02  0.00000000000E+00 0.  1.
         21   -1    0    0  501  503 -0.00000000000E+00 -0.00000000000E+00 -0.12553558745E+04  0.12553558745E+04  0.00000000000E+00 0.  1.
          6    2    1    2  501    0 -0.27152880403E+01 -0.47081816139E+02 -0.11537417078E+04  0.11679154343E+04  0.17516410398E+03 0.  0.
         24    2    3    3    0    0 -0.55242914992E+02 -0.45421374374E+02 -0.46946997393E+03  0.48161243683E+03  0.80209737441E+02 0.  0.
         -6    2    1    2    0  502  0.27152880403E+01  0.47081816139E+02 -0.12280839331E+02  0.17677376756E+03  0.16992373490E+03 0.  0.
        -24    2    5    5    0    0  0.44677789581E+02  0.10616795273E+02  0.42774547134E+02  0.98391787098E+02  0.75779025212E+02 0.  0.
          5    1    3    3  501    0  0.52527626952E+02 -0.16604417655E+01 -0.68427173384E+03  0.68630299751E+03  0.47000000000E+01 0. -1.
        -13    1    4    4    0    0 -0.31692807168E+02 -0.65907049998E+02 -0.37667486637E+03  0.38370838956E+03  0.00000000000E+00 0.  1.
         14    1    4    4    0    0 -0.23550107824E+02  0.20485675624E+02 -0.92795107568E+02  0.97904047276E+02  0.00000000000E+00 0. -1.
         -5    1    5    5    0  502 -0.41962501540E+02  0.36465020867E+02 -0.55055386465E+02  0.78381980462E+02  0.47000000000E+01 0.  1.
         11    1    6    6    0    0  0.48828198725E+01 -0.61965955121E+01 -0.20392087952E+02  0.21864971459E+02  0.00000000000E+00 0. -1.
        -12    1    6    6    0    0  0.39794969708E+02  0.16813390785E+02  0.63166635086E+02  0.76526815639E+02  0.00000000000E+00 0.  1.
</event>
<event>
12    1  0.8684423E-002  0.1789453E+03  0.7818608E-02  0.1169111E+00
         21   -1    0    0  501  502  0.00000000000E+00  0.00000000000E+00  0.19265527554E+04  0.19265527554E+04  0.00000000000E+00 0.  1.
         21   -1    0    0  502  503 -0.00000000000E+00 -0.00000000000E+00 -0.16912821021E+02  0.16912821021E+02  0.00000000000E+00 0.  1.
         -6    2    1    2    0  503 -0.43758590376E+02 -0.19465940462E+02  0.80255416926E+03  0.82201102891E+03  0.17121682153E+03 0.  0.
        -24    2    3    3    0    0 -0.71346976552E+02  0.32052085605E+02  0.37598298560E+03  0.39142968840E+03  0.75738155808E+02 0.  0.
          6    2    1    2  501    0  0.43758590376E+02  0.19465940462E+02  0.11070857651E+04  0.11214545475E+04  0.17241715039E+03 0.  0.
         24    2    5    5    0    0  0.88573149257E+02  0.19078560775E+02  0.58790045956E+03  0.60031736187E+03  0.80899878659E+02 0.  0.
          5    1    5    5  501    0 -0.44814558880E+02  0.38737968730E+00  0.51918530552E+03  0.52113718561E+03  0.47000000000E+01 0. -1.
        -11    1    6    6    0    0  0.65681152805E+02  0.35119411110E+02  0.23989658050E+03  0.25119266750E+03  0.00000000000E+00 0.  1.
         12    1    6    6    0    0  0.22891996452E+02 -0.16040850335E+02  0.34800387906E+03  0.34912469437E+03  0.00000000000E+00 0. -1.
         -5    1    3    3    0  503  0.27588386176E+02 -0.51518026067E+02  0.42657118366E+03  0.43058134051E+03  0.47000000000E+01 0.  1.
         13    1    4    4    0    0 -0.31602769077E+01  0.61983559160E+01  0.21022132219E+03  0.21033642402E+03  0.00000000000E+00 0. -1.
        -14    1    4    4    0    0 -0.68186699644E+02  0.25853729689E+02  0.16576166341E+03  0.18109326438E+03  0.00000000000E+00 0.  1.
</event>
<event>
12    1  0.8684423E-002  0.1977929E+03  0.7818608E-02  0.1152603E+00
         21   -1    0    0  503  502  0.00000000000E+00  0.00000000000E+00  0.92853478414E+03  0.92853478414E+03  0.00000000000E+00 0. -1.
         21   -1    0    0  501  503 -0.00000000000E+00 -0.00000000000E+00 -0.75150439687E+02  0.75150439687E+02  0.00000000000E+00 0. -1.
          6    2    1    2  501    0 -0.42343661025E+02  0.79007203253E+02  0.91961502073E+02  0.21812597041E+03  0.17631476770E+03 0.  0.
         24    2    3    3    0    0 -0.61656312714E+02  0.28910907900E+02 -0.70121962231E+01  0.10542947412E+03  0.80180182236E+02 0.  0.
         -6    2    1    2    0  502  0.42343661025E+02 -0.79007203253E+02  0.76142284238E+03  0.78555925341E+03  0.17118256901E+03 0.  0.
        -24    2    5    5    0    0  0.53581857838E+02 -0.29264749526E+02  0.69083947216E+03  0.69835425974E+03  0.81927130713E+02 0.  0.
          5    1    3    3  501    0  0.19312651689E+02  0.50096295353E+02  0.98973698296E+02  0.11269649630E+03  0.47000000000E+01 0. -1.
        -11    1    4    4    0    0 -0.30691452531E+02  0.18493695278E+02 -0.43562524319E+02  0.56406343158E+02  0.00000000000E+00 0.  1.
         12    1    4    4    0    0 -0.30964860183E+02  0.10417212622E+02  0.36550328096E+02  0.49023130958E+02  0.00000000000E+00 0. -1.
         -5    1    5    5    0  502 -0.11238196813E+02 -0.49742453727E+02  0.70583370222E+02  0.87204993677E+02  0.47000000000E+01 0.  1.
         13    1    6    6    0    0  0.39163770075E+02 -0.57428883463E+02  0.51792598092E+03  0.52256980324E+03  0.00000000000E+00 0. -1.
        -14    1    6    6    0    0  0.14418087763E+02  0.28164133937E+02  0.17291349123E+03  0.17578445650E+03  0.00000000000E+00 0.  1.
</event>
<event>
12    1  0.8684423E-002  0.1912468E+03  0.7818608E-02  0.1157458E+00
         21   -1    0    0  503  502  0.00000000000E+00  0.00000000000E+00  0.80564758582E+02  0.80564758582E+02  0.00000000000E+00 0. -1.
         21   -1    0    0  501  503 -0.00000000000E+00 -0.00000000000E+00 -0.92077008114E+03  0.92077008114E+03  0.00000000000E+00 0. -1.
          6    2    1    2  501    0  0.59076138823E+02 -0.55415490852E+02 -0.77676874419E+03  0.79984158017E+03  0.17267311492E+03 0.  0.
         24    2    3    3    0    0 -0.18312813623E+02 -0.73994309863E+02 -0.42033372835E+03  0.43459887594E+03  0.79907588786E+02 0.  0.
         -6    2    1    2    0  502 -0.59076138823E+02  0.55415490852E+02 -0.63436578371E+02  0.20149325956E+03  0.17324683941E+03 0.  0.
        -24    2    5    5    0    0  0.16347281128E+01  0.54352479604E+02 -0.94550625408E+02  0.13310383581E+03  0.76288570360E+02 0.  0.
          5    1    3    3  501    0  0.77388952446E+02  0.18578819011E+02 -0.35643501584E+03  0.36524270423E+03  0.47000000000E+01 0. -1.
        -13    1    4    4    0    0 -0.23962106387E+02  0.32158772906E+01 -0.19159604105E+03  0.19311542495E+03  0.00000000000E+00 0.  1.
         14    1    4    4    0    0  0.56492927635E+01 -0.77210187154E+02 -0.22873768730E+03  0.24148345099E+03  0.00000000000E+00 0. -1.
         -5    1    5    5    0  502 -0.60710866935E+02  0.10630112484E+01  0.31114047037E+02  0.68389423743E+02  0.47000000000E+01 0.  1.
         13    1    6    6    0    0  0.36594801801E+01  0.17514377797E+02  0.11195543229E+02  0.21106525366E+02  0.00000000000E+00 0. -1.
        -14    1    6    6    0    0 -0.20247520672E+01  0.36838101807E+02 -0.10574616864E+03  0.11199731045E+03  0.00000000000E+00 0.  1.
</event>
<event>
12    1  0.8684423E-002  0.1896754E+03  0.7818608E-02  0.1159337E+00
         21   -1    0    0  501  502  0.00000000000E+00  0.00000000000E+00  0.99068556582E+03  0.99068556582E+03  0.00000000000E+00 0. -1.
         21   -1    0    0  502  503 -0.00000000000E+00 -0.00000000000E+00 -0.12875905806E+03  0.12875905806E+03  0.00000000000E+00 0. -1.
         -6    2    1    2    0  503 -0.28474106674E+02 -0.72231003233E+02 -0.45366336661E+02  0.19253736317E+03  0.17024816926E+03 0.  0.
        -24    2    3    3    0    0  0.13083663597E+02 -0.64028411539E+02 -0.84689518443E+02  0.13454828312E+03  0.81609473828E+02 0.  0.
          6    2    1    2  501    0  0.28474106674E+02  0.72231003233E+02  0.90729284442E+03  0.92690726071E+03  0.17305684567E+03 0.  0.
         24    2    5    5    0    0  0.62654456408E+02  0.67325643483E+02  0.85758121643E+03  0.86619733714E+03  0.79962246813E+02 0.  0.
          5    1    5    5  501    0 -0.34180349734E+02  0.49053597497E+01  0.49711627996E+02  0.60709923573E+02  0.47000000000E+01 0. -1.
        -13    1    6    6    0    0  0.44999226127E+02  0.12854521103E+02  0.17276578459E+03  0.17899213779E+03  0.00000000000E+00 0.  1.
         14    1    6    6    0    0  0.17655230280E+02  0.54471122380E+02  0.68481543183E+03  0.68720519935E+03  0.00000000000E+00 0. -1.
         -5    1    3    3    0  503 -0.41557770271E+02 -0.82025916936E+01  0.39323181782E+02  0.57989080057E+02  0.47000000000E+01 0.  1.
         13    1    4    4    0    0  0.25164182190E+01 -0.39425863358E+02  0.60265374263E+01  0.39963110684E+02  0.00000000000E+00 0. -1.
        -14    1    4    4    0    0  0.10567245377E+02 -0.24602548181E+02 -0.90716055869E+02  0.94585172434E+02  0.00000000000E+00 0.  1.
</event>
<event>
12    1  0.8684423E-002  0.2654018E+03  0.7818608E-02  0.1104335E+00
         21   -1    0    0  503  502  0.00000000000E+00  0.00000000000E+00  0.23994616993E+03  0.23994616993E+03  0.00000000000E+00 0. -1.
         21   -1    0    0  501  503 -0.00000000000E+00 -0.00000000000E+00 -0.35160475553E+03  0.35160475553E+03  0.00000000000E+00 0.  1.
          6    2    1    2  501    0  0.11852803800E+03 -0.15795835807E+03 -0.17879705390E+03  0.31778883409E+03  0.17326747505E+03 0.  0.
         24    2    3    3    0    0  0.10228536777E+03 -0.18743477730E+03 -0.14501027872E+03  0.26986890291E+03  0.78785478495E+02 0.  0.
         -6    2    1    2    0  502 -0.11852803800E+03  0.15795835807E+03  0.67138468300E+02  0.27376209138E+03  0.17730868584E+03 0.  0.
        -24    2    5    5    0    0  0.37342906426E+01  0.10651232790E+03  0.30518628506E+02  0.13607449683E+03  0.78905393235E+02 0.  0.
          5    1    3    3  501    0  0.16242670229E+02  0.29476419231E+02 -0.33786775177E+02  0.47919931174E+02  0.47000000000E+01 0. -1.
        -11    1    4    4    0    0  0.22418872866E+02 -0.73216944578E+01 -0.40433756021E+02  0.46809205251E+02  0.00000000000E+00 0.  1.
         12    1    4    4    0    0  0.79866494901E+02 -0.18011308285E+03 -0.10457652270E+03  0.22305969766E+03  0.00000000000E+00 0. -1.
         -5    1    5    5    0  502 -0.12226232864E+03  0.51446030178E+02  0.36619839794E+02  0.13768759455E+03  0.47000000000E+01 0.  1.
         11    1    6    6    0    0  0.90896089887E+01 -0.10901622849E+02 -0.14519562382E+01  0.14267955328E+02  0.00000000000E+00 0. -1.
        -12    1    6    6    0    0 -0.53553183460E+01  0.11741395074E+03  0.31970584744E+02  0.12180654150E+03  0.00000000000E+00 0.  1.
</event>
<event>
12    1  0.8684423E-002  0.2458252E+03  0.7818608E-02  0.1116235E+00
         21   -1    0    0  501  502  0.00000000000E+00  0.00000000000E+00  0.15230342818E+03  0.15230342818E+03  0.00000000000E+00 0.  1.
         21   -1    0    0  502  503 -0.00000000000E+00 -0.00000000000E+00 -0.39912358063E+03  0.39912358063E+03  0.00000000000E+00 0.  1.
         -6    2    1    2    0  503  0.16447485599E+03  0.54985285072E+02 -0.93063667837E+02  0.26285144841E+03  0.17422593902E+03 0.  0.
        -24    2    3    3    0    0  0.13248789696E+03  0.55541580912E+02 -0.27696906500E+01  0.16694228654E+03  0.84994975135E+02 0.  0.
          6    2    1    2  501    0 -0.16447485599E+03 -0.54985285072E+02 -0.15375648461E+03  0.28857556041E+03  0.17192858307E+03 0.  0.
         24    2    5    5    0    0 -0.14381516587E+03 -0.87390561565E+02 -0.16463512541E+03  0.24835915125E+03  0.79105191378E+02 0.  0.
          5    1    5    5  501    0 -0.20659690123E+02  0.32405276493E+02  0.10878640798E+02  0.40216409166E+02  0.47000000000E+01 0. -1.
        -13    1    6    6    0    0 -0.32251616991E+02 -0.19937091860E+02 -0.91110589421E+02  0.98685327861E+02  0.00000000000E+00 0.  1.
         14    1    6    6    0    0 -0.11156354888E+03 -0.67453469705E+02 -0.73524535991E+02  0.14967382338E+03  0.00000000000E+00 0. -1.
         -5    1    3    3    0  503  0.31986959035E+02 -0.55629583997E+00 -0.90293977187E+02  0.95909161865E+02  0.47000000000E+01 0.  1.
         13    1    4    4    0    0  0.85035010941E+01  0.25882747372E+02  0.24427042596E+02  0.36591072031E+02  0.00000000000E+00 0. -1.
        -14    1    4    4    0    0  0.12398439586E+03  0.29658833540E+02 -0.27196733246E+02  0.13035121451E+03  0.00000000000E+00 0.  1.
</event>
<event>
12    1  0.8684423E-002  0.1744588E+03  0.7818608E-02  0.1173708E+00
         21   -1    0    0  501  502  0.00000000000E+00  0.00000000000E+00  0.34638134584E+03  0.34638134584E+03  0.00000000000E+00 0.  1.
         21   -1    0    0  502  503 -0.00000000000E+00 -0.00000000000E+00 -0.15632138216E+03  0.15632138216E+03  0.00000000000E+00 0.  1.
         -6    2    1    2    0  503  0.12439219099E+02  0.13202681744E+02 -0.72075649935E+02  0.18876119319E+03  0.17351323801E+03 0.  0.
        -24    2    3    3    0    0  0.44048546475E+02  0.47908326569E+02  0.10588159711E+01  0.10173032819E+03  0.78182199900E+02 0.  0.
          6    2    1    2  501    0 -0.12439219099E+02 -0.13202681744E+02  0.26213561361E+03  0.31394153481E+03  0.17179977409E+03 0.  0.
         24    2    5    5    0    0 -0.34524098138E+02 -0.29894735806E+02  0.60293257541E+02  0.11015538892E+03  0.80083233095E+02 0.  0.
          5    1    5    5  501    0  0.22084879038E+02  0.16692054062E+02  0.20184235607E+03  0.20378614589E+03  0.47000000000E+01 0. -1.
        -11    1    6    6    0    0 -0.21867600483E+02 -0.53629445775E+02  0.59805365483E+02  0.83252574408E+02  0.00000000000E+00 0.  1.
         12    1    6    6    0    0 -0.12656497655E+02  0.23734709969E+02  0.48789205801E+00  0.26902814516E+02  0.00000000000E+00 0. -1.
         -5    1    3    3    0  503 -0.31609327375E+02 -0.34705644826E+02 -0.73134465906E+02  0.87030865003E+02  0.47000000000E+01 0.  1.
         13    1    4    4    0    0  0.39042726531E+02  0.52056806376E+02 -0.28808922763E+02  0.71163190034E+02  0.00000000000E+00 0. -1.
        -14    1    4    4    0    0  0.50058199434E+01 -0.41484798067E+01  0.29867738734E+02  0.30567138156E+02  0.00000000000E+00 0.  1.
</event>
<event>
12    1  0.8684423E-002  0.2170959E+03  0.7818608E-02  0.1136643E+00
         21   -1    0    0  503  502  0.00000000000E+00  0.00000000000E+00  0.25364016561E+03  0.25364016561E+03  0.00000000000E+00 0.  1.
         21   -1    0    0  501  503 -0.00000000000E+00 -0.00000000000E+00 -0.19336251989E+03  0.19336251989E+03  0.00000000000E+00 0. -1.
          6    2    1    2  501    0 -0.67857174914E+02 -0.11078384230E+03 -0.20786769123E+02  0.21808874963E+03  0.17393377199E+03 0.  0.
         24    2    3    3    0    0 -0.18053264360E+01  0.83023833954E+01 -0.26194006125E+01  0.80624139209E+02  0.80132401625E+02 0.  0.
         -6    2    1    2    0  502  0.67857174914E+02  0.11078384230E+03  0.81064414835E+02  0.22891393588E+03  0.17015432637E+03 0.  0.
        -24    2    5    5    0    0  0.84965086061E+02  0.25831966802E+02  0.14090728796E+02  0.11929155497E+03  0.78393686545E+02 0.  0.
          5    1    3    3  501    0 -0.66051848478E+02 -0.11908622570E+03 -0.18167368511E+02  0.13746461042E+03  0.47000000000E+01 0. -1.
        -11    1    4    4    0    0  0.36912163906E+02 -0.88903966061E+01  0.19343455470E+01  0.38016952649E+02  0.00000000000E+00 0.  1.
         12    1    4    4    0    0 -0.38717490342E+02  0.17192780002E+02 -0.45537461596E+01  0.42607186561E+02  0.00000000000E+00 0. -1.
         -5    1    5    5    0  502 -0.17107911147E+02  0.84951875499E+02  0.66973686039E+02  0.10962238091E+03  0.47000000000E+01 0.  1.
         13    1    6    6    0    0  0.21317681677E+02 -0.26182527980E+02  0.15338393469E+02  0.37084156155E+02  0.00000000000E+00 0. -1.
        -14    1    6    6    0    0  0.63647404384E+02  0.52014494782E+02 -0.12476646732E+01  0.82207398812E+02  0.00000000000E+00 0.  1.
</event>
<event>
12    1  0.8684423E-002  0.1906385E+03  0.7818608E-02  0.1158039E+00
         21   -1    0    0  501  502  0.00000000000E+00  0.00000000000E+00  0.17271734183E+03  0.17271734183E+03  0.00000000000E+00 0.  1.
         21   -1    0    0  502  503 -0.00000000000E+00 -0.00000000000E+00 -0.38777040071E+03  0.38777040071E+03  0.00000000000E+00 0. -1.
         -6    2    1    2    0  503  0.36531243248E+02  0.73937456504E+02 -0.29734655820E+03  0.35284562686E+03  0.17112504642E+03 0.  0.
        -24    2    3    3    0    0 -0.32960884026E+02  0.46376398940E+02 -0.92581927910E+02  0.13481028233E+03  0.79782257373E+02 0.  0.
          6    2    1    2  501    0 -0.36531243248E+02 -0.73937456504E+02  0.82293499313E+02  0.20764211568E+03  0.17187713335E+03 0.  0.
         24    2    5    5    0    0  0.33697269708E+02 -0.15639364961E+02  0.76561275008E+02  0.11606886683E+03  0.78931978910E+02 0.  0.
          5    1    5    5  501    0 -0.70228512956E+02 -0.58298091543E+02  0.57322243050E+01  0.91573248850E+02  0.47000000000E+01 0. -1.
        -11    1    6    6    0    0  0.87102069634E+01 -0.36916330396E+02  0.73994911631E+02  0.83150045715E+02  0.00000000000E+00 0.  1.
         12    1    6    6    0    0  0.24987062745E+02  0.21276965435E+02  0.25663633776E+01  0.32918821117E+02  0.00000000000E+00 0. -1.
         -5    1    3    3    0  503  0.69492127274E+02  0.27561057563E+02 -0.20476463029E+03  0.21803534453E+03  0.47000000000E+01 0.  1.
         11    1    4    4    0    0  0.91854585535E+01  0.20568067476E+02 -0.80968588486E+02  0.84043621828E+02  0.00000000000E+00 0. -1.
        -12    1    4    4    0    0 -0.42146342579E+02  0.25808331465E+02 -0.11613339424E+02  0.50766660500E+02  0.00000000000E+00 0.  1.
</event>
<event>
12    1  0.8684423E-002  0.1834253E+03  0.7818608E-02  0.1165301E+00
         21   -1    0    0  503  502  0.00000000000E+00  0.00000000000E+00  0.55426945688E+02  0.55426945688E+02  0.00000000000E+00 0. -1.
         21   -1    0    0  501  503 -0.00000000000E+00 -0.00000000000E+00 -0.11694986227E+04  0.11694986227E+04  0.00000000000E+00 0. -1.
          6    2    1    2  501    0 -0.56552893509E+02 -0.27947620505E+02 -0.98832460965E+03  0.10052016530E+04  0.17223684259E+03 0.  0.
         24    2    3    3    0    0  0.33434303569E+02  0.13826448104E+01 -0.56055401783E+03  0.56706043227E+03  0.78847717617E+02 0.  0.
         -6    2    1    2    0  502  0.56552893509E+02  0.27947620505E+02 -0.12574706737E+03  0.21972391538E+03  0.16878084838E+03 0.  0.
        -24    2    5    5    0    0  0.14205924580E+02  0.78669333533E+02 -0.70349227573E+02  0.13337017426E+03  0.80298924218E+02 0.  0.
          5    1    3    3  501    0 -0.89987197079E+02 -0.29330265315E+02 -0.42777059182E+03  0.43814122075E+03  0.47000000000E+01 0. -1.
        -11    1    4    4    0    0 -0.75440698055E+01  0.30900538588E+02 -0.14493692073E+03  0.14838620983E+03  0.00000000000E+00 0.  1.
         12    1    4    4    0    0  0.40978373375E+02 -0.29517893778E+02 -0.41561709710E+03  0.41867422244E+03  0.00000000000E+00 0. -1.
         -5    1    5    5    0  502  0.42346968929E+02 -0.50721713029E+02 -0.55397839801E+02  0.86353741116E+02  0.47000000000E+01 0.  1.
         11    1    6    6    0    0  0.14807405918E+02  0.23249119559E+02 -0.72849976890E+02  0.77890307247E+02  0.00000000000E+00 0. -1.
        -12    1    6    6    0    0 -0.60148133721E+00  0.55420213974E+02  0.25007493165E+01  0.55479867014E+02  0.00000000000E+00 0.  1.
</event>
<event>
12    1  0.8684423E-002  0.1824073E+03  0.7818608E-02  0.1165771E+00
         21   -1    0    0  503  502  0.00000000000E+00  0.00000000000E+00  0.19237244896E+03  0.19237244896E+03  0.00000000000E+00 0.  1.
         21   -1    0    0  501  503 -0.00000000000E+00 -0.00000000000E+00 -0.69461771130E+03  0.69461771130E+03  0.00000000000E+00 0.  1.
          6    2    1    2  501    0 -0.22538025535E+02 -0.52341565601E+02 -0.63606156137E+03  0.66169988775E+03  0.17327674258E+03 0.  0.
         24    2    3    3    0    0  0.52166773650E+02 -0.45296362331E+02 -0.39069611514E+03  0.40507421851E+03  0.81661100927E+02 0.  0.
         -6    2    1    2    0  502  0.22538025535E+02  0.52341565601E+02  0.13381629902E+03  0.22529027251E+03  0.17205029183E+03 0.  0.
        -24    2    5    5    0    0 -0.50532780563E+02  0.14860072645E+02  0.49503517822E+02  0.10749833692E+03  0.79567018874E+02 0.  0.
          5    1    3    3  501    0 -0.74704799185E+02 -0.70452032706E+01 -0.24536544623E+03  0.25662566924E+03  0.47000000000E+01 0. -1.
        -13    1    4    4    0    0 -0.66015738552E+01 -0.15189641600E+02 -0.23969904500E+03  0.24027055201E+03  0.00000000000E+00 0.  1.
         14    1    4    4    0    0  0.58768347505E+02 -0.30106720731E+02 -0.15099707013E+03  0.16480366649E+03  0.00000000000E+00 0. -1.
         -5    1    5    5    0  502  0.73070806099E+02  0.37481492957E+02  0.84312781194E+02  0.11779193559E+03  0.47000000000E+01 0.  1.
         11    1    6    6    0    0  0.87726852986E+01  0.24094330421E+01 -0.15911300668E+02  0.18328525961E+02  0.00000000000E+00 0. -1.
        -12    1    6    6    0    0 -0.59305465862E+02  0.12450639603E+02  0.65414818491E+02  0.89169810955E+02  0.00000000000E+00 0.  1.
</event>
<event>
12    1  0.8684423E-002  0.3074821E+03  0.7818608E-02  0.1081639E+00
         21   -1    0    0  503  502  0.00000000000E+00  0.00000000000E+00  0.18927640639E+03  0.18927640639E+03  0.00000000000E+00 0.  1.
         21   -1    0    0  501  503 -0.00000000000E+00 -0.00000000000E+00 -0.57666036869E+03  0.57666036869E+03  0.00000000000E+00 0. -1.
          6    2    1    2  501    0  0.13048035879E+03  0.21785985876E+03 -0.52467069830E+02  0.31127804437E+03  0.17220100291E+03 0.  0.
         24    2    3    3    0    0  0.12128953477E+03  0.99270703939E+02 -0.72970948274E+02  0.19048749044E+03  0.79968123756E+02 0.  0.
         -6    2    1    2    0  502 -0.13048035879E+03 -0.21785985876E+03 -0.33491689246E+03  0.45465873071E+03  0.17337010835E+03 0.  0.
        -24    2    5    5    0    0 -0.17910665230E+02 -0.23718734180E+02 -0.91659708176E+02  0.12366196356E+03  0.77507476076E+02 0.  0.
          5    1    3    3  501    0  0.91908240177E+01  0.11858915482E+03  0.20503878444E+02  0.12079055393E+03  0.47000000000E+01 0. -1.
        -13    1    4    4    0    0  0.53514206293E+02  0.33478089876E+02  0.11032816022E+02  0.64080229450E+02  0.00000000000E+00 0.  1.
         14    1    4    4    0    0  0.67775328479E+02  0.65792614063E+02 -0.84003764296E+02  0.12640726099E+03  0.00000000000E+00 0. -1.
         -5    1    5    5    0  502 -0.11256969356E+03 -0.19414112458E+03 -0.24325718429E+03  0.33099676716E+03  0.47000000000E+01 0.  1.
         11    1    6    6    0    0  0.22410915459E+02 -0.20194469020E+02 -0.73206382872E+02  0.79178533732E+02  0.00000000000E+00 0. -1.
        -12    1    6    6    0    0 -0.40321580690E+02 -0.35242651595E+01 -0.18453325304E+02  0.44483429825E+02  0.00000000000E+00 0.  1.
</event>
<event>
12    1  0.8684423E-002  0.1806081E+03  0.7818608E-02  0.1167496E+00
         21   -1    0    0  503  502  0.00000000000E+00  0.00000000000E+00  0.40925796922E+03  0.40925796922E+03  0.00000000000E+00 0. -1.
         21   -1    0    0  501  503 -0.00000000000E+00 -0.00000000000E+00 -0.86572732762E+02  0.86572732762E+02  0.00000000000E+00 0. -1.
          6    2    1    2  501    0 -0.15260238319E+02 -0.50512631786E+02  0.89435176173E+02  0.20153887955E+03  0.17272772907E+03 0.  0.
         24    2    3    3    0    0  0.31283778284E+02 -0.72024191356E+02  0.98203636491E+02  0.14930796368E+03  0.80515556718E+02 0.  0.
         -6    2    1    2    0  502  0.15260238319E+02  0.50512631786E+02  0.23325006028E+03  0.29429182243E+03  0.17151584557E+03 0.  0.
        -24    2    5    5    0    0 -0.55848053334E+02  0.13324834827E+02  0.10720891059E+03  0.14480007415E+03  0.78592332206E+02 0.  0.
          5    1    3    3  501    0 -0.46544016603E+02  0.21511559569E+02 -0.87684603186E+01  0.52230915873E+02  0.47000000000E+01 0. -1.
        -11    1    4    4    0    0  0.37196983470E+02  0.13090804814E+01  0.45619037673E+02  0.58876360869E+02  0.00000000000E+00 0.  1.
         12    1    4    4    0    0 -0.59132051857E+01 -0.73333271837E+02  0.52584598819E+02  0.90431602810E+02  0.00000000000E+00 0. -1.
         -5    1    5    5    0  502  0.71108291653E+02  0.37187796959E+02  0.12604114970E+03  0.14949174827E+03  0.47000000000E+01 0.  1.
         13    1    6    6    0    0 -0.26991106314E+01 -0.16543960948E+01  0.85354491587E+02  0.85413180825E+02  0.00000000000E+00 0. -1.
        -14    1    6    6    0    0 -0.53148942703E+02  0.14979230922E+02  0.21854418999E+02  0.59386893329E+02  0.00000000000E+00 0.  1.
</event>
<event>
12    1  0.8684423E-002  0.2575458E+03  0.7818608E-02  0.1108690E+00
         21   -1    0    0  503  502  0.00000000000E+00  0.00000000000E+00  0.18113846149E+03  0.18113846149E+03  0.00000000000E+00 0.  1.
         21   -1    0    0  501  503 -0.00000000000E+00 -0.00000000000E+00 -0.78159832293E+03  0.78159832293E+03  0.00000000000E+00 0. -1.
          6    2    1    2  501    0  0.13364430828E+03  0.13539872024E+03 -0.65130202025E+03  0.70022053998E+03  0.17297649681E+03 0.  0.
         24    2    3    3    0    0  0.15585544999E+02  0.10180484959E+02 -0.25891039541E+03  0.27172228412E+03  0.80323442075E+02 0.  0.
         -6    2    1    2    0  502 -0.13364430828E+03 -0.13539872024E+03  0.50842158809E+02  0.26251624444E+03  0.17359792311E+03 0.  0.
        -24    2    5    5    0    0 -0.17528724958E+02 -0.97765090159E+02 -0.16086769738E+01  0.12957904507E+03  0.83203798153E+02 0.  0.
          5    1    3    3  501    0  0.11805876328E+03  0.12521823528E+03 -0.39239162484E+03  0.42849825586E+03  0.47000000000E+01 0. -1.
        -11    1    4    4    0    0 -0.29924349224E+02  0.18826406083E+02 -0.13080791339E+03  0.13550133006E+03  0.00000000000E+00 0.  1.
         12    1    4    4    0    0  0.45509894223E+02 -0.86459211236E+01 -0.12810248202E+03  0.13622095406E+03  0.00000000000E+00 0. -1.
         -5    1    5    5    0  502 -0.11611558332E+03 -0.37633630080E+02  0.52450835783E+02  0.13293719937E+03  0.47000000000E+01 0.  1.
         13    1    6    6    0    0  0.49534081532E+01 -0.28943269724E+02 -0.38420732235E+02  0.48357024103E+02  0.00000000000E+00 0. -1.
        -14    1    6    6    0    0 -0.22482133111E+02 -0.68821820435E+02  0.36812055261E+02  0.81222020966E+02  0.00000000000E+00 0.  1.
</event>
<event>
12    1  0.8684423E-002  0.2377419E+03  0.7818608E-02  0.1122161E+00
         21   -1    0    0  501  502  0.00000000000E+00  0.00000000000E+00  0.80194799439E+03  0.80194799439E+03  0.00000000000E+00 0.  1.
         21   -1    0    0  502  503 -0.00000000000E+00 -0.00000000000E+00 -0.69239284602E+02  0.69239284602E+02  0.00000000000E+00 0. -1.
         -6    2    1    2    0  503  0.17955503332E+02  0.15682692319E+03  0.38798982554E+03  0.45243637304E+03  0.17101310767E+03 0.  0.
        -24    2    3    3    0    0  0.75250135275E+02  0.12758619595E+03  0.28228620234E+03  0.32860971623E+03  0.79737226660E+02 0.  0.
          6    2    1    2  501    0 -0.17955503332E+02 -0.15682692319E+03  0.34471888425E+03  0.41875090595E+03  0.17777549927E+03 0.  0.
         24    2    5    5    0    0 -0.37410500434E+02 -0.52296233442E+02  0.27014047520E+03  0.28879248526E+03  0.79314447804E+02 0.  0.
          5    1    5    5  501    0  0.19454997102E+02 -0.10453068974E+03  0.74578409050E+02  0.12995842069E+03  0.47000000000E+01 0. -1.
        -13    1    6    6    0    0 -0.95569474872E+01  0.14816605869E+02  0.12747119982E+03  0.12868478480E+03  0.00000000000E+00 0.  1.
         14    1    6    6    0    0 -0.27853552947E+02 -0.67112839311E+02  0.14266927538E+03  0.16010770047E+03  0.00000000000E+00 0. -1.
         -5    1    3    3    0  503 -0.57294631944E+02  0.29240727232E+02  0.10570362320E+03  0.12382665681E+03  0.47000000000E+01 0.  1.
         11    1    4    4    0    0  0.15310264241E+02  0.10122994690E+03  0.16151506149E+03  0.19123028376E+03  0.00000000000E+00 0. -1.
        -12    1    4    4    0    0  0.59939871034E+02  0.26356249055E+02  0.12077114085E+03  0.13737943247E+03  0.00000000000E+00 0.  1.
</event>
<event>
12    1  0.8684423E-002  0.1957335E+03  0.7818608E-02  0.1154000E+00
         21   -1    0    0  501  502  0.00000000000E+00  0.00000000000E+00  0.21657910098E+03  0.21657910098E+03  0.00000000000E+00 0.  1.
         21   -1    0    0  502  503 -0.00000000000E+00 -0.00000000000E+00 -0.38681177456E+03  0.38681177456E+03  0.00000000000E+00 0.  1.
         -6    2    1    2    0  503 -0.83004646117E+02  0.25265642804E+02 -0.30841580184E+03  0.36379499279E+03  0.17233213855E+03 0.  0.
        -24    2    3    3    0    0 -0.96152638078E+02 -0.34094597234E+01 -0.12444170006E+03  0.17707677911E+03  0.81323396150E+02 0.  0.
          6    2    1    2  501    0  0.83004646117E+02 -0.25265642804E+02  0.13818312826E+03  0.23959588274E+03  0.17545223313E+03 0.  0.
         24    2    5    5    0    0  0.70880845020E+01  0.14460454725E+02  0.12947461923E+03  0.15334383766E+03  0.80568665317E+02 0.  0.
          5    1    5    5  501    0  0.75916561615E+02 -0.39726097528E+02  0.87085090348E+01  0.86252045088E+02  0.47000000000E+01 0. -1.
        -13    1    6    6    0    0  0.13523657021E+02 -0.28369674176E+02  0.24707854281E+02  0.39977565899E+02  0.00000000000E+00 0.  1.
         14    1    6    6    0    0 -0.64355725192E+01  0.42830128900E+02  0.10476676494E+03  0.11336627176E+03  0.00000000000E+00 0. -1.
         -5    1    3    3    0  503  0.13147991961E+02  0.28675102527E+02 -0.18397410177E+03  0.18671821368E+03  0.47000000000E+01 0.  1.
         11    1    4    4    0    0 -0.60292686579E+02 -0.34689776114E+02 -0.40244551604E+02  0.80363004893E+02  0.00000000000E+00 0. -1.
        -12    1    4    4    0    0 -0.35859951499E+02  0.31280316390E+02 -0.84197148460E+02  0.96713774220E+02  0.00000000000E+00 0.  1.
</event>
<event>
12    1  0.8684423E-002  0.3384963E+03  0.7818608E-02  0.1067739E+00
         21   -1    0    0  503  502  0.00000000000E+00  0.00000000000E+00  0.51019946424E+03  0.51019946424E+03  0.00000000000E+00 0.  1.
         21   -1    0    0  501  503 -0.00000000000E+00 -0.00000000000E+00 -0.52902865774E+03  0.52902865774E+03  0.00000000000E+00 0. -1.
          6    2    1    2  501    0  0.29041399196E+03  0.21767839006E+02 -0.40480994045E+03  0.52768440675E+03  0.17252715641E+03 0.  0.
         24    2    3    3    0    0  0.12826285490E+03  0.50819373375E+02 -0.11795130195E+03  0.19685673049E+03  0.76197729951E+02 0.  0.
         -6    2    1    2    0  502 -0.29041399196E+03 -0.21767839006E+02  0.38598074695E+03  0.51154371523E+03  0.16697817231E+03 0.  0.
        -24    2    5    5    0    0 -0.59329040044E+02 -0.25431569782E+02  0.14815854402E+03  0.17988852058E+03  0.79007758715E+02 0.  0.
          5    1    3    3  501    0  0.16215113706E+03 -0.29051534369E+02 -0.28685863850E+03  0.33082767626E+03  0.47000000000E+01 0. -1.
        -11    1    4    4    0    0  0.67069601678E+02  0.40901559505E+02 -0.10879492129E+03  0.13419241386E+03  0.00000000000E+00 0.  1.
         12    1    4    4    0    0  0.61193253224E+02  0.99178138703E+01 -0.91563806631E+01  0.62664316632E+02  0.00000000000E+00 0. -1.
         -5    1    5    5    0  502 -0.23108495192E+03  0.36637307765E+01  0.23782220293E+03  0.33165519465E+03  0.47000000000E+01 0.  1.
         13    1    6    6    0    0  0.12562689285E+01 -0.18083685370E+02 -0.15747167745E+01  0.18195538494E+02  0.00000000000E+00 0. -1.
        -14    1    6    6    0    0 -0.60585308973E+02 -0.73478844130E+01  0.14973326079E+03  0.16169298209E+03  0.00000000000E+00 0.  1.
</event>
<event>
12    1  0.8684423E-002  0.3594107E+03  0.7818608E-02  0.1058901E+00
         21   -1    0    0  503  502  0.00000000000E+00  0.00000000000E+00  0.30692276401E+03  0.30692276401E+03  0.00000000000E+00 0.  1.
         21   -1    0    0  501  503 -0.00000000000E+00 -0.00000000000E+00 -0.98719442719E+03  0.98719442719E+03  0.00000000000E+00 0.  1.
          6    2    1    2  501    0 -0.23194891405E+03 -0.21409923982E+03 -0.83047764969E+03  0.90458172151E+03  0.17010638154E+03 0.  0.
         24    2    3    3    0    0 -0.17146054374E+03 -0.18611881354E+03 -0.48676975972E+03  0.55444039173E+03  0.80127512048E+02 0.  0.
         -6    2    1    2    0  502  0.23194891405E+03  0.21409923982E+03  0.15020598650E+03  0.38953546969E+03  0.17186407578E+03 0.  0.
        -24    2    5    5    0    0  0.32222277097E+02  0.73177201826E+02  0.27626176875E+02  0.11604387927E+03  0.79434238583E+02 0.  0.
          5    1    3    3  501    0 -0.60488370304E+02 -0.27980426281E+02 -0.34370788996E+03  0.35014132978E+03  0.47000000000E+01 0. -1.
        -11    1    4    4    0    0 -0.11634236171E+03 -0.69943935229E+02 -0.27519662279E+03  0.30685644917E+03  0.00000000000E+00 0.  1.
         12    1    4    4    0    0 -0.55118182031E+02 -0.11617487831E+03 -0.21157313694E+03  0.24758394256E+03  0.00000000000E+00 0. -1.
         -5    1    5    5    0  502  0.19972663695E+03  0.14092203799E+03  0.12257980963E+03  0.27349159041E+03  0.47000000000E+01 0.  1.
         13    1    6    6    0    0  0.55942103718E+02  0.50966576166E+02  0.38433283790E+01  0.75775207209E+02  0.00000000000E+00 0. -1.
        -14    1    6    6    0    0 -0.23719826621E+02  0.22210625659E+02  0.23782848496E+02  0.40268672063E+02  0.00000000000E+00 0.  1.
</event>
<event>
12    1  0.8684423E-002  0.2038322E+03  0.7818608E-02  0.1147096E+00
         21   -1    0    0  503  502  0.00000000000E+00  0.00000000000E+00  0.25398440826E+03  0.25398440826E+03  0.00000000000E+00 0. -1.
         21   -1    0    0  501  503 -0.00000000000E+00 -0.00000000000E+00 -0.17486014824E+03  0.17486014824E+03  0.00000000000E+00 0. -1.
          6    2    1    2  501    0 -0.10366983284E+03 -0.14865869435E+02 -0.19555473458E+02  0.20476809100E+03  0.17486888298E+03 0.  0.
         24    2    3    3    0    0 -0.12043103092E+02 -0.20885973466E+02  0.44217887501E+02  0.92871572627E+02  0.78029784105E+02 0.  0.
         -6    2    1    2    0  502  0.10366983284E+03  0.14865869435E+02  0.98679733470E+02  0.22407646549E+03  0.17176770440E+03 0.  0.
        -24    2    5    5    0    0  0.59067498447E+02  0.58860131568E+02  0.63599797812E+01  0.11240780268E+03  0.75110453994E+02 0.  0.
          5    1    3    3  501    0 -0.91626729748E+02  0.60201040305E+01 -0.63773360959E+02  0.11189651838E+03  0.47000000000E+01 0. -1.
        -11    1    4    4    0    0  0.17616296511E+02  0.22665918432E+02  0.19248712703E+02  0.34562851472E+02  0.00000000000E+00 0.  1.
         12    1    4    4    0    0 -0.29659399603E+02 -0.43551891898E+02  0.24969174798E+02  0.58308721155E+02  0.00000000000E+00 0. -1.
         -5    1    5    5    0  502  0.44602334392E+02 -0.43994262133E+02  0.92319753689E+02  0.11166866282E+03  0.47000000000E+01 0.  1.
         13    1    6    6    0    0  0.20076359345E+02  0.60924569963E+02  0.25367980313E+02  0.68981141299E+02  0.00000000000E+00 0. -1.
        -14    1    6    6    0    0  0.38991139102E+02 -0.20644383945E+01 -0.19008000532E+02  0.43426661380E+02  0.00000000000E+00 0.  1.
</event>
<event>
12    1  0.8684423E-002  0.2074428E+03  0.7818608E-02  0.1143759E+00
         21   -1    0    0  501  502  0.00000000000E+00  0.00000000000E+00  0.59422560791E+03  0.59422560791E+03  0.00000000000E+00 0. -1.
         21   -1    0    0  502  503 -0.00000000000E+00 -0.00000000000E+00 -0.11503001446E+03  0.11503001446E+03  0.00000000000E+00 0. -1.
         -6    2    1    2    0  503  0.22417981863E+02 -0.11209484177E+03  0.22819033165E+02  0.20794526319E+03  0.17219960728E+03 0.  0.
        -24    2    3    3    0    0 -0.33807406969E+02 -0.52371363205E+02  0.54469439859E+02  0.11989966998E+03  0.86737019390E+02 0.  0.
          6    2    1    2  501    0 -0.22417981863E+02  0.11209484177E+03  0.45637656028E+03  0.50131035918E+03  0.17310312529E+03 0.  0.
         24    2    5    5    0    0 -0.65349252654E+02  0.10089878174E+03  0.38333447779E+03  0.41572016356E+03  0.10689641503E+03 0.  0.
          5    1    5    5  501    0  0.42931270791E+02  0.11196060028E+02  0.73042082485E+02  0.85590195617E+02  0.47000000000E+01 0. -1.
        -13    1    6    6    0    0 -0.55512366322E+01 -0.21511582116E+02  0.32546687122E+02  0.39406233465E+02  0.00000000000E+00 0.  1.
         14    1    6    6    0    0 -0.59798016022E+02  0.12241036385E+03  0.35078779067E+03  0.37631393009E+03  0.00000000000E+00 0. -1.
         -5    1    3    3    0  503  0.56225388832E+02 -0.59723478561E+02 -0.31650406694E+02  0.88045593215E+02  0.47000000000E+01 0.  1.
         13    1    4    4    0    0 -0.89432559127E+01 -0.73188973903E+02  0.31606502731E+02  0.80222058950E+02  0.00000000000E+00 0. -1.
        -14    1    4    4    0    0 -0.24864151056E+02  0.20817610697E+02  0.22862937128E+02  0.39677611029E+02  0.00000000000E+00 0.  1.
</event>
<event>
12    1  0.8684423E-002  0.2031355E+03  0.7818608E-02  0.1147178E+00
         21   -1    0    0  503  502  0.00000000000E+00  0.00000000000E+00  0.37391033832E+03  0.37391033832E+03  0.00000000000E+00 0.  1.
         21   -1    0    0  501  503 -0.00000000000E+00 -0.00000000000E+00 -0.12982471401E+03  0.12982471401E+03  0.00000000000E+00 0.  1.
          6    2    1    2  501    0 -0.86180637081E+01 -0.10838347506E+03  0.21988272685E+03  0.29916282092E+03  0.17125633176E+03 0.  0.
         24    2    3    3    0    0 -0.43551370591E+01 -0.18880561105E+02  0.18516543758E+03  0.20295302764E+03  0.80797582565E+02 0.  0.
         -6    2    1    2    0  502  0.86180637081E+01  0.10838347506E+03  0.24202897460E+02  0.20457223140E+03  0.17158895340E+03 0.  0.
        -24    2    5    5    0    0  0.14677216344E+02  0.14598103042E+03  0.19199000681E+02  0.16587573954E+03  0.74968509517E+02 0.  0.
          5    1    3    3  501    0 -0.42629266490E+01 -0.89502913951E+02  0.34717289271E+02  0.96209793283E+02  0.47000000000E+01 0. -1.
        -13    1    4    4    0    0  0.76465627786E+01 -0.48675397612E+02  0.91351229887E+02  0.10379215508E+03  0.00000000000E+00 0.  1.
         14    1    4    4    0    0 -0.12001699838E+02  0.29794836507E+02  0.93814207693E+02  0.99160872558E+02  0.00000000000E+00 0. -1.
         -5    1    5    5    0  502 -0.60591526358E+01 -0.37597555359E+02  0.50038967787E+01  0.38696491865E+02  0.47000000000E+01 0.  1.
         13    1    6    6    0    0  0.25926456747E+02  0.51931748703E+02 -0.22671494807E+02  0.62314399295E+02  0.00000000000E+00 0. -1.
        -14    1    6    6    0    0 -0.11249240403E+02  0.94049281713E+02  0.41870495488E+02  0.10356134024E+03  0.00000000000E+00 0.  1.
</event>
<event>
12    1  0.8684423E-002  0.2183039E+03  0.7818608E-02  0.1135438E+00
         21   -1    0    0  503  502  0.00000000000E+00  0.00000000000E+00  0.32144733906E+02  0.32144733906E+02  0.00000000000E+00 0. -1.
         21   -1    0    0  501  503 -0.00000000000E+00 -0.00000000000E+00 -0.15773662730E+04  0.15773662730E+04  0.00000000000E+00 0. -1.
          6    2    1    2  501    0 -0.12027835701E+03 -0.54626759785E+02 -0.56247990210E+03  0.60281457652E+03  0.17190348265E+03 0.  0.
         24    2    3    3    0    0  0.76110466229E+01 -0.35604374012E+02 -0.21266150285E+03  0.22983662385E+03  0.79210853990E+02 0.  0.
         -6    2    1    2    0  502  0.12027835701E+03  0.54626759785E+02 -0.98274163698E+03  0.10066964304E+04  0.17379761741E+03 0.  0.
        -24    2    5    5    0    0  0.13182216918E+03  0.91767437558E+02 -0.76969779619E+03  0.79008050841E+03  0.77421995842E+02 0.  0.
          5    1    3    3  501    0 -0.12788940363E+03 -0.19022385773E+02 -0.34981839924E+03  0.37297795266E+03  0.47000000000E+01 0. -1.
        -11    1    4    4    0    0  0.55991197678E+01 -0.46607450367E+02 -0.21351898303E+03  0.21861829906E+03  0.00000000000E+00 0.  1.
         12    1    4    4    0    0  0.20119268551E+01  0.11003076355E+02  0.85748017221E+00  0.11218324795E+02  0.00000000000E+00 0. -1.
         -5    1    5    5    0  502 -0.11543812171E+02 -0.37140677773E+02 -0.21304384080E+03  0.21661592196E+03  0.47000000000E+01 0.  1.
         11    1    6    6    0    0  0.10708003906E+03  0.38614539709E+02 -0.59547915528E+03  0.60626119933E+03  0.00000000000E+00 0. -1.
        -12    1    6    6    0    0  0.24742130116E+02  0.53152897849E+02 -0.17421864090E+03  0.18381930908E+03  0.00000000000E+00 0.  1.
</event>
<event>
12    1  0.8684423E-002  0.1814883E+03  0.7818608E-02  0.1167303E+00
         21   -1    0    0  501  502  0.00000000000E+00  0.00000000000E+00  0.28164161185E+03  0.28164161185E+03  0.00000000000E+00 0.  1.
         21   -1    0    0  502  503 -0.00000000000E+00 -0.00000000000E+00 -0.18700644189E+03  0.18700644189E+03  0.00000000000E+00 0.  1.
         -6    2    1    2    0  503  0.53702651463E+02 -0.22165890524E+02  0.19292870990E+03  0.26225128254E+03  0.16786585899E+03 0.  0.
        -24    2    3    3    0    0  0.15194730304E+02 -0.13894983720E+02  0.23134325793E+02  0.87885314630E+02  0.82247681402E+02 0.  0.
          6    2    1    2  501    0 -0.53702651463E+02  0.22165890524E+02 -0.98293539939E+02  0.20639677120E+03  0.17193808679E+03 0.  0.
         24    2    5    5    0    0 -0.26926506881E+02 -0.58742831506E+02 -0.82819100881E+02  0.11965156105E+03  0.57286434391E+02 0.  0.
          5    1    5    5  501    0 -0.26776144582E+02  0.80908722030E+02 -0.15474439058E+02  0.86745210147E+02  0.47000000000E+01 0. -1.
        -13    1    6    6    0    0 -0.39055770697E+02 -0.62310406974E+02 -0.67851482824E+02  0.10005880153E+03  0.00000000000E+00 0.  1.
         14    1    6    6    0    0  0.12129263816E+02  0.35675754673E+01 -0.14967618057E+02  0.19592759523E+02  0.00000000000E+00 0. -1.
         -5    1    3    3    0  503  0.38507921159E+02 -0.82709068034E+01  0.16979438411E+03  0.17436596791E+03  0.47000000000E+01 0.  1.
         13    1    4    4    0    0 -0.24537079632E+02 -0.23222864334E+02 -0.10090785546E+02  0.35258951455E+02  0.00000000000E+00 0. -1.
        -14    1    4    4    0    0  0.39731809936E+02  0.93278806139E+01  0.33225111339E+02  0.52626363175E+02  0.00000000000E+00 0.  1.
</event>
<event>
12    1  0.8684423E-002  0.1793414E+03  0.7818608E-02  0.1168559E+00
         21   -1    0    0  501  502  0.00000000000E+00  0.00000000000E+00  0.11325506831E+03  0.11325506831E+03  0.00000000000E+00 0.  1.
         21   -1    0    0  502  503 -0.00000000000E+00 -0.00000000000E+00 -0.35939564928E+03  0.35939564928E+03  0.00000000000E+00 0.  1.
         -6    2    1    2    0  503 -0.28828673078E+02  0.41389795557E+02 -0.14406048673E+02  0.17991905227E+03  0.17210207309E+03 0.  0.
        -24    2    3    3    0    0 -0.79169263855E+02 -0.16240854964E+01 -0.11174175495E+02  0.11345925956E+03  0.80484354928E+02 0.  0.
          6    2    1    2  501    0  0.28828673078E+02 -0.41389795557E+02 -0.23173453229E+03  0.29273166533E+03  0.17160048619E+03 0.  0.
         24    2    5    5    0    0  0.18481753537E+02  0.23398822760E+02 -0.20474532362E+03  0.22163221953E+03  0.79442514249E+02 0.  0.
          5    1    5    5  501    0  0.10346919540E+02 -0.64788618316E+02 -0.26989208673E+02  0.71099445793E+02  0.47000000000E+01 0. -1.
        -11    1    6    6    0    0  0.31293104653E+02  0.15426367197E+02 -0.29359194458E+02  0.45598174338E+02  0.00000000000E+00 0.  1.
         12    1    6    6    0    0 -0.12811351116E+02  0.79724555625E+01 -0.17538612916E+03  0.17603404519E+03  0.00000000000E+00 0. -1.
         -5    1    3    3    0  503  0.50340590778E+02  0.43013881053E+02 -0.32318731784E+01  0.66459792712E+02  0.47000000000E+01 0.  1.
         13    1    4    4    0    0  0.12228047278E+02  0.11669326951E+02 -0.12611547549E+02  0.21089083984E+02  0.00000000000E+00 0. -1.
        -14    1    4    4    0    0 -0.91397311134E+02 -0.13293412447E+02  0.14373720541E+01  0.92370175573E+02  0.00000000000E+00 0.  1.
</event>
<event>
12    1  0.8684423E-002  0.1963047E+03  0.7818608E-02  0.1153003E+00
         21   -1    0    0  503  502  0.00000000000E+00  0.00000000000E+00  0.87024294706E+02  0.87024294706E+02  0.00000000000E+00 0.  1.
         21   -1    0    0  501  503 -0.00000000000E+00 -0.00000000000E+00 -0.70427727780E+03  0.70427727780E+03  0.00000000000E+00 0.  1.
          6    2    1    2  501    0  0.78542173721E+02  0.52157310199E+02 -0.55046731093E+03  0.58442260500E+03  0.17218090132E+03 0.  0.
         24    2    3    3    0    0  0.79449932794E+02  0.53832374729E+02 -0.55986732722E+03  0.57374177291E+03  0.80734016992E+02 0.  0.
         -6    2    1    2    0  502 -0.78542173721E+02 -0.52157310199E+02 -0.66785672173E+02  0.20687896751E+03  0.17160805089E+03 0.  0.
        -24    2    5    5    0    0 -0.48050377833E+02 -0.49174441505E+02 -0.11078053762E+03  0.15306182054E+03  0.80178730865E+02 0.  0.
          5    1    3    3  501    0 -0.90775907297E+00 -0.16750645301E+01  0.94000162995E+01  0.10680832090E+02  0.47000000000E+01 0. -1.
        -13    1    4    4    0    0  0.67792027160E+02  0.23125624642E+02 -0.20112516946E+03  0.21349915047E+03  0.00000000000E+00 0.  1.
         14    1    4    4    0    0  0.11657905633E+02  0.30706750087E+02 -0.35874215777E+03  0.36024262244E+03  0.00000000000E+00 0. -1.
         -5    1    5    5    0  502 -0.30491795888E+02 -0.29828686939E+01  0.43994865450E+02  0.53817146971E+02  0.47000000000E+01 0.  1.
         13    1    6    6    0    0 -0.25203017268E+02  0.20025193994E+02 -0.41405140774E+02  0.52446030893E+02  0.00000000000E+00 0. -1.
        -14    1    6    6    0    0 -0.22847360564E+02 -0.69199635499E+02 -0.69375396849E+02  0.10061578965E+03  0.00000000000E+00 0.  1.
</event>
<event>
12    1  0.8684423E-002  0.2333684E+03  0.7818608E-02  0.1124347E+00
         21   -1    0    0  503  502  0.00000000000E+00  0.00000000000E+00  0.15585268939E+04  0.15585268939E+04  0.00000000000E+00 0.  1.
         21   -1    0    0  501  503 -0.00000000000E+00 -0.00000000000E+00 -0.59163882725E+02  0.59163882725E+02  0.00000000000E+00 0.  1.
          6    2    1    2  501    0 -0.11011162539E+03 -0.11250126726E+03  0.23134019971E+03  0.32837209466E+03  0.17183957451E+03 0.  0.
         24    2    3    3    0    0 -0.82677507719E+02 -0.14103301293E+03  0.22187338574E+03  0.28740379117E+03  0.81530723414E+02 0.  0.
         -6    2    1    2    0  502  0.11011162539E+03  0.11250126726E+03  0.12680228115E+04  0.12893186820E+04  0.17227799659E+03 0.  0.
        -24    2    5    5    0    0  0.21510060279E+02  0.19636452231E+02  0.27258949443E+03  0.28563362685E+03  0.80207626605E+02 0.  0.
          5    1    3    3  501    0 -0.27434117669E+02  0.28531745677E+02  0.94668139726E+01  0.40968303485E+02  0.47000000000E+01 0. -1.
        -13    1    4    4    0    0 -0.78374360287E+02 -0.12523796866E+03  0.13873318843E+03  0.20266718214E+03  0.00000000000E+00 0.  1.
         14    1    4    4    0    0 -0.43031474316E+01 -0.15795044275E+02  0.83140197315E+02  0.84736609037E+02  0.00000000000E+00 0. -1.
         -5    1    5    5    0  502  0.88601565108E+02  0.92864815025E+02  0.99543331704E+03  0.10036850551E+04  0.47000000000E+01 0.  1.
         13    1    6    6    0    0  0.17831820162E+02 -0.24873804889E+02  0.50121893601E+02  0.58727201517E+02  0.00000000000E+00 0. -1.
        -14    1    6    6    0    0  0.36782401175E+01  0.44510257121E+02  0.22246760083E+03  0.22690642533E+03  0.00000000000E+00 0.  1.
</event>
<event>
12    1  0.8684423E-002  0.4475112E+03  0.7818608E-02  0.1028497E+00
         21   -1    0    0  503  502  0.00000000000E+00  0.00000000000E+00  0.13340196328E+03  0.13340196328E+03  0.00000000000E+00 0.  1.
         21   -1    0    0  501  503 -0.00000000000E+00 -0.00000000000E+00 -0.25028288859E+04  0.25028288859E+04  0.00000000000E+00 0. -1.
          6    2    1    2  501    0 -0.41059465686E+03 -0.42188606249E+02 -0.20188009454E+04  0.20677197627E+04  0.17187178082E+03 0.  0.
         24    2    3    3    0    0 -0.16620197223E+03 -0.60201825873E+02 -0.70455755352E+03  0.73081660855E+03  0.80275860030E+02 0.  0.
         -6    2    1    2    0  502  0.41059465686E+03  0.42188606249E+02 -0.35062597726E+03  0.56851108655E+03  0.17291162155E+03 0.  0.
        -24    2    5    5    0    0  0.28080433931E+03  0.73894153487E+02 -0.30169257151E+03  0.42614769079E+03  0.79196109551E+02 0.  0.
          5    1    3    3  501    0 -0.24439268463E+03  0.18013219624E+02 -0.13142433919E+04  0.13369031541E+04  0.47000000000E+01 0. -1.
        -13    1    4    4    0    0 -0.66687773576E+02 -0.32935182533E+02 -0.45061387177E+03  0.45671090071E+03  0.00000000000E+00 0.  1.
         14    1    4    4    0    0 -0.99514198657E+02 -0.27266643340E+02 -0.25394368175E+03  0.27410570784E+03  0.00000000000E+00 0. -1.
         -5    1    5    5    0  502  0.12979031755E+03 -0.31705547238E+02 -0.48933405751E+02  0.14236339576E+03  0.47000000000E+01 0.  1.
         13    1    6    6    0    0  0.34603368787E+02 -0.12276081281E+02 -0.61129408905E+02  0.71308484321E+02  0.00000000000E+00 0. -1.
        -14    1    6    6    0    0  0.24620097053E+03  0.86170234768E+02 -0.24056316260E+03  0.35483920647E+03  0.00000000000E+00 0.  1.
</event>
<event>
12    1  0.8684423E-002  0.3117705E+03  0.7818608E-02  0.1079539E+00
         21   -1    0    0  503  502  0.00000000000E+00  0.00000000000E+00  0.95405519596E+03  0.95405519596E+03  0.00000000000E+00 0.  1.
         21   -1    0    0  501  503 -0.00000000000E+00 -0.00000000000E+00 -0.11505358492E+03  0.11505358492E+03  0.00000000000E+00 0. -1.
          6    2    1    2  501    0  0.45493348623E+02  0.25566965791E+03  0.23770742879E+03  0.39179381273E+03  0.17193298474E+03 0.  0.
         24    2    3    3    0    0  0.64775073931E+02  0.25870384447E+03  0.18260969451E+03  0.33315217614E+03  0.80750124395E+02 0.  0.
         -6    2    1    2    0  502 -0.45493348623E+02 -0.25566965791E+03  0.60129418225E+03  0.67731496816E+03  0.17252319768E+03 0.  0.
        -24    2    5    5    0    0 -0.24966938997E+01 -0.89537896489E+02  0.37307638346E+03  0.39173848426E+03  0.79055573904E+02 0.  0.
          5    1    3    3  501    0 -0.19281725308E+02 -0.30341865581E+01  0.55097734278E+02  0.58641636586E+02  0.47000000000E+01 0. -1.
        -11    1    4    4    0    0  0.12416773719E+02  0.14880865142E+03  0.13852590388E+03  0.20368509285E+03  0.00000000000E+00 0.  1.
         12    1    4    4    0    0  0.52358300212E+02  0.10989519306E+03  0.44083790632E+02  0.12946708328E+03  0.00000000000E+00 0. -1.
         -5    1    5    5    0  502 -0.42996654723E+02 -0.16613176143E+03  0.22821779879E+03  0.28557648390E+03  0.47000000000E+01 0.  1.
         11    1    6    6    0    0 -0.26476827371E+02 -0.32712850351E+02  0.64201767207E+02  0.76766007309E+02  0.00000000000E+00 0. -1.
        -12    1    6    6    0    0  0.23980133471E+02 -0.56825046138E+02  0.30887461626E+03  0.31497247695E+03  0.00000000000E+00 0.  1.
</event>
<event>
12    1  0.8684423E-002  0.1789022E+03  0.7818608E-02  0.1168975E+00
         21   -1    0    0  501  502  0.00000000000E+00  0.00000000000E+00  0.16195798217E+04  0.16195798217E+04  0.00000000000E+00 0.  1.
         21   -1    0    0  502  503 -0.00000000000E+00 -0.00000000000E+00 -0.21702463188E+02  0.21702463188E+02  0.00000000000E+00 0.  1.
         -6    2    1    2    0  503 -0.80467183622E+01 -0.48728473394E+02  0.54969015041E+03  0.57793735933E+03  0.17150252492E+03 0.  0.
        -24    2    3    3    0    0 -0.64820770328E+01 -0.74218906097E+02  0.53903871251E+03  0.54987041451E+03  0.79020730359E+02 0.  0.
          6    2    1    2  501    0  0.80467183622E+01  0.48728473394E+02  0.10481872081E+04  0.10633449255E+04  0.17194997438E+03 0.  0.
         24    2    5    5    0    0 -0.43578491938E+02  0.73269596102E+02  0.79917523332E+03  0.80781316114E+03  0.81323619482E+02 0.  0.
          5    1    5    5  501    0  0.51625210300E+02 -0.24541122708E+02  0.24901197474E+03  0.25553176438E+03  0.47000000000E+01 0. -1.
        -11    1    6    6    0    0 -0.64378680974E+01  0.77496598801E+02  0.45306139220E+03  0.45968662595E+03  0.00000000000E+00 0.  1.
         12    1    6    6    0    0 -0.37140623841E+02 -0.42270026986E+01  0.34611384112E+03  0.34812653520E+03  0.00000000000E+00 0. -1.
         -5    1    3    3    0  503 -0.15646413295E+01  0.25490432703E+02  0.10651437896E+02  0.28066944813E+02  0.47000000000E+01 0.  1.
         13    1    4    4    0    0 -0.28390215810E+02  0.27053514148E+01  0.15239025315E+03  0.15503584274E+03  0.00000000000E+00 0. -1.
        -14    1    4    4    0    0  0.21908138777E+02 -0.76924257512E+02  0.38664845936E+03  0.39483457177E+03  0.00000000000E+00 0.  1.
</event>
<event>
12    1  0.8684423E-002  0.1945053E+03  0.7818608E-02  0.1154791E+00
         21   -1    0    0  503  502  0.00000000000E+00  0.00000000000E+00  0.16015034098E+04  0.16015034098E+04  0.00000000000E+00 0. -1.
         21   -1    0    0  501  503 -0.00000000000E+00 -0.00000000000E+00 -0.70901231927E+02  0.70901231927E+02  0.00000000000E+00 0.  1.
          6    2    1    2  501    0 -0.15787810566E+02  0.85715862874E+02  0.80162980346E+02  0.20898187829E+03  0.17219424475E+03 0.  0.
         24    2    3    3    0    0 -0.16234954253E+02  0.12073179641E+03  0.31866802597E+02  0.14914103668E+03  0.79923809409E+02 0.  0.
         -6    2    1    2    0  502  0.15787810566E+02 -0.85715862874E+02  0.14504391975E+04  0.14634227634E+04  0.17388460169E+03 0.  0.
        -24    2    5    5    0    0 -0.36421917237E+02 -0.21808153696E+00  0.87773070731E+03  0.88199965496E+03  0.78648542236E+02 0.  0.
          5    1    3    3  501    0  0.44714368716E+00 -0.35015933541E+02  0.48296177749E+02  0.59840841608E+02  0.47000000000E+01 0. -1.
        -13    1    4    4    0    0 -0.20937202664E+02  0.41704218514E+02 -0.23778549755E+02  0.52373922191E+02  0.00000000000E+00 0.  1.
         14    1    4    4    0    0  0.47022484105E+01  0.79027577901E+02  0.55645352352E+02  0.96767114494E+02  0.00000000000E+00 0. -1.
         -5    1    5    5    0  502  0.52209727803E+02 -0.85497781337E+02  0.57270849017E+03  0.58142310842E+03  0.47000000000E+01 0.  1.
         11    1    6    6    0    0 -0.14697197331E+02  0.38782730868E+02  0.47273337798E+03  0.47454921186E+03  0.00000000000E+00 0. -1.
        -12    1    6    6    0    0 -0.21724719906E+02 -0.39000812405E+02  0.40499732932E+03  0.40745044310E+03  0.00000000000E+00 0.  1.
</event>
<event>
12    1  0.8684423E-002  0.2098239E+03  0.7818608E-02  0.1142223E+00
         21   -1    0    0  503  502  0.00000000000E+00  0.00000000000E+00  0.30785929996E+03  0.30785929996E+03  0.00000000000E+00 0.  1.
         21   -1    0    0  501  503 -0.00000000000E+00 -0.00000000000E+00 -0.15283887070E+03  0.15283887070E+03  0.00000000000E+00 0. -1.
          6    2    1    2  501    0 -0.15365404928E+02 -0.11646787429E+03  0.14140068941E+03  0.25302219330E+03  0.17385400175E+03 0.  0.
         24    2    3    3    0    0 -0.67069527146E+02 -0.71193169540E+02  0.53562674005E+02  0.14139458876E+03  0.86929171304E+02 0.  0.
         -6    2    1    2    0  502  0.15365404928E+02  0.11646787429E+03  0.13619739846E+02  0.20767597737E+03  0.17071307170E+03 0.  0.
        -24    2    5    5    0    0 -0.25935380741E+02  0.13012702976E+03 -0.14267445622E+02  0.15579040578E+03  0.80382850662E+02 0.  0.
          5    1    3    3  501    0  0.51704122218E+02 -0.45274704754E+02  0.87838015408E+02  0.11162760454E+03  0.47000000000E+01 0. -1.
        -11    1    4    4    0    0 -0.81438088372E+02 -0.60321830503E+02  0.64676791827E+02  0.12022467664E+03  0.00000000000E+00 0.  1.
         12    1    4    4    0    0  0.14368561226E+02 -0.10871339037E+02 -0.11114117821E+02  0.21169912118E+02  0.00000000000E+00 0. -1.
         -5    1    5    5    0  502  0.41300785669E+02 -0.13659155471E+02  0.27887185469E+02  0.51885571582E+02  0.47000000000E+01 0.  1.
         13    1    6    6    0    0 -0.22817018066E+02  0.10850305393E+02 -0.25560096964E+02  0.35939727285E+02  0.00000000000E+00 0. -1.
        -14    1    6    6    0    0 -0.31183626751E+01  0.11927672437E+03  0.11292651341E+02  0.11985067850E+03  0.00000000000E+00 0.  1.
</event>
<event>
12    1  0.8684423E-002  0.1924863E+03  0.7818608E-02  0.1156271E+00
         21   -1    0    0  503  502  0.00000000000E+00  0.00000000000E+00  0.40312248003E+03  0.40312248003E+03  0.00000000000E+00 0. -1.
         21   -1    0    0  501  503 -0.00000000000E+00 -0.00000000000E+00 -0.13110554328E+03  0.13110554328E+03  0.00000000000E+00 0. -1.
          6    2    1    2  501    0 -0.84453109111E+02 -0.20075310465E+02 -0.10212864958E+02  0.19260739753E+03  0.17163321719E+03 0.  0.
         24    2    3    3    0    0 -0.12390547844E+03 -0.14119757878E+02 -0.23088495342E+02  0.15041936711E+03  0.80876277335E+02 0.  0.
         -6    2    1    2    0  502  0.84453109111E+02  0.20075310465E+02  0.28222980171E+03  0.34162062578E+03  0.17180117945E+03 0.  0.
        -24    2    5    5    0    0  0.49811722976E+02  0.58538796542E+02  0.26760017373E+03  0.28762450176E+03  0.72180347665E+02 0.  0.
          5    1    3    3  501    0  0.39452369331E+02 -0.59555525868E+01  0.12875630384E+02  0.42188030415E+02  0.47000000000E+01 0. -1.
        -11    1    4    4    0    0 -0.67355233350E+01  0.15615140641E+01  0.22637115613E+02  0.23669486772E+02  0.00000000000E+00 0.  1.
         12    1    4    4    0    0 -0.11716995511E+03 -0.15681271942E+02 -0.45725610955E+02  0.12674988034E+03  0.00000000000E+00 0. -1.
         -5    1    5    5    0  502  0.34641386135E+02 -0.38463486077E+02  0.14629627985E+02  0.53996124023E+02  0.47000000000E+01 0.  1.
         11    1    6    6    0    0 -0.86584433159E+01  0.17562379358E+02  0.14037344517E+03  0.14173252950E+03  0.00000000000E+00 0. -1.
        -12    1    6    6    0    0  0.58470166292E+02  0.40976417184E+02  0.12722672855E+03  0.14589197226E+03  0.00000000000E+00 0.  1.
</event>
<event>
12    1  0.8684423E-002  0.1841742E+03  0.7818608E-02  0.1164606E+00
         21   -1    0    0  503  502  0.00000000000E+00  0.00000000000E+00  0.23390324712E+02  0.23390324712E+02  0.00000000000E+00 0. -1.
         21   -1    0    0  501  503 -0.00000000000E+00 -0.00000000000E+00 -0.14520878663E+04  0.14520878663E+04  0.00000000000E+00 0. -1.
          6    2    1    2  501    0  0.61717069482E+02 -0.34827923038E+02 -0.82274777102E+03  0.84310973606E+03  0.16999456295E+03 0.  0.
         24    2    3    3    0    0 -0.17740202985E+02 -0.62689667653E+02 -0.41373598407E+03  0.42549452223E+03  0.74989430577E+02 0.  0.
         -6    2    1    2    0  502 -0.61717069482E+02  0.34827923038E+02 -0.60594977057E+03  0.63236845495E+03  0.16641141030E+03 0.  0.
        -24    2    5    5    0    0  0.17394095709E+02 -0.56610421916E+01 -0.34225908671E+03  0.35406502429E+03  0.88804037227E+02 0.  0.
          5    1    3    3  501    0  0.79457272467E+02  0.27861744615E+02 -0.40901178695E+03  0.41761521384E+03  0.47000000000E+01 0. -1.
        -13    1    4    4    0    0  0.71507420108E+01  0.28399404294E+01 -0.21594988747E+01  0.79913583537E+01  0.00000000000E+00 0.  1.
         14    1    4    4    0    0 -0.24890944996E+02 -0.65529608082E+02 -0.41157648520E+03  0.41750316388E+03  0.00000000000E+00 0. -1.
         -5    1    5    5    0  502 -0.79111165191E+02  0.40488965229E+02 -0.26369068386E+03  0.27830343067E+03  0.47000000000E+01 0.  1.
         11    1    6    6    0    0 -0.10778972316E+02  0.31846245210E+02 -0.22931680058E+03  0.23176834254E+03  0.00000000000E+00 0. -1.
        -12    1    6    6    0    0  0.28173068026E+02 -0.37507287401E+02 -0.11294228613E+03  0.12229668175E+03  0.00000000000E+00 0.  1.
</event>
<event>
12    1  0.8684423E-002  0.1851853E+03  0.7818608E-02  0.1163430E+00
         21   -1    0    0  501  502  0.00000000000E+00  0.00000000000E+00  0.84611219223E+03  0.84611219223E+03  0.00000000000E+00 0. -1.
         21   -1    0    0  502  503 -0.00000000000E+00 -0.00000000000E+00 -0.10886047120E+03  0.10886047120E+03  0.00000000000E+00 0. -1.
         -6    2    1    2    0  503 -0.27343099273E+02 -0.56934651682E+02 -0.10218755689E+02  0.18546699676E+03  0.17408154492E+03 0.  0.
        -24    2    3    3    0    0 -0.52558659512E+02 -0.98449928328E+02 -0.18306183392E+01  0.13595140809E+03  0.77618510177E+02 0.  0.
          6    2    1    2  501    0  0.27343099273E+02  0.56934651682E+02  0.74747047672E+03  0.76950566667E+03  0.17157405933E+03 0.  0.
         24    2    5    5    0    0 -0.49208726483E+02  0.34446564196E+02  0.29221530861E+03  0.30728791042E+03  0.73675021257E+02 0.  0.
          5    1    5    5  501    0  0.76551825756E+02  0.22488087486E+02  0.45525516811E+03  0.46221775626E+03  0.47000000000E+01 0. -1.
        -13    1    6    6    0    0 -0.52400338777E+02  0.49848148383E+02  0.27319812354E+03  0.28260900217E+03  0.00000000000E+00 0.  1.
         14    1    6    6    0    0  0.31916122938E+01 -0.15401584186E+02  0.19017185069E+02  0.24678908250E+02  0.00000000000E+00 0. -1.
         -5    1    3    3    0  503  0.25215560239E+02  0.41515276646E+02 -0.83881373496E+01  0.49515588670E+02  0.47000000000E+01 0.  1.
         13    1    4    4    0    0 -0.41079411839E+02 -0.40534566993E+02 -0.35723403289E+02  0.67872901374E+02  0.00000000000E+00 0. -1.
        -14    1    4    4    0    0 -0.11479247673E+02 -0.57915361335E+02  0.33892784950E+02  0.68078506721E+02  0.00000000000E+00 0.  1.
</event>
<event>
12    1  0.8684423E-002  0.1940684E+03  0.7818608E-02  0.1155393E+00
         21   -1    0    0  503  502  0.00000000000E+00  0.00000000000E+00  0.11828859379E+03  0.11828859379E+03  0.00000000000E+00 0.  1.
         21   -1    0    0  501  503 -0.00000000000E+00 -0.00000000000E+00 -0.42414862640E+03  0.42414862640E+03  0.00000000000E+00 0. -1.
          6    2    1    2  501    0  0.11137983620E+02  0.88673505200E+02 -0.29167440279E+03  0.35033770883E+03  0.17226580561E+03 0.  0.
         24    2    3    3    0    0  0.28323111716E+02 -0.47272565101E-01 -0.21732573542E+03  0.23322016371E+03  0.79743141356E+02 0.  0.
         -6    2    1    2    0  502 -0.11137983620E+02 -0.88673505200E+02 -0.14185629826E+02  0.19209951137E+03  0.16945189574E+03 0.  0.
        -24    2    5    5    0    0 -0.31831043635E+02 -0.12307719625E+03 -0.18454246126E+02  0.15145313667E+03  0.80226440977E+02 0.  0.
          5    1    3    3  501    0 -0.17185128096E+02  0.88720777765E+02 -0.74348667364E+02  0.11711754511E+03  0.47000000000E+01 0. -1.
        -13    1    4    4    0    0 -0.24561172397E+02 -0.78397553287E+01 -0.11407762097E+03  0.11695476288E+03  0.00000000000E+00 0.  1.
         14    1    4    4    0    0  0.52884284113E+02  0.77924827636E+01 -0.10324811445E+03  0.11626540084E+03  0.00000000000E+00 0. -1.
         -5    1    5    5    0  502  0.20693060015E+02  0.34403691052E+02  0.42686163004E+01  0.40646374696E+02  0.47000000000E+01 0.  1.
         11    1    6    6    0    0 -0.38605964046E+02 -0.18588368133E+02 -0.18684596155E+02  0.46744647001E+02  0.00000000000E+00 0. -1.
        -12    1    6    6    0    0  0.67749204110E+01 -0.10448882812E+03  0.23035002915E+00  0.10470848967E+03  0.00000000000E+00 0.  1.
</event>
<event>
12    1  0.8684423E-002  0.1865105E+03  0.7818608E-02  0.1161714E+00
         21   -1    0    0  503  502  0.00000000000E+00  0.00000000000E+00  0.21440607249E+03  0.21440607249E+03  0.00000000000E+00 0. -1.
         21   -1    0    0  501  503 -0.00000000000E+00 -0.00000000000E+00 -0.24119331684E+03  0.24119331684E+03  0.00000000000E+00 0. -1.
          6    2    1    2  501    0  0.69073913379E+02  0.21513092518E+02 -0.14393776317E+03  0.23559341695E+03  0.17190741632E+03 0.  0.
         24    2    3    3    0    0  0.63908579356E+02  0.78034323931E+02 -0.11738417252E+03  0.17275621895E+03  0.76759396828E+02 0.  0.
         -6    2    1    2    0  502 -0.69073913379E+02 -0.21513092518E+02  0.11715051882E+03  0.22000597238E+03  0.17159360468E+03 0.  0.
        -24    2    5    5    0    0 -0.92165615593E+02 -0.49740937245E+02  0.45608426613E+02  0.13956718270E+03  0.80188580064E+02 0.  0.
          5    1    3    3  501    0  0.51653340229E+01 -0.56521231413E+02 -0.26553590647E+02  0.62837197998E+02  0.47000000000E+01 0. -1.
        -13    1    4    4    0    0  0.92056335143E+00  0.15961847369E+02 -0.71231438367E+02  0.73003738398E+02  0.00000000000E+00 0.  1.
         14    1    4    4    0    0  0.62988016005E+02  0.62072476562E+02 -0.46152734155E+02  0.99752480554E+02  0.00000000000E+00 0. -1.
         -5    1    5    5    0  502  0.23091702214E+02  0.28227844727E+02  0.71542092203E+02  0.80438789684E+02  0.47000000000E+01 0.  1.
         13    1    6    6    0    0  0.27063548455E+01 -0.43286586104E+01  0.33276811106E+02  0.33666122427E+02  0.00000000000E+00 0. -1.
        -14    1    6    6    0    0 -0.94871970439E+02 -0.45412278634E+02  0.12331615507E+02  0.10590106027E+03  0.00000000000E+00 0.  1.
</event>
<event>
12    1  0.8684423E-002  0.2243191E+03  0.7818608E-02  0.1131983E+00
         21   -1    0    0  501  502  0.00000000000E+00  0.00000000000E+00  0.14640279004E+03  0.14640279004E+03  0.00000000000E+00 0.  1.
         21   -1    0    0  502  503 -0.00000000000E+00 -0.00000000000E+00 -0.35741935991E+03  0.35741935991E+03  0.00000000000E+00 0. -1.
         -6    2    1    2    0  503  0.46745035881E+02 -0.12304230677E+03 -0.16956980808E+03  0.27570613796E+03  0.17301863213E+03 0.  0.
        -24    2    3    3    0    0  0.27583379311E+02 -0.15589160476E+03 -0.15158919465E+03  0.23337839387E+03  0.80144591455E+02 0.  0.
          6    2    1    2  501    0 -0.46745035881E+02  0.12304230677E+03 -0.41446761791E+02  0.22811601199E+03  0.18164408393E+03 0.  0.
         24    2    5    5    0    0 -0.35415786906E+02  0.51967108467E+02  0.50759551327E+02  0.11105137226E+03  0.76164407070E+02 0.  0.
          5    1    5    5  501    0 -0.11329248976E+02  0.71075198306E+02 -0.92206313118E+02  0.11706463973E+03  0.47000000000E+01 0. -1.
        -11    1    6    6    0    0  0.22784268758E+02  0.26688667783E+02  0.21718512683E+02  0.41268652559E+02  0.00000000000E+00 0.  1.
         12    1    6    6    0    0 -0.58200055664E+02  0.25278440684E+02  0.29041038644E+02  0.69782719696E+02  0.00000000000E+00 0. -1.
         -5    1    3    3    0  503  0.19161656570E+02  0.32849297991E+02 -0.17980613431E+02  0.42327744097E+02  0.47000000000E+01 0.  1.
         11    1    4    4    0    0  0.42706266739E+02 -0.15167679682E+03 -0.15007623036E+03  0.21760641266E+03  0.00000000000E+00 0. -1.
        -12    1    4    4    0    0 -0.15122887428E+02 -0.42148079397E+01 -0.15129642892E+01  0.15771981203E+02  0.00000000000E+00 0.  1.
</event>
<event>
12    1  0.8684423E-002  0.1931815E+03  0.7818608E-02  0.1155691E+00
         21   -1    0    0  503  502  0.00000000000E+00  0.00000000000E+00  0.78982885833E+02  0.78982885833E+02  0.00000000000E+00 0.  1.
         21   -1    0    0  501  503 -0.00000000000E+00 -0.00000000000E+00 -0.69004736800E+03  0.69004736800E+03  0.00000000000E+00 0.  1.
          6    2    1    2  501    0 -0.13256468128E+02 -0.86470288508E+02 -0.52164063881E+03  0.55615540160E+03  0.17189249527E+03 0.  0.
         24    2    3    3    0    0 -0.16191387573E+02 -0.12316499103E+03 -0.29097178294E+03  0.32252037423E+03  0.62634154246E+02 0.  0.
         -6    2    1    2    0  502  0.13256468128E+02  0.86470288508E+02 -0.89423843359E+02  0.21287485224E+03  0.17223888705E+03 0.  0.
        -24    2    5    5    0    0 -0.49976952257E+02  0.88162850815E+02 -0.54501165742E+02  0.14046619507E+03  0.80560479575E+02 0.  0.
          5    1    3    3  501    0  0.29349194449E+01  0.36694702527E+02 -0.23066885587E+03  0.23363502737E+03  0.47000000000E+01 0. -1.
        -11    1    4    4    0    0  0.68258855332E+01 -0.89676573778E+02 -0.24592128598E+03  0.26185064349E+03  0.00000000000E+00 0.  1.
         12    1    4    4    0    0 -0.23017273106E+02 -0.33488417257E+02 -0.45050496952E+02  0.60669730733E+02  0.00000000000E+00 0. -1.
         -5    1    5    5    0  502  0.63233420384E+02 -0.16925623073E+01 -0.34922677617E+02  0.72408657166E+02  0.47000000000E+01 0.  1.
         11    1    6    6    0    0 -0.28558188017E+02 -0.52174885857E+01 -0.29637738900E+02  0.41487201124E+02  0.00000000000E+00 0. -1.
        -12    1    6    6    0    0 -0.21418764239E+02  0.93380339401E+02 -0.24863426842E+02  0.98978993946E+02  0.00000000000E+00 0.  1.
</event>
<event>
12    1  0.8684423E-002  0.2291809E+03  0.7818608E-02  0.1127617E+00
         21   -1    0    0  501  502  0.00000000000E+00  0.00000000000E+00  0.78585531402E+03  0.78585531402E+03  0.00000000000E+00 0.  1.
         21   -1    0    0  502  503 -0.00000000000E+00 -0.00000000000E+00 -0.67221256496E+02  0.67221256496E+02  0.00000000000E+00 0.  1.
         -6    2    1    2    0  503  0.14287324847E+03  0.49318003995E+02  0.30805812627E+03  0.38395791183E+03  0.17227547198E+03 0.  0.
        -24    2    3    3    0    0  0.53720271459E+02  0.16467942250E+02  0.25998956199E+03  0.27737434490E+03  0.78644098172E+02 0.  0.
          6    2    1    2  501    0 -0.14287324847E+03 -0.49318003995E+02  0.41057593125E+03  0.46911865869E+03  0.16927696228E+03 0.  0.
         24    2    5    5    0    0 -0.14579451085E+03 -0.62653330840E+01  0.22063527565E+03  0.27428126778E+03  0.72491345681E+02 0.  0.
          5    1    5    5  501    0  0.29212623802E+01 -0.43052670911E+02  0.18994065560E+03  0.19483739091E+03  0.47000000000E+01 0. -1.
        -11    1    6    6    0    0 -0.10564464786E+03 -0.37069254999E+02  0.14311290965E+03  0.18170367690E+03  0.00000000000E+00 0.  1.
         12    1    6    6    0    0 -0.40149862989E+02  0.30803921915E+02  0.77522365995E+02  0.92577590879E+02  0.00000000000E+00 0. -1.
         -5    1    3    3    0  503  0.89152977013E+02  0.32850061744E+02  0.48068564279E+02  0.10658356693E+03  0.47000000000E+01 0.  1.
         13    1    4    4    0    0  0.40492695227E+01  0.69476725702E+01 -0.37189487278E+01  0.88598711870E+01  0.00000000000E+00 0. -1.
        -14    1    4    4    0    0  0.49671001936E+02  0.95202696801E+01  0.26370851072E+03  0.26851447372E+03  0.00000000000E+00 0.  1.
</event>
<event>
12    1  0.8684423E-002  0.1851460E+03  0.7818608E-02  0.1163228E+00
         21   -1    0    0  501  502  0.00000000000E+00  0.00000000000E+00  0.68800540666E+03  0.68800540666E+03  0.00000000000E+00 0.  1.
         21   -1    0    0  502  503 -0.00000000000E+00 -0.00000000000E+00 -0.52103734846E+02  0.52103734846E+02  0.00000000000E+00 0.  1.
         -6    2    1    2    0  503 -0.35994931129E+02  0.56228096493E+02  0.23574297229E+03  0.29975623993E+03  0.17268995481E+03 0.  0.
        -24    2    3    3    0    0 -0.12182028388E+02  0.51475136548E+01  0.29050227478E+02  0.85466107079E+02  0.79282034726E+02 0.  0.
          6    2    1    2  501    0  0.35994931129E+02 -0.56228096493E+02  0.40015869952E+03  0.44035290157E+03  0.17124969845E+03 0.  0.
         24    2    5    5    0    0  0.34575352804E+02 -0.41282989205E+02  0.41069511377E+03  0.42141940058E+03  0.77615040405E+02 0.  0.
          5    1    5    5  501    0  0.14195783246E+01 -0.14945107288E+02 -0.10536414247E+02  0.18933500988E+02  0.47000000000E+01 0. -1.
        -11    1    6    6    0    0  0.43401183814E+02  0.24472299079E+01  0.27917285109E+03  0.28253695772E+03  0.00000000000E+00 0.  1.
         12    1    6    6    0    0 -0.88258310105E+01 -0.43730219113E+02  0.13152226267E+03  0.13888244286E+03  0.00000000000E+00 0. -1.
         -5    1    3    3    0  503 -0.23812902740E+02  0.51080582838E+02  0.20669274481E+03  0.21429013285E+03  0.47000000000E+01 0.  1.
         11    1    4    4    0    0  0.84276047013E+01 -0.25737762468E+02 -0.12426869722E+02  0.29797382921E+02  0.00000000000E+00 0. -1.
        -12    1    4    4    0    0 -0.20609633089E+02  0.30885276123E+02  0.41477097200E+02  0.55668724158E+02  0.00000000000E+00 0.  1.
</event>
<event>
12    1  0.8684423E-002  0.2044553E+03  0.7818608E-02  0.1146182E+00
         21   -1    0    0  501  502  0.00000000000E+00  0.00000000000E+00  0.46453685462E+02  0.46453685462E+02  0.00000000000E+00 0.  1.
         21   -1    0    0  502  503 -0.00000000000E+00 -0.00000000000E+00 -0.90186403791E+03  0.90186403791E+03  0.00000000000E+00 0. -1.
         -6    2    1    2    0  503 -0.76377305160E+01  0.10842639232E+03 -0.46435870067E+03  0.50737655212E+03  0.17316854585E+03 0.  0.
        -24    2    3    3    0    0  0.47119906840E+02  0.11756943048E+03 -0.33595281065E+03  0.36740456711E+03  0.77967739136E+02 0.  0.
          6    2    1    2  501    0  0.76377305160E+01 -0.10842639232E+03 -0.39105165178E+03  0.44094117125E+03  0.17231687285E+03 0.  0.
         24    2    5    5    0    0 -0.39638810131E+02 -0.50890447918E+02 -0.32559663782E+03  0.34168440803E+03  0.81080152745E+02 0.  0.
          5    1    5    5  501    0  0.47276540647E+02 -0.57535944406E+02 -0.65455013958E+02  0.99256763228E+02  0.47000000000E+01 0. -1.
        -13    1    6    6    0    0  0.14967238449E+02 -0.14329901499E+02 -0.18964274667E+02  0.28089286524E+02  0.00000000000E+00 0.  1.
         14    1    6    6    0    0 -0.54606048580E+02 -0.36560546418E+02 -0.30663236315E+03  0.31359512150E+03  0.00000000000E+00 0. -1.
         -5    1    3    3    0  503 -0.54757637356E+02 -0.91430381574E+01 -0.12840589002E+03  0.13997198501E+03  0.47000000000E+01 0.  1.
         11    1    4    4    0    0  0.11645049584E+02  0.52195788005E+02 -0.24060853730E+03  0.24648017301E+03  0.00000000000E+00 0. -1.
        -12    1    4    4    0    0  0.35474857256E+02  0.65373642476E+02 -0.95344273346E+02  0.12092439410E+03  0.00000000000E+00 0.  1.
</event>
<event>
12    1  0.8684423E-002  0.2387794E+03  0.7818608E-02  0.1120831E+00
         21   -1    0    0  501  502  0.00000000000E+00  0.00000000000E+00  0.84954758054E+03  0.84954758054E+03  0.00000000000E+00 0.  1.
         21   -1    0    0  502  503 -0.00000000000E+00 -0.00000000000E+00 -0.85846329123E+02  0.85846329123E+02  0.00000000000E+00 0. -1.
         -6    2    1    2    0  503 -0.16296591680E+03 -0.17186251162E+02  0.60330411242E+03  0.64883855622E+03  0.17367314908E+03 0.  0.
        -24    2    3    3    0    0 -0.19213107291E+02  0.13048483530E+02  0.15035511404E+03  0.17264122889E+03  0.81602249851E+02 0.  0.
          6    2    1    2  501    0  0.16296591680E+03  0.17186251162E+02  0.16039713900E+03  0.28655535344E+03  0.17185305094E+03 0.  0.
         24    2    5    5    0    0  0.28888876897E+02  0.52327403122E+02  0.67162187585E+02  0.11944341684E+03  0.78633619136E+02 0.  0.
          5    1    5    5  501    0  0.13407703991E+03 -0.35141151960E+02  0.93234951413E+02  0.16711193660E+03  0.47000000000E+01 0. -1.
        -11    1    6    6    0    0  0.14733472993E+02  0.50595244109E+02  0.19955331302E+01  0.52734581684E+02  0.00000000000E+00 0.  1.
         12    1    6    6    0    0  0.14155403905E+02  0.17321590124E+01  0.65166654455E+02  0.66708835153E+02  0.00000000000E+00 0. -1.
         -5    1    3    3    0  503 -0.14375280951E+03 -0.30234734692E+02  0.45294899838E+03  0.47619732733E+03  0.47000000000E+01 0.  1.
         13    1    4    4    0    0 -0.32677107868E+02 -0.22766250497E+02  0.42705019032E+02  0.58393614298E+02  0.00000000000E+00 0. -1.
        -14    1    4    4    0    0  0.13464000577E+02  0.35814734027E+02  0.10765009501E+03  0.11424761459E+03  0.00000000000E+00 0.  1.
</event>
<event>
12    1  0.8684423E-002  0.2647072E+03  0.7818608E-02  0.1104895E+00
         21   -1    0    0  503  502  0.00000000000E+00  0.00000000000E+00  0.21257863912E+03  0.21257863912E+03  0.00000000000E+00 0. -1.
         21   -1    0    0  501  503 -0.00000000000E+00 -0.00000000000E+00 -0.43093461574E+03  0.43093461574E+03  0.00000000000E+00 0.  1.
          6    2    1    2  501    0  0.64653545140E+02 -0.18979009475E+03 -0.26926273045E+03  0.37758747082E+03  0.17282800452E+03 0.  0.
         24    2    3    3    0    0  0.10549427155E+03 -0.11159536523E+03 -0.15605084900E+03  0.23398593615E+03  0.82552916194E+02 0.  0.
         -6    2    1    2    0  502 -0.64653545140E+02  0.18979009475E+03  0.50906753830E+02  0.26592578404E+03  0.16710674453E+03 0.  0.
        -24    2    5    5    0    0 -0.79634470622E+02  0.19278116039E+03  0.76985917934E+02  0.23533841078E+03  0.77143446382E+02 0.  0.
          5    1    3    3  501    0 -0.40840726407E+02 -0.78194729515E+02 -0.11321188146E+03  0.14360153467E+03  0.47000000000E+01 0. -1.
        -11    1    4    4    0    0  0.40354849679E+01 -0.58177118871E+02 -0.39155884665E+02  0.70242761926E+02  0.00000000000E+00 0.  1.
         12    1    4    4    0    0  0.10145878658E+03 -0.53418246360E+02 -0.11689496433E+03  0.16374317422E+03  0.00000000000E+00 0. -1.
         -5    1    5    5    0  502  0.14980925482E+02 -0.29910656391E+01 -0.26079164105E+02  0.30587373250E+02  0.47000000000E+01 0.  1.
         13    1    6    6    0    0 -0.12218201580E+02  0.12876094403E+03  0.47900349815E+02  0.13792428601E+03  0.00000000000E+00 0. -1.
        -14    1    6    6    0    0 -0.67416269042E+02  0.64020216351E+02  0.29085568119E+02  0.97414124776E+02  0.00000000000E+00 0.  1.
</event>
<event>
12    1  0.8684423E-002  0.1824766E+03  0.7818608E-02  0.1165712E+00
         21   -1    0    0  501  502  0.00000000000E+00  0.00000000000E+00  0.43094249928E+03  0.43094249928E+03  0.00000000000E+00 0. -1.
         21   -1    0    0  502  503 -0.00000000000E+00 -0.00000000000E+00 -0.82402329099E+02  0.82402329099E+02  0.00000000000E+00 0.  1.
         -6    2    1    2    0  503 -0.27363317929E+02 -0.54827564696E+02  0.10659500239E+03  0.21030166390E+03  0.17061501190E+03 0.  0.
        -24    2    3    3    0    0 -0.14236725003E+02  0.10390272079E+02 -0.16825677456E+01  0.83133287835E+02  0.81226045203E+02 0.  0.
          6    2    1    2  501    0  0.27363317929E+02  0.54827564696E+02  0.24194516779E+03  0.30304316449E+03  0.17188043026E+03 0.  0.
         24    2    5    5    0    0  0.42611545418E+02  0.91586089777E+02  0.21852045156E+03  0.25662651943E+03  0.88894471601E+02 0.  0.
          5    1    5    5  501    0 -0.15248227489E+02 -0.36758525081E+02  0.23424716233E+02  0.46416645056E+02  0.47000000000E+01 0. -1.
        -11    1    6    6    0    0  0.33572810086E+02  0.43198183598E+02  0.31274537694E+02  0.63018357256E+02  0.00000000000E+00 0.  1.
         12    1    6    6    0    0  0.90387353322E+01  0.48387906179E+02  0.18724591387E+03  0.19360816217E+03  0.00000000000E+00 0. -1.
         -5    1    3    3    0  503 -0.13126592926E+02 -0.65217836774E+02  0.10827757014E+03  0.12716837606E+03  0.47000000000E+01 0.  1.
         11    1    4    4    0    0  0.26195126966E+02 -0.17478159047E+02  0.92579194714E+01  0.32823464067E+02  0.00000000000E+00 0. -1.
        -12    1    4    4    0    0 -0.40431851969E+02  0.27868431125E+02 -0.10940487217E+02  0.50309823768E+02  0.00000000000E+00 0.  1.
</event>
<event>
12    1  0.8684423E-002  0.1792352E+03  0.7818608E-02  0.1168824E+00
         21   -1    0    0  503  502  0.00000000000E+00  0.00000000000E+00  0.33571580121E+03  0.33571580121E+03  0.00000000000E+00 0.  1.
         21   -1    0    0  501  503 -0.00000000000E+00 -0.00000000000E+00 -0.98303010022E+02  0.98303010022E+02  0.00000000000E+00 0. -1.
          6    2    1    2  501    0  0.19866847311E+02 -0.45199076407E+02  0.15761056066E+03  0.23782078818E+03  0.17111396883E+03 0.  0.
         24    2    3    3    0    0  0.69495832023E+02 -0.14808221538E+02  0.56758820403E+02  0.12128837339E+03  0.80251802055E+02 0.  0.
         -6    2    1    2    0  502 -0.19866847311E+02  0.45199076407E+02  0.79802230525E+02  0.19619802305E+03  0.17230095798E+03 0.  0.
        -24    2    5    5    0    0  0.20319126403E+02  0.85796480482E+02  0.73029722461E+02  0.13848304608E+03  0.77912198841E+02 0.  0.
          5    1    3    3  501    0 -0.49628984712E+02 -0.30390854869E+02  0.10085174026E+03  0.11653241479E+03  0.47000000000E+01 0. -1.
        -11    1    4    4    0    0 -0.39135630574E+01  0.42254517004E+01  0.44012659581E+02  0.44387888227E+02  0.00000000000E+00 0.  1.
         12    1    4    4    0    0  0.73409395081E+02 -0.19033673238E+02  0.12746160822E+02  0.76900485166E+02  0.00000000000E+00 0. -1.
         -5    1    5    5    0  502 -0.40185973714E+02 -0.40597404075E+02  0.67725080642E+01  0.57714976969E+02  0.47000000000E+01 0.  1.
         11    1    6    6    0    0 -0.44517826039E+01  0.71375028258E+02  0.14012616328E+02  0.72873633390E+02  0.00000000000E+00 0. -1.
        -12    1    6    6    0    0  0.24770909007E+02  0.14421452225E+02  0.59017106133E+02  0.65609412691E+02  0.00000000000E+00 0.  1.
</event>
<event>
12    1  0.8684423E-002  0.2442999E+03  0.7818608E-02  0.1117091E+00
         21   -1    0    0  501  502  0.00000000000E+00  0.00000000000E+00  0.55026321128E+03  0.55026321128E+03  0.00000000000E+00 0. -1.
         21   -1    0    0  502  503 -0.00000000000E+00 -0.00000000000E+00 -0.14953685620E+03  0.14953685620E+03  0.00000000000E+00 0. -1.
         -6    2    1    2    0  503  0.11088455576E+02  0.17237553462E+03  0.15953445745E+02  0.24402312671E+03  0.17162894615E+03 0.  0.
        -24    2    3    3    0    0  0.48848236256E+02  0.59900859424E+02 -0.32620314017E+02  0.11573495993E+03  0.79725986471E+02 0.  0.
          6    2    1    2  501    0 -0.11088455576E+02 -0.17237553462E+03  0.38477290934E+03  0.45577694076E+03  0.17276038084E+03 0.  0.
         24    2    5    5    0    0 -0.65552527706E+02 -0.75788093079E+02  0.16658581788E+03  0.21098485369E+03  0.81992712022E+02 0.  0.
          5    1    5    5  501    0  0.54464072129E+02 -0.96587441546E+02  0.21818709145E+03  0.24479208707E+03  0.47000000000E+01 0. -1.
        -11    1    6    6    0    0 -0.60049529080E+02 -0.82882008789E+01  0.64861778128E+02  0.88778885318E+02  0.00000000000E+00 0.  1.
         12    1    6    6    0    0 -0.55029986261E+01 -0.67499892200E+02  0.10172403976E+03  0.12220596837E+03  0.00000000000E+00 0. -1.
         -5    1    3    3    0  503 -0.37759780680E+02  0.11247467520E+03  0.48573759761E+02  0.12828816678E+03  0.47000000000E+01 0.  1.
         11    1    4    4    0    0  0.17915272318E+02  0.68345451906E+02 -0.94188486629E+00  0.70660773599E+02  0.00000000000E+00 0. -1.
        -12    1    4    4    0    0  0.30932963938E+02 -0.84445924817E+01 -0.31678429151E+02  0.45074186333E+02  0.00000000000E+00 0.  1.
</event>
<event>
12    1  0.8684423E-002  0.1866428E+03  0.7818608E-02  0.1161686E+00
         21   -1    0    0  503  502  0.00000000000E+00  0.00000000000E+00  0.63208641831E+03  0.63208641831E+03  0.00000000000E+00 0.  1.
         21   -1    0    0  501  503 -0.00000000000E+00 -0.00000000000E+00 -0.66001931719E+02  0.66001931719E+02  0.00000000000E+00 0. -1.
          6    2    1    2  501    0  0.48267711262E+02  0.53764877619E+02  0.13948852052E+03  0.23244936888E+03  0.17133367363E+03 0.  0.
         24    2    3    3    0    0  0.51337996385E+02  0.94696589472E+02  0.13619141016E+03  0.19100310701E+03  0.79567912855E+02 0.  0.
         -6    2    1    2    0  502 -0.48267711262E+02 -0.53764877619E+02  0.42659596608E+03  0.46563898115E+03  0.17209040788E+03 0.  0.
        -24    2    5    5    0    0 -0.89600592347E+02 -0.56190249390E+02  0.38298632851E+03  0.40532165383E+03  0.80134293301E+02 0.  0.
          5    1    3    3  501    0 -0.30702851223E+01 -0.40931711853E+02  0.32971103577E+01  0.41446261866E+02  0.47000000000E+01 0. -1.
        -11    1    4    4    0    0  0.22881111094E+02  0.27159908286E+01  0.71208669172E+02  0.74843813480E+02  0.00000000000E+00 0.  1.
         12    1    4    4    0    0  0.28456885291E+02  0.91980598643E+02  0.64982740989E+02  0.11615929353E+03  0.00000000000E+00 0. -1.
         -5    1    5    5    0  502  0.41332881084E+02  0.24253717708E+01  0.43609637565E+02  0.60317327324E+02  0.47000000000E+01 0.  1.
         11    1    6    6    0    0 -0.78159258101E+02 -0.24232201511E+02  0.15943802444E+03  0.17921091723E+03  0.00000000000E+00 0. -1.
        -12    1    6    6    0    0 -0.11441334246E+02 -0.31958047879E+02  0.22354830407E+03  0.22611073660E+03  0.00000000000E+00 0.  1.
</event>
<event>
12    1  0.8684423E-002  0.2260149E+03  0.7818608E-02  0.1129721E+00
         21   -1    0    0  503  502  0.00000000000E+00  0.00000000000E+00  0.43719219180E+03  0.43719219180E+03  0.00000000000E+00 0. -1.
         21   -1    0    0  501  503 -0.00000000000E+00 -0.00000000000E+00 -0.28334413995E+03  0.28334413995E+03  0.00000000000E+00 0.  1.
          6    2    1    2  501    0  0.48026730674E+02  0.13658721217E+03 -0.19992111285E+03  0.30073238923E+03  0.17178150419E+03 0.  0.
         24    2    3    3    0    0  0.35195917367E+02  0.90368218385E+02 -0.21649435235E+03  0.24976585684E+03  0.78153766067E+02 0.  0.
         -6    2    1    2    0  502 -0.48026730674E+02 -0.13658721217E+03  0.35376916470E+03  0.41980394252E+03  0.17355141853E+03 0.  0.
        -24    2    5    5    0    0  0.44187363279E+01 -0.75241522746E+02  0.30804802158E+03  0.32692588511E+03  0.79411200594E+02 0.  0.
          5    1    3    3  501    0  0.12830813307E+02  0.46218993782E+02  0.16573239500E+02  0.50966532390E+02  0.47000000000E+01 0. -1.
        -11    1    4    4    0    0  0.26294720820E+02  0.93086251408E+02 -0.12626398420E+03  0.15905677052E+03  0.00000000000E+00 0.  1.
         12    1    4    4    0    0  0.89011965473E+01 -0.27180330229E+01 -0.90230368151E+02  0.90709086315E+02  0.00000000000E+00 0. -1.
         -5    1    5    5    0  502 -0.52445467002E+02 -0.61345689421E+02  0.45721143117E+02  0.92878057406E+02  0.47000000000E+01 0.  1.
         13    1    6    6    0    0  0.23058751317E+02 -0.82789495011E+02  0.21127410284E+03  0.22808453044E+03  0.00000000000E+00 0. -1.
        -14    1    6    6    0    0 -0.18640014989E+02  0.75479722650E+01  0.96773918747E+02  0.98841354674E+02  0.00000000000E+00 0.  1.
</event>
<event>
12    1  0.8684423E-002  0.2190100E+03  0.7818608E-02  0.1134813E+00
         21   -1    0    0  503  502  0.00000000000E+00  0.00000000000E+00  0.33356955216E+03  0.33356955216E+03  0.00000000000E+00 0.  1.
         21   -1    0    0  501  503 -0.00000000000E+00 -0.00000000000E+00 -0.35236206249E+03  0.35236206249E+03  0.00000000000E+00 0. -1.
          6    2    1    2  501    0 -0.13151661379E+03  0.20175700102E+02 -0.27367006375E+03  0.34988409371E+03  0.17268438452E+03 0.  0.
         24    2    3    3    0    0 -0.41833620358E+02  0.55551537444E+02 -0.78797622708E+02  0.13241720552E+03  0.80555731446E+02 0.  0.
         -6    2    1    2    0  502  0.13151661379E+03 -0.20175700102E+02  0.25487755342E+03  0.33604752095E+03  0.17395887595E+03 0.  0.
        -24    2    5    5    0    0  0.98951153668E+02 -0.58227856545E+02  0.89160841785E+02  0.16286381987E+03  0.73438096554E+02 0.  0.
          5    1    3    3  501    0 -0.89682993430E+02 -0.35375837342E+02 -0.19487244105E+03  0.21746688819E+03  0.47000000000E+01 0. -1.
        -13    1    4    4    0    0 -0.10877083063E+02 -0.20717650864E+02 -0.11381207088E+02  0.26020450958E+02  0.00000000000E+00 0.  1.
         14    1    4    4    0    0 -0.30956537296E+02  0.76269188308E+02 -0.67416415619E+02  0.10639675456E+03  0.00000000000E+00 0. -1.
         -5    1    5    5    0  502  0.32565460120E+02  0.38052156443E+02  0.16571671164E+03  0.17318370108E+03  0.47000000000E+01 0.  1.
         11    1    6    6    0    0  0.91223998294E+02 -0.15103642972E+02  0.59438995807E+02  0.10992239134E+03  0.00000000000E+00 0. -1.
        -12    1    6    6    0    0  0.77271553734E+01 -0.43124213573E+02  0.29721845977E+02  0.52941428530E+02  0.00000000000E+00 0.  1.
</event>
<event>
12    1  0.8684423E-002  0.1725608E+03  0.7818608E-02  0.1175342E+00
         21   -1    0    0  503  502  0.00000000000E+00  0.00000000000E+00  0.53567329675E+02  0.53567329675E+02  0.00000000000E+00 0. -1.
         21   -1    0    0  501  503 -0.00000000000E+00 -0.00000000000E+00 -0.70502754742E+03  0.70502754742E+03  0.00000000000E+00 0. -1.
          6    2    1    2  501    0 -0.48086324397E+01 -0.10768006928E+02 -0.50079862347E+03  0.52951813043E+03  0.17161327530E+03 0.  0.
         24    2    3    3    0    0  0.22333237377E+02 -0.47716200208E+00 -0.49235593132E+03  0.49892480375E+03  0.77540928016E+02 0.  0.
         -6    2    1    2    0  502  0.48086324397E+01  0.10768006928E+02 -0.15066159427E+03  0.22907674667E+03  0.17215739007E+03 0.  0.
        -24    2    5    5    0    0 -0.32792355476E+02 -0.49563368538E+02 -0.10498294006E+03  0.14444614577E+03  0.79444353135E+02 0.  0.
          5    1    3    3  501    0 -0.27141869817E+02 -0.10290844926E+02 -0.84426921554E+01  0.30593326679E+02  0.47000000000E+01 0. -1.
        -13    1    4    4    0    0 -0.28146824547E+02 -0.88819364497E+01 -0.18265372249E+03  0.18502301172E+03  0.00000000000E+00 0.  1.
         14    1    4    4    0    0  0.50480061925E+02  0.84047744476E+01 -0.30970220883E+03  0.31390179203E+03  0.00000000000E+00 0. -1.
         -5    1    5    5    0  502  0.37600987916E+02  0.60331375465E+02 -0.45678654215E+02  0.84630600900E+02  0.47000000000E+01 0.  1.
         13    1    6    6    0    0 -0.52410191112E+02 -0.87886873311E+01 -0.47380785549E+02  0.71196966204E+02  0.00000000000E+00 0. -1.
        -14    1    6    6    0    0  0.19617835636E+02 -0.40774681207E+02 -0.57602154507E+02  0.73249179561E+02  0.00000000000E+00 0.  1.
</event>
<event>
12    1  0.8684423E-002  0.2100661E+03  0.7818608E-02  0.1141565E+00
         21   -1    0    0  501  502  0.00000000000E+00  0.00000000000E+00  0.67772648850E+02  0.67772648850E+02  0.00000000000E+00 0. -1.
         21   -1    0    0  502  503 -0.00000000000E+00 -0.00000000000E+00 -0.65507895168E+03  0.65507895168E+03  0.00000000000E+00 0. -1.
         -6    2    1    2    0  503  0.11902719271E+03  0.60512686051E+01 -0.26263080544E+03  0.33614506722E+03  0.17266868794E+03 0.  0.
        -24    2    3    3    0    0  0.12109806206E+03 -0.49947065236E+02 -0.19895734933E+03  0.25119507660E+03  0.79721325230E+02 0.  0.
          6    2    1    2  501    0 -0.11902719271E+03 -0.60512686051E+01 -0.32467549738E+03  0.38670653330E+03  0.17298460580E+03 0.  0.
         24    2    5    5    0    0 -0.93426993775E+02  0.34986525824E+02 -0.11418757014E+03  0.17068170077E+03  0.78363139594E+02 0.  0.
          5    1    5    5  501    0 -0.25600198935E+02 -0.41037794429E+02 -0.21048792724E+03  0.21602483254E+03  0.47000000000E+01 0. -1.
        -11    1    6    6    0    0 -0.61901513556E+02  0.24749455591E+02 -0.11976547844E+03  0.13706970036E+03  0.00000000000E+00 0.  1.
         12    1    6    6    0    0 -0.31525480219E+02  0.10237070232E+02  0.55779082988E+01  0.33612000402E+02  0.00000000000E+00 0. -1.
         -5    1    3    3    0  503 -0.20708693526E+01  0.55998333841E+02 -0.63673456115E+02  0.84949990621E+02  0.47000000000E+01 0.  1.
         13    1    4    4    0    0  0.35855283091E+02 -0.81457212896E+01 -0.75509643699E+01  0.37536264648E+02  0.00000000000E+00 0. -1.
        -14    1    4    4    0    0  0.85242778972E+02 -0.41801343946E+02 -0.19140638496E+03  0.21365881195E+03  0.00000000000E+00 0.  1.
</event>
<event>
12    1  0.8684423E-002  0.2256217E+03  0.7818608E-02  0.1129961E+00
         21   -1    0    0  503  502  0.00000000000E+00  0.00000000000E+00  0.80062340056E+02  0.80062340056E+02  0.00000000000E+00 0. -1.
         21   -1    0    0  501  503 -0.00000000000E+00 -0.00000000000E+00 -0.95001633398E+03  0.95001633398E+03  0.00000000000E+00 0.  1.
          6    2    1    2  501    0  0.88109010603E+02 -0.11444871299E+03 -0.73192644964E+03  0.76558528713E+03  0.17188018659E+03 0.  0.
         24    2    3    3    0    0  0.82343997404E+02 -0.65400059611E+02 -0.26515768370E+03  0.29618761285E+03  0.79754642941E+02 0.  0.
         -6    2    1    2    0  502 -0.88109010603E+02  0.11444871299E+03 -0.13802754428E+03  0.26449338690E+03  0.17333044475E+03 0.  0.
        -24    2    5    5    0    0 -0.10906283947E+03  0.11449502916E+03 -0.65713195086E+02  0.18905785025E+03  0.80130094712E+02 0.  0.
          5    1    3    3  501    0  0.57650131987E+01 -0.49048653383E+02 -0.46676876593E+03  0.46939767429E+03  0.47000000000E+01 0. -1.
        -13    1    4    4    0    0  0.74411006399E+02 -0.24345181478E+02 -0.22492210026E+03  0.23815884809E+03  0.00000000000E+00 0.  1.
         14    1    4    4    0    0  0.79329910047E+01 -0.41054878134E+02 -0.40235583440E+02  0.58028764761E+02  0.00000000000E+00 0. -1.
         -5    1    5    5    0  502  0.20953828869E+02 -0.46316161375E-01 -0.72314349195E+02  0.75435536645E+02  0.47000000000E+01 0.  1.
         13    1    6    6    0    0 -0.96864677193E+02  0.45724460982E+02 -0.34275473311E+02  0.11246466152E+03  0.00000000000E+00 0. -1.
        -14    1    6    6    0    0 -0.12198162279E+02  0.68770568174E+02 -0.31437721776E+02  0.76593188734E+02  0.00000000000E+00 0.  1.
</event>
<event>
12    1  0.8684423E-002  0.1895002E+03  0.7818608E-02  0.1159736E+00
         21   -1    0    0  501  502  0.00000000000E+00  0.00000000000E+00  0.23065176218E+02  0.23065176218E+02  0.00000000000E+00 0. -1.
         21   -1    0    0  502  503 -0.00000000000E+00 -0.00000000000E+00 -0.15304220599E+04  0.15304220599E+04  0.00000000000E+00 0. -1.
         -6    2    1    2    0  503  0.71279990258E+02 -0.20135654375E+02 -0.72675297284E+03  0.75105274444E+03  0.17442494034E+03 0.  0.
        -24    2    3    3    0    0  0.87331007193E+02  0.40608347466E+02 -0.55331797993E+03  0.56652834045E+03  0.74282103589E+02 0.  0.
          6    2    1    2  501    0 -0.71279990258E+02  0.20135654375E+02 -0.78060391081E+03  0.80243449164E+03  0.17050620581E+03 0.  0.
         24    2    5    5    0    0 -0.26512283113E+02  0.67058783026E+02 -0.33419206179E+03  0.35131194006E+03  0.80845306146E+02 0.  0.
          5    1    5    5  501    0 -0.44767707145E+02 -0.46923128651E+02 -0.44641184902E+03  0.45112255158E+03  0.47000000000E+01 0. -1.
        -11    1    6    6    0    0  0.31296639170E+00  0.44457055075E+00  0.47828686793E+01  0.48136705060E+01  0.00000000000E+00 0.  1.
         12    1    6    6    0    0 -0.26825249505E+02  0.66614212475E+02 -0.33897493047E+03  0.34649826955E+03  0.00000000000E+00 0. -1.
         -5    1    3    3    0  503 -0.16051016935E+02 -0.60744001841E+02 -0.17343499290E+03  0.18452440399E+03  0.47000000000E+01 0.  1.
         13    1    4    4    0    0  0.83856479545E+02  0.13696387335E+02 -0.49457757923E+03  0.50182315816E+03  0.00000000000E+00 0. -1.
        -14    1    4    4    0    0  0.34745276486E+01  0.26911960131E+02 -0.58740400706E+02  0.64705182293E+02  0.00000000000E+00 0.  1.
</event>
<event>
12    1  0.8684423E-002  0.2011213E+03  0.7818608E-02  0.1148948E+00
         21   -1    0    0  503  502  0.00000000000E+00  0.00000000000E+00  0.61492269261E+03  0.61492269261E+03  0.00000000000E+00 0. -1.
         21   -1    0    0  501  503 -0.00000000000E+00 -0.00000000000E+00 -0.87450805922E+02  0.87450805922E+02  0.00000000000E+00 0.  1.
          6    2    1    2  501    0  0.22001151591E+02  0.10069346896E+03  0.87608096509E+02  0.21871045245E+03  0.17185999556E+03 0.  0.
         24    2    3    3    0    0  0.47701498433E+01  0.29129473557E+02 -0.20165218204E+02  0.88113782419E+02  0.80536464211E+02 0.  0.
         -6    2    1    2    0  502 -0.22001151591E+02 -0.10069346896E+03  0.43986379018E+03  0.48366304608E+03  0.17270368516E+03 0.  0.
        -24    2    5    5    0    0  0.18529513448E+02 -0.81250407610E+02  0.41791442503E+03  0.43341732911E+03  0.79076816569E+02 0.  0.
          5    1    3    3  501    0  0.17231001747E+02  0.71563995408E+02  0.10777331471E+03  0.13059667004E+03  0.47000000000E+01 0. -1.
        -13    1    4    4    0    0  0.83108571951E+01  0.36222432344E+02  0.23344753018E+02  0.43887497602E+02  0.00000000000E+00 0.  1.
         14    1    4    4    0    0 -0.35407073518E+01 -0.70929587877E+01 -0.43509971223E+02  0.44226284817E+02  0.00000000000E+00 0. -1.
         -5    1    5    5    0  502 -0.40530665039E+02 -0.19443061355E+02  0.21949365151E+02  0.50245716970E+02  0.47000000000E+01 0.  1.
         13    1    6    6    0    0 -0.25248239072E+02 -0.58110751079E+02  0.19365451039E+03  0.20375574191E+03  0.00000000000E+00 0. -1.
        -14    1    6    6    0    0  0.43777752521E+02 -0.23139656530E+02  0.22425991464E+03  0.22966158720E+03  0.00000000000E+00 0.  1.
</event>
<event>
12    1  0.8684423E-002  0.2047876E+03  0.7818608E-02  0.1146505E+00
         21   -1    0    0  501  502  0.00000000000E+00  0.00000000000E+00  0.15768887453E+03  0.15768887453E+03  0.00000000000E+00 0. -1.
         21   -1    0    0  502  503 -0.00000000000E+00 -0.00000000000E+00 -0.27679329801E+03  0.27679329801E+03  0.00000000000E+00 0. -1.
         -6    2    1    2    0  503 -0.26869232189E+02  0.10157502799E+03 -0.86504979565E+01  0.20497026486E+03  0.17577979523E+03 0.  0.
        -24    2    3    3    0    0 -0.44255131330E+02 -0.75792275129E-01  0.48796911115E+02  0.86828597533E+02  0.56564515569E+02 0.  0.
          6    2    1    2  501    0  0.26869232189E+02 -0.10157502799E+03 -0.11045392552E+03  0.22951190769E+03  0.17156982298E+03 0.  0.
         24    2    5    5    0    0  0.18878734954E+02 -0.13410485847E+03 -0.11465327026E+03  0.19542727165E+03  0.81889721108E+02 0.  0.
          5    1    5    5  501    0  0.79904972351E+01  0.32529830487E+02  0.41993447384E+01  0.34084636037E+02  0.47000000000E+01 0. -1.
        -13    1    6    6    0    0  0.36250518150E+02 -0.10560889397E+03 -0.49322439327E+02  0.12206572644E+03  0.00000000000E+00 0.  1.
         14    1    6    6    0    0 -0.17371783196E+02 -0.28495964509E+02 -0.65330830935E+02  0.73361545208E+02  0.00000000000E+00 0. -1.
         -5    1    3    3    0  503  0.17385899141E+02  0.10165082026E+03 -0.57447409072E+02  0.11814166732E+03  0.47000000000E+01 0.  1.
         11    1    4    4    0    0  0.34339224774E+01  0.10425921526E+01  0.37676952225E+02  0.37847477471E+02  0.00000000000E+00 0. -1.
        -12    1    4    4    0    0 -0.47689053808E+02 -0.11183844277E+01  0.11119958891E+02  0.48981120062E+02  0.00000000000E+00 0.  1.
</event>
<event>
12    1  0.8684423E-002  0.2120877E+03  0.7818608E-02  0.1140124E+00
         21   -1    0    0  501  502  0.00000000000E+00  0.00000000000E+00  0.87775652414E+02  0.87775652414E+02  0.00000000000E+00 0. -1.
         21   -1    0    0  502  503 -0.00000000000E+00 -0.00000000000E+00 -0.53414665101E+03  0.53414665101E+03  0.00000000000E+00 0.  1.
         -6    2    1    2    0  503 -0.13567144542E+02  0.12171755187E+03 -0.15756118993E+03  0.26420962346E+03  0.17315301531E+03 0.  0.
        -24    2    3    3    0    0  0.59186984021E+02  0.61215871447E+02 -0.78398220916E+02  0.14074917546E+03  0.80084751080E+02 0.  0.
          6    2    1    2  501    0  0.13567144542E+02 -0.12171755187E+03 -0.28880980866E+03  0.35771267996E+03  0.17189539256E+03 0.  0.
         24    2    5    5    0    0  0.49768738157E+02 -0.13347034995E+02 -0.11439164533E+03  0.14914971583E+03  0.80654315266E+02 0.  0.
          5    1    5    5  501    0 -0.36201593615E+02 -0.10837051687E+03 -0.17441816333E+03  0.20856296413E+03  0.47000000000E+01 0. -1.
        -13    1    6    6    0    0 -0.14710297971E+02 -0.13362740181E+02 -0.25283076495E+01  0.20033672432E+02  0.00000000000E+00 0.  1.
         14    1    6    6    0    0  0.64479036128E+02  0.15705185314E-01 -0.11186333768E+03  0.12911604340E+03  0.00000000000E+00 0. -1.
         -5    1    3    3    0  503 -0.72754128562E+02  0.60501680419E+02 -0.79162969019E+02  0.12346044800E+03  0.47000000000E+01 0.  1.
         13    1    4    4    0    0  0.10532496418E+02 -0.72927096760E+01  0.11841372258E+02  0.17445205421E+02  0.00000000000E+00 0. -1.
        -14    1    4    4    0    0  0.48654487602E+02  0.68508581123E+02 -0.90239593174E+02  0.12330397004E+03  0.00000000000E+00 0.  1.
</event>
<event>
12    1  0.8684423E-002  0.1942268E+03  0.7818608E-02  0.1154903E+00
         21   -1    0    0  501  502  0.00000000000E+00  0.00000000000E+00  0.79327881102E+03  0.79327881102E+03  0.00000000000E+00 0.  1.
         21   -1    0    0  502  503 -0.00000000000E+00 -0.00000000000E+00 -0.47390362610E+02  0.47390362610E+02  0.00000000000E+00 0.  1.
         -6    2    1    2    0  503 -0.88228710936E+02  0.17050662151E+02  0.35742942900E+03  0.40635999599E+03  0.17116547289E+03 0.  0.
        -24    2    3    3    0    0 -0.10170241643E+03 -0.38514121429E+02  0.27145665428E+03  0.30300432896E+03  0.79348529646E+02 0.  0.
          6    2    1    2  501    0  0.88228710936E+02 -0.17050662151E+02  0.38845901940E+03  0.43430917764E+03  0.17218891228E+03 0.  0.
         24    2    5    5    0    0  0.11902569849E+03  0.53581098159E+01  0.35652745050E+03  0.38438601071E+03  0.80280483473E+02 0.  0.
          5    1    5    5  501    0 -0.30796987557E+02 -0.22408771966E+02  0.31931568903E+02  0.49923166930E+02  0.47000000000E+01 0. -1.
        -13    1    6    6    0    0  0.54298066449E+02 -0.12892535718E+02  0.26497141625E+03  0.27078469109E+03  0.00000000000E+00 0.  1.
         14    1    6    6    0    0  0.64727632044E+02  0.18250645534E+02  0.91556034248E+02  0.11360131962E+03  0.00000000000E+00 0. -1.
         -5    1    3    3    0  503  0.13473705490E+02  0.55564783580E+02  0.85972774724E+02  0.10335566703E+03  0.47000000000E+01 0.  1.
         11    1    4    4    0    0  0.12190652715E+02  0.38693961852E+01  0.32387232044E+02  0.34821215371E+02  0.00000000000E+00 0. -1.
        -12    1    4    4    0    0 -0.11389306914E+03 -0.42383517615E+02  0.23906942224E+03  0.26818311359E+03  0.00000000000E+00 0.  1.
</event>
<event>
12    1  0.8684423E-002  0.2043744E+03  0.7818608E-02  0.1146873E+00
         21   -1    0    0  501  502  0.00000000000E+00  0.00000000000E+00  0.22857748946E+03  0.22857748946E+03  0.00000000000E+00 0. -1.
         21   -1    0    0  502  503 -0.00000000000E+00 -0.00000000000E+00 -0.19634027424E+03  0.19634027424E+03  0.00000000000E+00 0. -1.
         -6    2    1    2    0  503  0.71014065350E+02  0.81070504452E+02 -0.46124342757E+02  0.20951457737E+03  0.17364757115E+03 0.  0.
        -24    2    3    3    0    0  0.36468455846E+02 -0.19592988736E+02  0.16008972120E+02  0.86189086025E+02  0.73881241747E+02 0.  0.
          6    2    1    2  501    0 -0.71014065350E+02 -0.81070504452E+02  0.78361557978E+02  0.21540318633E+03  0.16924117331E+03 0.  0.
         24    2    5    5    0    0 -0.25592018386E+02 -0.16109295329E+02  0.10067606167E+03  0.13292198777E+03  0.81351857010E+02 0.  0.
          5    1    5    5  501    0 -0.45422046963E+02 -0.64961209123E+02 -0.22314503689E+02  0.82481198560E+02  0.47000000000E+01 0. -1.
        -11    1    6    6    0    0  0.24025383667E+02 -0.21390984057E+02  0.61787521292E+02  0.69659823763E+02  0.00000000000E+00 0.  1.
         12    1    6    6    0    0 -0.49617402054E+02  0.52816887286E+01  0.38888540375E+02  0.63262164008E+02  0.00000000000E+00 0. -1.
         -5    1    3    3    0  503  0.34545609504E+02  0.10066349319E+03 -0.62133314877E+02  0.12332549134E+03  0.47000000000E+01 0.  1.
         13    1    4    4    0    0  0.26571795596E+02 -0.68704130538E+01 -0.28068496446E+02  0.39256889707E+02  0.00000000000E+00 0. -1.
        -14    1    4    4    0    0  0.98966602500E+01 -0.12722575683E+02  0.44077468566E+02  0.46932196319E+02  0.00000000000E+00 0.  1.
</event>
<event>
12    1  0.8684423E-002  0.1823269E+03  0.7818608E-02  0.1165725E+00
         21   -1    0    0  501  502  0.00000000000E+00  0.00000000000E+00  0.72407740750E+03  0.72407740750E+03  0.00000000000E+00 0. -1.
         21   -1    0    0  502  503 -0.00000000000E+00 -0.00000000000E+00 -0.61757457978E+02  0.61757457978E+02  0.00000000000E+00 0. -1.
         -6    2    1    2    0  503  0.36149916302E+02 -0.45938551025E+02  0.53165575880E+03  0.56205065833E+03  0.17270185218E+03 0.  0.
        -24    2    3    3    0    0  0.13969419492E+02 -0.61464459942E+02  0.52396589678E+03  0.53351555251E+03  0.78265952145E+02 0.  0.
          6    2    1    2  501    0 -0.36149916302E+02  0.45938551025E+02  0.13066419072E+03  0.22378420714E+03  0.17201474853E+03 0.  0.
         24    2    5    5    0    0 -0.11262199158E+02 -0.61131310685E+01 -0.53231934960E+01  0.75988961149E+02  0.74711299856E+02 0.  0.
          5    1    5    5  501    0 -0.24887717144E+02  0.52051682094E+02  0.13598738421E+03  0.14779524600E+03  0.47000000000E+01 0. -1.
        -13    1    6    6    0    0  0.28668935236E+02  0.82214311679E+01  0.90940101509E+01  0.31180134680E+02  0.00000000000E+00 0.  1.
         14    1    6    6    0    0 -0.39931134394E+02 -0.14334562236E+02 -0.14417203647E+02  0.44808826469E+02  0.00000000000E+00 0. -1.
         -5    1    3    3    0  503  0.22180496810E+02  0.15525908917E+02  0.76898620245E+01  0.28535105824E+02  0.47000000000E+01 0.  1.
         11    1    4    4    0    0 -0.23630115323E+02 -0.22460868153E+02  0.34480452514E+03  0.34634236458E+03  0.00000000000E+00 0. -1.
        -12    1    4    4    0    0  0.37599534815E+02 -0.39003591790E+02  0.17916137164E+03  0.18717318793E+03  0.00000000000E+00 0.  1.
</event>
<event>
12    1  0.8684423E-002  0.2870444E+03  0.7818608E-02  0.1091968E+00
         21   -1    0    0  503  502  0.00000000000E+00  0.00000000000E+00  0.77822440495E+03  0.77822440495E+03  0.00000000000E+00 0. -1.
         21   -1    0    0  501  503 -0.00000000000E+00 -0.00000000000E+00 -0.10899607613E+03  0.10899607613E+03  0.00000000000E+00 0.  1.
          6    2    1    2  501    0 -0.19346626207E+03 -0.12513900974E+03  0.41213172053E+03  0.50224203535E+03  0.17118861145E+03 0.  0.
         24    2    3    3    0    0 -0.17116202174E+03 -0.14167471497E+03  0.27644089230E+03  0.36365993135E+03  0.80379202470E+02 0.  0.
         -6    2    1    2    0  502  0.19346626207E+03  0.12513900974E+03  0.25709660829E+03  0.38497844573E+03  0.17035483956E+03 0.  0.
        -24    2    5    5    0    0  0.20521070488E+03  0.69466791442E+02  0.22306005065E+03  0.31851112230E+03  0.68967240942E+02 0.  0.
          5    1    3    3  501    0 -0.22304240337E+02  0.16535705226E+02  0.13569082823E+03  0.13858210400E+03  0.47000000000E+01 0. -1.
        -11    1    4    4    0    0  0.65468343835E+01 -0.14625930414E+02  0.32273864569E+02  0.36033057255E+02  0.00000000000E+00 0.  1.
         12    1    4    4    0    0 -0.17770885612E+03 -0.12704878455E+03  0.24416702773E+03  0.32762687410E+03  0.00000000000E+00 0. -1.
         -5    1    5    5    0  502 -0.11744442809E+02  0.55672218298E+02  0.34036557638E+02  0.66467323423E+02  0.47000000000E+01 0.  1.
         13    1    6    6    0    0  0.26333217527E+02  0.25432531035E+01  0.66454217684E+02  0.71526705010E+02  0.00000000000E+00 0. -1.
        -14    1    6    6    0    0  0.17887748736E+03  0.66923538338E+02  0.15660583297E+03  0.24698441729E+03  0.00000000000E+00 0.  1.
</event>
<event>
12    1  0.8684423E-002  0.1821944E+03  0.7818608E-02  0.1165985E+00
         21   -1    0    0  501  502  0.00000000000E+00  0.00000000000E+00  0.99633327076E+02  0.99633327076E+02  0.00000000000E+00 0. -1.
         21   -1    0    0  502  503 -0.00000000000E+00 -0.00000000000E+00 -0.33546569738E+03  0.33546569738E+03  0.00000000000E+00 0. -1.
         -6    2    1    2    0  503 -0.30579484245E+02  0.50500517221E+02 -0.14273151466E+03  0.23049559403E+03  0.17108631300E+03 0.  0.
        -24    2    3    3    0    0 -0.15254923559E+02  0.73232953898E+02 -0.27836659084E+02  0.11228170451E+03  0.78971661687E+02 0.  0.
          6    2    1    2  501    0  0.30579484245E+02 -0.50500517221E+02 -0.93100855638E+02  0.20460343042E+03  0.17236411263E+03 0.  0.
         24    2    5    5    0    0  0.13082546771E+02  0.38774289141E+02 -0.59394933640E+02  0.10747303842E+03  0.79674947862E+02 0.  0.
          5    1    5    5  501    0  0.17496937474E+02 -0.89274806362E+02 -0.33705921998E+02  0.97130391998E+02  0.47000000000E+01 0. -1.
        -13    1    6    6    0    0  0.13086627777E+02  0.23692303270E+02  0.15421643568E+02  0.31151438990E+02  0.00000000000E+00 0.  1.
         14    1    6    6    0    0 -0.40810055347E-02  0.15081985871E+02 -0.74816577208E+02  0.76321599431E+02  0.00000000000E+00 0. -1.
         -5    1    3    3    0  503 -0.15324560686E+02 -0.22732436677E+02 -0.11489485558E+03  0.11821388952E+03  0.47000000000E+01 0.  1.
         11    1    4    4    0    0  0.24311855586E+02  0.60117566469E+02 -0.57339698670E+01  0.65100434182E+02  0.00000000000E+00 0. -1.
        -12    1    4    4    0    0 -0.39566779145E+02  0.13115387429E+02 -0.22102689217E+02  0.47181270330E+02  0.00000000000E+00 0.  1.
</event>
<event>
12    1  0.8684423E-002  0.2729904E+03  0.7818608E-02  0.1099938E+00
         21   -1    0    0  503  502  0.00000000000E+00  0.00000000000E+00  0.64532687899E+03  0.64532687899E+03  0.00000000000E+00 0.  1.
         21   -1    0    0  501  503 -0.00000000000E+00 -0.00000000000E+00 -0.13325295551E+03  0.13325295551E+03  0.00000000000E+00 0. -1.
          6    2    1    2  501    0 -0.19981782060E+03 -0.47866751291E+02  0.11069362553E+03  0.29457908227E+03  0.17973694576E+03 0.  0.
         24    2    3    3    0    0 -0.13855966365E+03  0.17215253452E+02  0.11140838828E+02  0.16070945736E+03  0.78792550741E+02 0.  0.
         -6    2    1    2    0  502  0.19981782060E+03  0.47866751291E+02  0.40138029796E+03  0.48400075223E+03  0.17587551638E+03 0.  0.
        -24    2    5    5    0    0  0.27291927097E+02 -0.15611681728E+02  0.13294244556E+03  0.15861534077E+03  0.80601232045E+02 0.  0.
          5    1    3    3  501    0 -0.61258156947E+02 -0.65082004743E+02  0.99552786697E+02  0.13386962491E+03  0.47000000000E+01 0. -1.
        -13    1    4    4    0    0 -0.11432803518E+03  0.26868328722E+02  0.37835673772E+02  0.12338697227E+03  0.00000000000E+00 0.  1.
         14    1    4    4    0    0 -0.24231628473E+02 -0.96530752696E+01 -0.26694834943E+02  0.37322485090E+02  0.00000000000E+00 0. -1.
         -5    1    5    5    0  502  0.17252589350E+03  0.63478433018E+02  0.26843785240E+03  0.32538541146E+03  0.47000000000E+01 0.  1.
         13    1    6    6    0    0  0.29171512132E+02  0.20046416140E+02  0.21091589636E+02  0.41203046896E+02  0.00000000000E+00 0. -1.
        -14    1    6    6    0    0 -0.18795850352E+01 -0.35658097868E+02  0.11185085592E+03  0.11741229388E+03  0.00000000000E+00 0.  1.
</event>
<event>
12    1  0.8684423E-002  0.2029684E+03  0.7818608E-02  0.1147498E+00
         21   -1    0    0  503  502  0.00000000000E+00  0.00000000000E+00  0.40463359947E+02  0.40463359947E+02  0.00000000000E+00 0.  1.
         21   -1    0    0  501  503 -0.00000000000E+00 -0.00000000000E+00 -0.10123321493E+04  0.10123321493E+04  0.00000000000E+00 0.  1.
          6    2    1    2  501    0  0.45334716598E+02 -0.95168126583E+02 -0.48640461357E+03  0.52705369706E+03  0.17344723299E+03 0.  0.
         24    2    3    3    0    0 -0.12098231914E+02 -0.75374057726E+02 -0.42991536758E+03  0.44396655215E+03  0.80320983260E+02 0.  0.
         -6    2    1    2    0  502 -0.45334716598E+02  0.95168126583E+02 -0.48546417575E+03  0.52574181216E+03  0.17209525929E+03 0.  0.
        -24    2    5    5    0    0 -0.97156902618E+02  0.74769645227E+02 -0.37333406804E+03  0.40045458990E+03  0.77172460380E+02 0.  0.
          5    1    3    3  501    0  0.57432948512E+02 -0.19794068857E+02 -0.56489245995E+02  0.83087144913E+02  0.47000000000E+01 0. -1.
        -11    1    4    4    0    0  0.34556953230E+02 -0.33045669859E+02 -0.18667154847E+03  0.19269786279E+03  0.00000000000E+00 0.  1.
         12    1    4    4    0    0 -0.46655185144E+02 -0.42328387866E+02 -0.24324381910E+03  0.25126868936E+03  0.00000000000E+00 0. -1.
         -5    1    5    5    0  502  0.51822186020E+02  0.20398481356E+02 -0.11213010772E+03  0.12528722226E+03  0.47000000000E+01 0.  1.
         11    1    6    6    0    0  0.94388031312E+01  0.25450808328E+02 -0.80017620243E+02  0.84496474473E+02  0.00000000000E+00 0. -1.
        -12    1    6    6    0    0 -0.10659570575E+03  0.49318836899E+02 -0.29331644779E+03  0.31595811543E+03  0.00000000000E+00 0.  1.
</event>
<event>
12    1  0.8684423E-002  0.3671883E+03  0.7818608E-02  0.1055850E+00
         21   -1    0    0  503  502  0.00000000000E+00  0.00000000000E+00  0.20141468880E+03  0.20141468880E+03  0.00000000000E+00 0.  1.
         21   -1    0    0  501  503 -0.00000000000E+00 -0.00000000000E+00 -0.67231045684E+03  0.67231045684E+03  0.00000000000E+00 0. -1.
          6    2    1    2  501    0 -0.22476805619E+03 -0.23351008833E+03 -0.27088135355E+03  0.45629372715E+03  0.17256771803E+03 0.  0.
         24    2    3    3    0    0 -0.10945639259E+03 -0.16391229010E+03 -0.90017139880E+02  0.23073977116E+03  0.79308358940E+02 0.  0.
         -6    2    1    2    0  502  0.22476805619E+03  0.23351008833E+03 -0.20001441449E+03  0.41743141848E+03  0.17086714926E+03 0.  0.
        -24    2    5    5    0    0  0.21991935660E+03  0.14069328196E+03 -0.15036114073E+03  0.31195152927E+03  0.80908349238E+02 0.  0.
          5    1    3    3  501    0 -0.11531166360E+03 -0.69597798232E+02 -0.18086421367E+03  0.22555395600E+03  0.47000000000E+01 0. -1.
        -11    1    4    4    0    0 -0.82940849430E+02 -0.16583392204E+03 -0.73585930496E+02  0.19948674986E+03  0.00000000000E+00 0.  1.
         12    1    4    4    0    0 -0.26515543158E+02  0.19216319420E+01 -0.16431209384E+02  0.31253021295E+02  0.00000000000E+00 0. -1.
         -5    1    5    5    0  502  0.48486995843E+01  0.92816806366E+02 -0.49653273763E+02  0.10547988921E+03  0.47000000000E+01 0.  1.
         11    1    6    6    0    0  0.12625701811E+03  0.11885704759E+03 -0.71439070328E+02  0.18754032407E+03  0.00000000000E+00 0. -1.
        -12    1    6    6    0    0  0.93662338492E+02  0.21836234377E+02 -0.78922070402E+02  0.12441120520E+03  0.00000000000E+00 0.  1.
</event>
<event>
12    1  0.8684423E-002  0.2570556E+03  0.7818608E-02  0.1108936E+00
         21   -1    0    0  503  502  0.00000000000E+00  0.00000000000E+00  0.17475457603E+03  0.17475457603E+03  0.00000000000E+00 0.  1.
         21   -1    0    0  501  503 -0.00000000000E+00 -0.00000000000E+00 -0.72428055143E+03  0.72428055143E+03  0.00000000000E+00 0. -1.
          6    2    1    2  501    0 -0.13401338769E+03 -0.13613209557E+03 -0.58559537433E+03  0.63953070055E+03  0.17200592716E+03 0.  0.
         24    2    3    3    0    0 -0.34869651059E+02 -0.11960985757E+03 -0.26382680258E+03  0.30239635251E+03  0.79476799481E+02 0.  0.
         -6    2    1    2    0  502  0.13401338769E+03  0.13613209557E+03  0.36069398931E+02  0.25950442691E+03  0.17190116498E+03 0.  0.
        -24    2    5    5    0    0  0.83817765801E+02  0.74476878269E+01 -0.92777283959E+00  0.11643046712E+03  0.80463078443E+02 0.  0.
          5    1    3    3  501    0 -0.99143736634E+02 -0.16522237996E+02 -0.32176857175E+03  0.33713434804E+03  0.47000000000E+01 0. -1.
        -11    1    4    4    0    0  0.37990652581E+01  0.10510937644E+02 -0.30122681606E+02  0.32129249199E+02  0.00000000000E+00 0.  1.
         12    1    4    4    0    0 -0.38668716318E+02 -0.13012079522E+03 -0.23370412098E+03  0.27026710331E+03  0.00000000000E+00 0. -1.
         -5    1    5    5    0  502  0.50195621893E+02  0.12868440774E+03  0.36997171770E+02  0.14307395980E+03  0.47000000000E+01 0.  1.
         11    1    6    6    0    0  0.83509396230E+02  0.83296044404E+01  0.27250178220E+02  0.88237031805E+02  0.00000000000E+00 0. -1.
        -12    1    6    6    0    0  0.30836957074E+00 -0.88191661347E+00 -0.28177951059E+02  0.28193435310E+02  0.00000000000E+00 0.  1.
</event>
<event>
12    1  0.8684423E-002  0.2602079E+03  0.7818608E-02  0.1107077E+00
         21   -1    0    0  501  502  0.00000000000E+00  0.00000000000E+00  0.87450314647E+03  0.87450314647E+03  0.00000000000E+00 0. -1.
         21   -1    0    0  502  503 -0.00000000000E+00 -0.00000000000E+00 -0.85721973460E+02  0.85721973460E+02  0.00000000000E+00 0.  1.
         -6    2    1    2    0  503 -0.74242695914E+02  0.18006528215E+03  0.24370524768E+03  0.35622519204E+03  0.17195538946E+03 0.  0.
        -24    2    3    3    0    0 -0.89588660906E+02  0.16613016034E+03  0.25894019011E+03  0.33007409776E+03  0.79205616099E+02 0.  0.
          6    2    1    2  501    0  0.74242695914E+02 -0.18006528215E+03  0.54507592533E+03  0.60399992789E+03  0.17254757252E+03 0.  0.
         24    2    5    5    0    0  0.33647157208E+01 -0.10048348876E+03  0.42276854535E+03  0.44170964748E+03  0.79157544935E+02 0.  0.
          5    1    5    5  501    0  0.70877980193E+02 -0.79581793394E+02  0.12230737998E+03  0.16229028041E+03  0.47000000000E+01 0. -1.
        -11    1    6    6    0    0  0.11648094185E+02 -0.25909964690E+02  0.28048450872E+02  0.39921422379E+02  0.00000000000E+00 0.  1.
         12    1    6    6    0    0 -0.82833784643E+01 -0.74573524069E+02  0.39472009448E+03  0.40178822511E+03  0.00000000000E+00 0. -1.
         -5    1    3    3    0  503  0.15345964992E+02  0.13935121817E+02 -0.15234942424E+02  0.26151094285E+02  0.47000000000E+01 0.  1.
         11    1    4    4    0    0 -0.82839176513E+02  0.88789184691E+02  0.11887793032E+03  0.16993472512E+03  0.00000000000E+00 0. -1.
        -12    1    4    4    0    0 -0.67494843935E+01  0.77340975645E+02  0.14006225978E+03  0.16013937264E+03  0.00000000000E+00 0.  1.
</event>
<event>
12    1  0.8684423E-002  0.1949460E+03  0.7818608E-02  0.1155363E+00
         21   -1    0    0  501  502  0.00000000000E+00  0.00000000000E+00  0.99414297063E+03  0.99414297063E+03  0.00000000000E+00 0. -1.
         21   -1    0    0  502  503 -0.00000000000E+00 -0.00000000000E+00 -0.37190588889E+02  0.37190588889E+02  0.00000000000E+00 0. -1.
         -6    2    1    2    0  503 -0.19744623130E+02 -0.78052435156E+02  0.49725793085E+03  0.53201109276E+03  0.17113830737E+03 0.  0.
        -24    2    3    3    0    0 -0.51091799146E+02 -0.81694832277E+02  0.47846414134E+03  0.49498125310E+03  0.82426262868E+02 0.  0.
          6    2    1    2  501    0  0.19744623130E+02  0.78052435156E+02  0.45969445089E+03  0.49932246676E+03  0.17754409271E+03 0.  0.
         24    2    5    5    0    0  0.33249306120E+02 -0.58092526231E+01  0.35026728014E+03  0.36071671349E+03  0.79310252076E+02 0.  0.
          5    1    5    5  501    0 -0.13504682990E+02  0.83861687779E+02  0.10942717075E+03  0.13860575327E+03  0.47000000000E+01 0. -1.
        -13    1    6    6    0    0  0.29175489273E+02  0.51614782513E+01  0.37788933059E+02  0.48019303346E+02  0.00000000000E+00 0.  1.
         14    1    6    6    0    0  0.40738168470E+01 -0.10970730874E+02  0.31247834708E+03  0.31269741015E+03  0.00000000000E+00 0. -1.
         -5    1    3    3    0  503  0.31347176016E+02  0.36423971216E+01  0.18793789507E+02  0.37029839657E+02  0.47000000000E+01 0.  1.
         13    1    4    4    0    0 -0.25905639952E+02 -0.86155400058E+02  0.26210214334E+03  0.27711259207E+03  0.00000000000E+00 0. -1.
        -14    1    4    4    0    0 -0.25186159194E+02  0.44605677809E+01  0.21636199800E+03  0.21786866103E+03  0.00000000000E+00 0.  1.
</event>
<event>
12    1  0.8684423E-002  0.1754728E+03  0.7818608E-02  0.1172424E+00
         21   -1    0    0  501  502  0.00000000000E+00  0.00000000000E+00  0.53804434696E+02  0.53804434696E+02  0.00000000000E+00 0. -1.
         21   -1    0    0  502  503 -0.00000000000E+00 -0.00000000000E+00 -0.15185753243E+04  0.15185753243E+04  0.00000000000E+00 0. -1.
         -6    2    1    2    0  503  0.13185988508E+02 -0.26938211926E+02 -0.13531912629E+04  0.13644357175E+04  0.17221700192E+03 0.  0.
        -24    2    3    3    0    0  0.40406642731E+02  0.43749398180E+02 -0.81098328465E+03  0.81694207930E+03  0.78445945226E+02 0.  0.
          6    2    1    2  501    0 -0.13185988508E+02  0.26938211926E+02 -0.11157962670E+03  0.20794404146E+03  0.17289064095E+03 0.  0.
         24    2    5    5    0    0  0.55702588799E+02  0.57604968223E+01 -0.41704497006E+02  0.10745147730E+03  0.81673699447E+02 0.  0.
          5    1    5    5  501    0 -0.68888577306E+02  0.21177715103E+02 -0.69875129697E+02  0.10049256416E+03  0.47000000000E+01 0. -1.
        -13    1    6    6    0    0  0.59722213591E+02  0.34037600540E+02 -0.38293041096E+02  0.78687089431E+02  0.00000000000E+00 0.  1.
         14    1    6    6    0    0 -0.40196247924E+01 -0.28277103718E+02 -0.34114559096E+01  0.28764387871E+02  0.00000000000E+00 0. -1.
         -5    1    3    3    0  503 -0.27220654223E+02 -0.70687610106E+02 -0.54220797824E+03  0.54749363824E+03  0.47000000000E+01 0.  1.
         11    1    4    4    0    0  0.10283092938E+02  0.58061675126E+01 -0.61312875401E+03  0.61324246638E+03  0.00000000000E+00 0. -1.
        -12    1    4    4    0    0  0.30123549793E+02  0.37943230668E+02 -0.19785453065E+03  0.20369961292E+03  0.00000000000E+00 0.  1.
</event>
<event>
12    1  0.8684423E-002  0.1819228E+03  0.7818608E-02  0.1165995E+00
         21   -1    0    0  503  502  0.00000000000E+00  0.00000000000E+00  0.19769801649E+04  0.19769801649E+04  0.00000000000E+00 0.  1.
         21   -1    0    0  501  503 -0.00000000000E+00 -0.00000000000E+00 -0.16725545916E+02  0.16725545916E+02  0.00000000000E+00 0.  1.
          6    2    1    2  501    0 -0.56269614888E+02 -0.12636284951E+02  0.97540570588E+03  0.99222587081E+03  0.17253968353E+03 0.  0.
         24    2    3    3    0    0 -0.43822308867E+01 -0.70404593806E+02  0.41778802823E+03  0.42920807132E+03  0.68532628523E+02 0.  0.
         -6    2    1    2    0  502  0.56269614888E+02  0.12636284951E+02  0.98484891314E+03  0.10014798400E+04  0.17236166346E+03 0.  0.
        -24    2    5    5    0    0  0.75165581650E+02 -0.46253388992E+01  0.37781408648E+03  0.39388754910E+03  0.82052781643E+02 0.  0.
          5    1    3    3  501    0 -0.51887384002E+02  0.57768308855E+02  0.55761767764E+03  0.56301779949E+03  0.47000000000E+01 0. -1.
        -11    1    4    4    0    0 -0.69922846121E+01 -0.21409798385E+02  0.30955588306E+03  0.31037415525E+03  0.00000000000E+00 0.  1.
         12    1    4    4    0    0  0.26100537254E+01 -0.48994795421E+02  0.10823214518E+03  0.11883391607E+03  0.00000000000E+00 0. -1.
         -5    1    5    5    0  502 -0.18895966761E+02  0.17261623850E+02  0.60703482667E+03  0.60759229094E+03  0.47000000000E+01 0.  1.
         13    1    6    6    0    0 -0.16966571688E+02 -0.17630833491E+01  0.35583803502E+02  0.39461121239E+02  0.00000000000E+00 0. -1.
        -14    1    6    6    0    0  0.92132153338E+02 -0.28622555500E+01  0.34223028297E+03  0.35442642787E+03  0.00000000000E+00 0.  1.
</event>
<event>
12    1  0.8684423E-002  0.2530665E+03  0.7818608E-02  0.1111592E+00
         21   -1    0    0  503  502  0.00000000000E+00  0.00000000000E+00  0.17195117704E+03  0.17195117704E+03  0.00000000000E+00 0.  1.
         21   -1    0    0  501  503 -0.00000000000E+00 -0.00000000000E+00 -0.39901457889E+03  0.39901457889E+03  0.00000000000E+00 0.  1.
          6    2    1    2  501    0 -0.16471827278E+03 -0.80822006034E+02 -0.18960888362E+03  0.31514255260E+03  0.17233395970E+03 0.  0.
         24    2    3    3    0    0 -0.12981568056E+03 -0.53175814616E+02 -0.50656968164E+02  0.16915547217E+03  0.79797663899E+02 0.  0.
         -6    2    1    2    0  502  0.16471827278E+03  0.80822006034E+02 -0.37454518239E+02  0.25582320333E+03  0.17429390229E+03 0.  0.
        -24    2    5    5    0    0  0.13353748118E+03  0.55689182005E+01 -0.66248090355E+02  0.16929905185E+03  0.80063023628E+02 0.  0.
          5    1    3    3  501    0 -0.34902592223E+02 -0.27646191418E+02 -0.13895191546E+03  0.14598708043E+03  0.47000000000E+01 0. -1.
        -11    1    4    4    0    0 -0.10289812592E+03 -0.59405462394E+02 -0.67644694190E+02  0.13672175369E+03  0.00000000000E+00 0.  1.
         12    1    4    4    0    0 -0.26917554643E+02  0.62296477778E+01  0.16987726025E+02  0.32433718487E+02  0.00000000000E+00 0. -1.
         -5    1    5    5    0  502  0.31180791606E+02  0.75253087834E+02  0.28793572117E+02  0.86524151478E+02  0.47000000000E+01 0.  1.
         13    1    6    6    0    0  0.13062617222E+03 -0.18163040065E+02 -0.55527542566E+02  0.14309577519E+03  0.00000000000E+00 0. -1.
        -14    1    6    6    0    0  0.29113089582E+01  0.23731958265E+02 -0.10720547790E+02  0.26203276663E+02  0.00000000000E+00 0.  1.
</event>
<event>
12    1  0.8684423E-002  0.2580772E+03  0.7818608E-02  0.1108472E+00
         21   -1    0    0  501  502  0.00000000000E+00  0.00000000000E+00  0.47684864075E+03  0.47684864075E+03  0.00000000000E+00 0.  1.
         21   -1    0    0  502  503 -0.00000000000E+00 -0.00000000000E+00 -0.14589500444E+03  0.14589500444E+03  0.00000000000E+00 0. -1.
         -6    2    1    2    0  503 -0.19203734221E+03 -0.44673581200E+01  0.98511237143E+02  0.27623957899E+03  0.17235296071E+03 0.  0.
        -24    2    3    3    0    0 -0.10647721735E+03 -0.64961939051E+02  0.29918527274E+02  0.15091129353E+03  0.79508797639E+02 0.  0.
          6    2    1    2  501    0  0.19203734221E+03  0.44673581200E+01  0.23244239918E+03  0.34650406620E+03  0.17069651685E+03 0.  0.
         24    2    5    5    0    0  0.17195861573E+03  0.45818462889E+02  0.22721600614E+03  0.30000165436E+03  0.81882733868E+02 0.  0.
          5    1    5    5  501    0  0.20078726487E+02 -0.41351104769E+02  0.52263930340E+01  0.46502411842E+02  0.47000000000E+01 0. -1.
        -11    1    6    6    0    0  0.17526960806E+03  0.27667992243E+02  0.20625826609E+03  0.27207981482E+03  0.00000000000E+00 0.  1.
         12    1    6    6    0    0 -0.33109923313E+01  0.18150470646E+02  0.20957740049E+02  0.27921839532E+02  0.00000000000E+00 0. -1.
         -5    1    3    3    0  503 -0.85560124867E+02  0.60494580931E+02  0.68592709869E+02  0.12532828546E+03  0.47000000000E+01 0.  1.
         13    1    4    4    0    0 -0.91144842800E+01 -0.48261600075E+02  0.88748305587E+01  0.49910104016E+02  0.00000000000E+00 0. -1.
        -14    1    4    4    0    0 -0.97362733066E+02 -0.16700338976E+02  0.21043696715E+02  0.10100118951E+03  0.00000000000E+00 0.  1.
</event>
<event>
12    1  0.8684423E-002  0.1871530E+03  0.7818608E-02  0.1162038E+00
         21   -1    0    0  501  502  0.00000000000E+00  0.00000000000E+00  0.96991785666E+03  0.96991785666E+03  0.00000000000E+00 0. -1.
         21   -1    0    0  502  503 -0.00000000000E+00 -0.00000000000E+00 -0.41426613166E+02  0.41426613166E+02  0.00000000000E+00 0. -1.
         -6    2    1    2    0  503 -0.62472645744E+02 -0.35012157977E+02  0.65415181967E+03  0.67924757352E+03  0.16832700400E+03 0.  0.
        -24    2    3    3    0    0 -0.71235947238E+02 -0.82430335488E+02  0.52661325179E+03  0.54281643591E+03  0.73884001947E+02 0.  0.
          6    2    1    2  501    0  0.62472645744E+02  0.35012157977E+02  0.27433942382E+03  0.33209689631E+03  0.17290906975E+03 0.  0.
         24    2    5    5    0    0 -0.17009504210E+01  0.37346407971E+02  0.60597059359E+02  0.10886699792E+03  0.82355158995E+02 0.  0.
          5    1    5    5  501    0  0.64173596165E+02 -0.23342499944E+01  0.21374236446E+03  0.22322989838E+03  0.47000000000E+01 0. -1.
        -11    1    6    6    0    0 -0.17806413234E+02 -0.17568504627E+02  0.41649509410E+02  0.48583972061E+02  0.00000000000E+00 0.  1.
         12    1    6    6    0    0  0.16105462813E+02  0.54914912598E+02  0.18947549949E+02  0.60283025863E+02  0.00000000000E+00 0. -1.
         -5    1    3    3    0  503  0.87633014942E+01  0.47418177512E+02  0.12753856788E+03  0.13643113761E+03  0.47000000000E+01 0.  1.
         11    1    4    4    0    0 -0.27900172511E+02 -0.83676506302E+02  0.36172265689E+03  0.37232171282E+03  0.00000000000E+00 0. -1.
        -12    1    4    4    0    0 -0.43335774728E+02  0.12461708139E+01  0.16489059491E+03  0.17049472309E+03  0.00000000000E+00 0.  1.
</event>
<event>
12    1  0.8684423E-002  0.1822868E+03  0.7818608E-02  0.1165654E+00
         21   -1    0    0  503  502  0.00000000000E+00  0.00000000000E+00  0.27212104799E+03  0.27212104799E+03  0.00000000000E+00 0. -1.
         21   -1    0    0  501  503 -0.00000000000E+00 -0.00000000000E+00 -0.16172062262E+03  0.16172062262E+03  0.00000000000E+00 0.  1.
          6    2    1    2  501    0  0.58260052419E+02 -0.88175490328E+01  0.16275443382E+03  0.24437164382E+03  0.17250075854E+03 0.  0.
         24    2    3    3    0    0 -0.36993390521E+01  0.33148825420E+01  0.12305628225E+02  0.81144516195E+02  0.80052048486E+02 0.  0.
         -6    2    1    2    0  502 -0.58260052419E+02  0.88175490328E+01 -0.52354008447E+02  0.18947002679E+03  0.17229615774E+03 0.  0.
        -24    2    5    5    0    0 -0.26978898315E+02  0.47654023037E+02  0.21544438366E+02  0.10019599498E+03  0.81094437041E+02 0.  0.
          5    1    3    3  501    0  0.61959391471E+02 -0.12132431575E+02  0.15044880559E+03  0.16322712762E+03  0.47000000000E+01 0. -1.
        -11    1    4    4    0    0 -0.21012304326E+02  0.66955632134E+00  0.41830327001E+02  0.46816038873E+02  0.00000000000E+00 0.  1.
         12    1    4    4    0    0  0.17312965274E+02  0.26453262207E+01 -0.29524698776E+02  0.34328477322E+02  0.00000000000E+00 0. -1.
         -5    1    5    5    0  502 -0.31281154105E+02 -0.38836474004E+02 -0.73898446814E+02  0.89274031816E+02  0.47000000000E+01 0.  1.
         11    1    6    6    0    0 -0.51612449095E+02  0.15283944165E+02  0.25043638551E+02  0.59368574875E+02  0.00000000000E+00 0. -1.
        -12    1    6    6    0    0  0.24633550781E+02  0.32370078872E+02 -0.34992001841E+01  0.40827420102E+02  0.00000000000E+00 0.  1.
</event>
<event>
12    1  0.8684423E-002  0.1807543E+03  0.7818608E-02  0.1167356E+00
         21   -1    0    0  501  502  0.00000000000E+00  0.00000000000E+00  0.73098836174E+02  0.73098836174E+02  0.00000000000E+00 0.  1.
         21   -1    0    0  502  503 -0.00000000000E+00 -0.00000000000E+00 -0.71814477438E+03  0.71814477438E+03  0.00000000000E+00 0.  1.
         -6    2    1    2    0  503 -0.13793905079E+02 -0.53393958856E+02 -0.56627439970E+03  0.59407092315E+03  0.17091629331E+03 0.  0.
        -24    2    3    3    0    0 -0.46030287456E+02  0.65654774631E-01 -0.17306296382E+03  0.19590709010E+03  0.79435551448E+02 0.  0.
          6    2    1    2  501    0  0.13793905079E+02  0.53393958856E+02 -0.78771538505E+02  0.19717268740E+03  0.17213636083E+03 0.  0.
         24    2    5    5    0    0 -0.13884955325E+02  0.90213676303E+02 -0.88113179164E+02  0.14993745525E+03  0.79912506958E+02 0.  0.
          5    1    5    5  501    0  0.27678860404E+02 -0.36819717447E+02  0.93416406587E+01  0.47235232151E+02  0.47000000000E+01 0. -1.
        -13    1    6    6    0    0 -0.12306047282E+02  0.47143760232E+02  0.33397468925E+01  0.48837760369E+02  0.00000000000E+00 0.  1.
         14    1    6    6    0    0 -0.15789080434E+01  0.43069916071E+02 -0.91452926057E+02  0.10109969488E+03  0.00000000000E+00 0. -1.
         -5    1    3    3    0  503  0.32236382378E+02 -0.53459613631E+02 -0.39321143588E+03  0.39816383305E+03  0.47000000000E+01 0.  1.
         13    1    4    4    0    0 -0.65601297823E+02 -0.10857451719E+02 -0.10533314573E+03  0.12456518825E+03  0.00000000000E+00 0. -1.
        -14    1    4    4    0    0  0.19571010367E+02  0.10923106494E+02 -0.67729818084E+02  0.71341901853E+02  0.00000000000E+00 0.  1.
</event>
<event>
12    1  0.8684423E-002  0.1823923E+03  0.7818608E-02  0.1165874E+00
         21   -1    0    0  501  502  0.00000000000E+00  0.00000000000E+00  0.25128286652E+03  0.25128286652E+03  0.00000000000E+00 0.  1.
         21   -1    0    0  502  503 -0.00000000000E+00 -0.00000000000E+00 -0.18168439990E+03  0.18168439990E+03  0.00000000000E+00 0.  1.
         -6    2    1    2    0  503 -0.56061111309E+02 -0.25151182393E+02 -0.79333781706E+02  0.19749379040E+03  0.17010149368E+03 0.  0.
        -24    2    3    3    0    0 -0.63818379791E+02  0.21706833288E+02  0.36273666631E+01  0.10178333650E+03  0.76175570817E+02 0.  0.
          6    2    1    2  501    0  0.56061111309E+02  0.25151182393E+02  0.14893224832E+03  0.23547347602E+03  0.17173093239E+03 0.  0.
         24    2    5    5    0    0  0.67627565376E+02  0.77136984001E+02  0.10666152650E+03  0.16731769599E+03  0.78070021487E+02 0.  0.
          5    1    5    5  501    0 -0.11566454067E+02 -0.51985801609E+02  0.42270721819E+02  0.68155780031E+02  0.47000000000E+01 0. -1.
        -13    1    6    6    0    0  0.35596196753E+02  0.33827002404E+02  0.10205327285E+03  0.11325292850E+03  0.00000000000E+00 0.  1.
         14    1    6    6    0    0  0.32031368623E+02  0.43309981597E+02  0.46082536575E+01  0.54064767489E+02  0.00000000000E+00 0. -1.
         -5    1    3    3    0  503  0.77572684824E+01 -0.46858015681E+02 -0.82961148369E+02  0.95710453904E+02  0.47000000000E+01 0.  1.
         11    1    4    4    0    0 -0.34977825181E+02 -0.24622561832E+02  0.16270487003E+02  0.45765134686E+02  0.00000000000E+00 0. -1.
        -12    1    4    4    0    0 -0.28840554610E+02  0.46329395120E+02 -0.12643120340E+02  0.56018201813E+02  0.00000000000E+00 0.  1.
</event>
<event>
12    1  0.8684423E-002  0.2609311E+03  0.7818608E-02  0.1108129E+00
         21   -1    0    0  503  502  0.00000000000E+00  0.00000000000E+00  0.46263062478E+03  0.46263062478E+03  0.00000000000E+00 0. -1.
         21   -1    0    0  501  503 -0.00000000000E+00 -0.00000000000E+00 -0.14855131621E+03  0.14855131621E+03  0.00000000000E+00 0. -1.
          6    2    1    2  501    0 -0.15682046834E+03 -0.93314911251E+02  0.87614904006E+02  0.26568059422E+03  0.17207403868E+03 0.  0.
         24    2    3    3    0    0 -0.10971879386E+02 -0.12171492966E+02  0.43660354199E+02  0.93024410779E+02  0.80490913112E+02 0.  0.
         -6    2    1    2    0  502  0.15682046834E+03  0.93314911251E+02  0.22646440456E+03  0.34550134678E+03  0.18650662761E+03 0.  0.
        -24    2    5    5    0    0  0.12448607196E+03  0.13721152385E+03  0.20308756830E+03  0.28599510962E+03  0.78897768904E+02 0.  0.
          5    1    3    3  501    0 -0.14584858895E+03 -0.81143418285E+02  0.43954549807E+02  0.17265618344E+03  0.47000000000E+01 0. -1.
        -11    1    4    4    0    0 -0.11969957298E+01  0.29844454105E+02 -0.23419916661E+01  0.29960126244E+02  0.00000000000E+00 0.  1.
         12    1    4    4    0    0 -0.97748836567E+01 -0.42015947071E+02  0.46002345865E+02  0.63064284535E+02  0.00000000000E+00 0. -1.
         -5    1    5    5    0  502  0.32334396383E+02 -0.43896612604E+02  0.23376836265E+02  0.59506237163E+02  0.47000000000E+01 0.  1.
         13    1    6    6    0    0  0.12612088447E+03  0.92138754417E+02  0.16073789136E+03  0.22412652071E+03  0.00000000000E+00 0. -1.
        -14    1    6    6    0    0 -0.16348125181E+01  0.45072769438E+02  0.42349676936E+02  0.61868588907E+02  0.00000000000E+00 0.  1.
</event>
<event>
12    1  0.8684423E-002  0.1748426E+03  0.7818608E-02  0.1173013E+00
         21   -1    0    0  501  502  0.00000000000E+00  0.00000000000E+00  0.22572187623E+03  0.22572187623E+03  0.00000000000E+00 0. -1.
         21   -1    0    0  502  503 -0.00000000000E+00 -0.00000000000E+00 -0.16626724161E+03  0.16626724161E+03  0.00000000000E+00 0. -1.
         -6    2    1    2    0  503  0.24569201067E+02 -0.14632408616E+02 -0.55159237984E+02  0.18333705234E+03  0.17248820309E+03 0.  0.
        -24    2    3    3    0    0 -0.39527774506E+02  0.10587935462E+02  0.78007060483E+01  0.89899733324E+02  0.79665310532E+02 0.  0.
          6    2    1    2  501    0 -0.24569201067E+02  0.14632408616E+02  0.11461387260E+03  0.20865206549E+03  0.17199299875E+03 0.  0.
         24    2    5    5    0    0 -0.76927614013E+02 -0.12176998950E+01  0.46566786848E+02  0.12121565874E+03  0.81273794646E+02 0.  0.
          5    1    5    5  501    0  0.52358412946E+02  0.15850108510E+02  0.68047085754E+02  0.87436406752E+02  0.47000000000E+01 0. -1.
        -11    1    6    6    0    0 -0.11136228301E+02  0.32133100987E+02  0.30594112393E+02  0.45744414664E+02  0.00000000000E+00 0.  1.
         12    1    6    6    0    0 -0.65791385712E+02 -0.33350800882E+02  0.15972674455E+02  0.75471244078E+02  0.00000000000E+00 0. -1.
         -5    1    3    3    0  503  0.64096975573E+02 -0.25220344077E+02 -0.62959944033E+02  0.93437319019E+02  0.47000000000E+01 0.  1.
         11    1    4    4    0    0  0.20108606676E+01  0.38999259662E+02  0.62675610129E+01  0.39550829775E+02  0.00000000000E+00 0. -1.
        -12    1    4    4    0    0 -0.41538635174E+02 -0.28411324200E+02  0.15331450355E+01  0.50348903549E+02  0.00000000000E+00 0.  1.
</event>
<event>
12    1  0.8684423E-002  0.2140157E+03  0.7818608E-02  0.1138612E+00
         21   -1    0    0  503  502  0.00000000000E+00  0.00000000000E+00  0.20058814653E+03  0.20058814653E+03  0.00000000000E+00 0.  1.
         21   -1    0    0  501  503 -0.00000000000E+00 -0.00000000000E+00 -0.30646770231E+03  0.30646770231E+03  0.00000000000E+00 0. -1.
          6    2    1    2  501    0 -0.50637235328E+01 -0.12516053068E+03 -0.18187343917E+03  0.28085705791E+03  0.17352792100E+03 0.  0.
         24    2    3    3    0    0 -0.59833632226E+01 -0.15765757256E+03 -0.12890735421E+03  0.21853210605E+03  0.79040904499E+02 0.  0.
         -6    2    1    2    0  502  0.50637235328E+01  0.12516053068E+03  0.75993883393E+02  0.22619879093E+03  0.17233694603E+03 0.  0.
        -24    2    5    5    0    0  0.72251302047E+02  0.42067992344E+02  0.32424708389E+02  0.11070461945E+03  0.64916749973E+02 0.  0.
          5    1    3    3  501    0  0.91963968971E+00  0.32497041880E+02 -0.52966084964E+02  0.62324951861E+02  0.47000000000E+01 0. -1.
        -11    1    4    4    0    0  0.34921907825E+01 -0.17676494790E+02  0.10411137781E+02  0.20809749023E+02  0.00000000000E+00 0.  1.
         12    1    4    4    0    0 -0.94755540050E+01 -0.13998107777E+03 -0.13931849199E+03  0.19772235702E+03  0.00000000000E+00 0. -1.
         -5    1    5    5    0  502 -0.67187578514E+02  0.83092538337E+02  0.43569175004E+02  0.11549417147E+03  0.47000000000E+01 0.  1.
         11    1    6    6    0    0  0.44913143119E+02  0.48666339346E+02 -0.19982785560E+01  0.66254027254E+02  0.00000000000E+00 0. -1.
        -12    1    6    6    0    0  0.27338158928E+02 -0.65983470020E+01  0.34422986945E+02  0.44450592200E+02  0.00000000000E+00 0.  1.
</event>
<event>
12    1  0.8684423E-002  0.1837807E+03  0.7818608E-02  0.1164322E+00
         21   -1    0    0  501  502  0.00000000000E+00  0.00000000000E+00  0.48491822617E+02  0.48491822617E+02  0.00000000000E+00 0. -1.
         21   -1    0    0  502  503 -0.00000000000E+00 -0.00000000000E+00 -0.69624355329E+03  0.69624355329E+03  0.00000000000E+00 0.  1.
         -6    2    1    2    0  503 -0.18055182642E+02  0.61085305764E+02 -0.34225057895E+03  0.38821568340E+03  0.17180964421E+03 0.  0.
        -24    2    3    3    0    0  0.35608576723E+02  0.74578212595E+02 -0.15485527971E+03  0.19276506104E+03  0.79676411650E+02 0.  0.
          6    2    1    2  501    0  0.18055182642E+02 -0.61085305764E+02 -0.30550115172E+03  0.35651969250E+03  0.17238890115E+03 0.  0.
         24    2    5    5    0    0  0.27255262061E+02 -0.69896861393E+02 -0.14357770280E+03  0.19402791337E+03  0.10678882847E+03 0.  0.
          5    1    5    5  501    0 -0.92000794186E+01  0.88115556294E+01 -0.16192344892E+03  0.16249177913E+03  0.47000000000E+01 0. -1.
        -11    1    6    6    0    0  0.16523679035E+01  0.24298912620E+02 -0.55629249331E+01  0.24982265870E+02  0.00000000000E+00 0.  1.
         12    1    6    6    0    0  0.25602894157E+02 -0.94195774013E+02 -0.13801477786E+03  0.16904564750E+03  0.00000000000E+00 0. -1.
         -5    1    3    3    0  503 -0.53663759365E+02 -0.13492906831E+02 -0.18739529923E+03  0.19545062236E+03  0.47000000000E+01 0.  1.
         13    1    4    4    0    0  0.28134554246E+02  0.16377017595E+02 -0.12038822916E+03  0.12471201052E+03  0.00000000000E+00 0. -1.
        -14    1    4    4    0    0  0.74740224768E+01  0.58201195000E+02 -0.34467050554E+02  0.68053050522E+02  0.00000000000E+00 0.  1.
</event>
<event>
12    1  0.8684423E-002  0.2790959E+03  0.7818608E-02  0.1096202E+00
         21   -1    0    0  503  502  0.00000000000E+00  0.00000000000E+00  0.50240126126E+02  0.50240126126E+02  0.00000000000E+00 0. -1.
         21   -1    0    0  501  503 -0.00000000000E+00 -0.00000000000E+00 -0.16378860573E+04  0.16378860573E+04  0.00000000000E+00 0. -1.
          6    2    1    2  501    0  0.16937665779E+03  0.14023507046E+03 -0.98949301076E+03  0.10280644995E+04  0.17165625450E+03 0.  0.
         24    2    3    3    0    0  0.19198159857E+03  0.10478683385E+03 -0.88911497624E+03  0.91913607975E+03  0.80302412109E+02 0.  0.
         -6    2    1    2    0  502 -0.16937665779E+03 -0.14023507046E+03 -0.59815292038E+03  0.66006168384E+03  0.17187257816E+03 0.  0.
        -24    2    5    5    0    0 -0.75347853656E+02 -0.94394160506E+02 -0.48767627168E+03  0.50784478288E+03  0.74098724303E+02 0.  0.
          5    1    3    3  501    0 -0.22604940780E+02  0.35448236609E+02 -0.10037803451E+03  0.10892841980E+03  0.47000000000E+01 0. -1.
        -11    1    4    4    0    0  0.25997393299E+02  0.53082305133E+02 -0.21868183591E+03  0.22652889646E+03  0.00000000000E+00 0.  1.
         12    1    4    4    0    0  0.16598420527E+03  0.51704528721E+02 -0.67043314033E+03  0.69260718329E+03  0.00000000000E+00 0. -1.
         -5    1    5    5    0  502 -0.94028804130E+02 -0.45840909957E+02 -0.11047664870E+03  0.15221690097E+03  0.47000000000E+01 0.  1.
         13    1    6    6    0    0  0.40343390133E+01 -0.40697685934E+02 -0.91203815513E+02  0.99953556694E+02  0.00000000000E+00 0. -1.
        -14    1    6    6    0    0 -0.79382192670E+02 -0.53696474572E+02 -0.39647245617E+03  0.40789122618E+03  0.00000000000E+00 0.  1.
</event>
<event>
12    1  0.8684423E-002  0.2913150E+03  0.7818608E-02  0.1090264E+00
         21   -1    0    0  501  502  0.00000000000E+00  0.00000000000E+00  0.13953578326E+04  0.13953578326E+04  0.00000000000E+00 0.  1.
         21   -1    0    0  502  503 -0.00000000000E+00 -0.00000000000E+00 -0.88286563902E+02  0.88286563902E+02  0.00000000000E+00 0.  1.
         -6    2    1    2    0  503  0.10312140604E+03 -0.21170964928E+03  0.10779299969E+04  0.11166008729E+04  0.17149178140E+03 0.  0.
        -24    2    3    3    0    0 -0.83390283337E+01 -0.94396569041E+02  0.59243136723E+03  0.60482279924E+03  0.76520859718E+02 0.  0.
          6    2    1    2  501    0 -0.10312140604E+03  0.21170964928E+03  0.22914127177E+03  0.36704352360E+03  0.16358553057E+03 0.  0.
         24    2    5    5    0    0 -0.92879821841E+00  0.13716433969E+03  0.14253679879E+03  0.21367221920E+03  0.80772269373E+02 0.  0.
          5    1    5    5  501    0 -0.10219260782E+03  0.74545309589E+02  0.86604472979E+02  0.15337130441E+03  0.47000000000E+01 0. -1.
        -11    1    6    6    0    0  0.11615325233E+02  0.36188602544E+02 -0.65139831620E+00  0.38012564424E+02  0.00000000000E+00 0.  1.
         12    1    6    6    0    0 -0.12544123451E+02  0.10097573715E+03  0.14318819710E+03  0.17565965477E+03  0.00000000000E+00 0. -1.
         -5    1    3    3    0  503  0.11146043437E+03 -0.11731308024E+03  0.48549862969E+03  0.51177807364E+03  0.47000000000E+01 0.  1.
         13    1    4    4    0    0  0.29124269635E+02 -0.18564929474E+02  0.23474271638E+03  0.23726993611E+03  0.00000000000E+00 0. -1.
        -14    1    4    4    0    0 -0.37463297968E+02 -0.75831639567E+02  0.35768865084E+03  0.36755286313E+03  0.00000000000E+00 0.  1.
</event>
<event>
12    1  0.8684423E-002  0.2156330E+03  0.7818608E-02  0.1137583E+00
         21   -1    0    0  501  502  0.00000000000E+00  0.00000000000E+00  0.41066339029E+02  0.41066339029E+02  0.00000000000E+00 0.  1.
         21   -1    0    0  502  503 -0.00000000000E+00 -0.00000000000E+00 -0.11451833006E+04  0.11451833006E+04  0.00000000000E+00 0.  1.
         -6    2    1    2    0  503 -0.24030951760E+02 -0.12326952576E+03 -0.64033455828E+03  0.67566702320E+03  0.17528467443E+03 0.  0.
        -24    2    3    3    0    0  0.46693415058E+02 -0.79770584395E+02 -0.47849702436E+03  0.49371216246E+03  0.79048566684E+02 0.  0.
          6    2    1    2  501    0  0.24030951760E+02  0.12326952576E+03 -0.46378240330E+03  0.51058261644E+03  0.17270676875E+03 0.  0.
         24    2    5    5    0    0 -0.92142478479E+01  0.12375262005E+03 -0.45080579149E+03  0.47458318407E+03  0.81263298147E+02 0.  0.
          5    1    5    5  501    0  0.33245199607E+02 -0.48309429268E+00 -0.12976611815E+02  0.35999432374E+02  0.47000000000E+01 0. -1.
        -11    1    6    6    0    0  0.18588837934E+02  0.28757068891E+02 -0.23093888397E+03  0.23346366320E+03  0.00000000000E+00 0.  1.
         12    1    6    6    0    0 -0.27803085782E+02  0.94995551163E+02 -0.21986690752E+03  0.24111952087E+03  0.00000000000E+00 0. -1.
         -5    1    3    3    0  503 -0.70724366818E+02 -0.43498941367E+02 -0.16183753392E+03  0.18195486074E+03  0.47000000000E+01 0.  1.
         11    1    4    4    0    0  0.45620756147E+02 -0.67957521083E+02 -0.47401836399E+03  0.48103314591E+03  0.00000000000E+00 0. -1.
        -12    1    4    4    0    0  0.10726589112E+01 -0.11813063312E+02 -0.44786603678E+01  0.12679016549E+02  0.00000000000E+00 0.  1.
</event>
<event>
12    1  0.8684423E-002  0.2048775E+03  0.7818608E-02  0.1146963E+00
         21   -1    0    0  501  502  0.00000000000E+00  0.00000000000E+00  0.53349255304E+03  0.53349255304E+03  0.00000000000E+00 0.  1.
         21   -1    0    0  502  503 -0.00000000000E+00 -0.00000000000E+00 -0.84394159217E+02  0.84394159217E+02  0.00000000000E+00 0.  1.
         -6    2    1    2    0  503 -0.94649164666E+02  0.34105145586E+02  0.13221056793E+03  0.24383278319E+03  0.17847455437E+03 0.  0.
        -24    2    3    3    0    0  0.79481733691E+01 -0.24972494912E+02  0.39166530602E+02  0.93181980800E+02  0.80386973225E+02 0.  0.
          6    2    1    2  501    0  0.94649164666E+02 -0.34105145586E+02  0.31688782589E+03  0.37405392907E+03  0.17139668119E+03 0.  0.
         24    2    5    5    0    0  0.97392105647E+02 -0.58435456037E+02  0.14784105029E+03  0.20317856492E+03  0.80775171471E+02 0.  0.
          5    1    5    5  501    0 -0.27429409815E+01  0.24330310450E+02  0.16904677560E+03  0.17087536415E+03  0.47000000000E+01 0. -1.
        -11    1    6    6    0    0  0.10540718344E+03 -0.30452354394E+02  0.12383380140E+03  0.16544736498E+03  0.00000000000E+00 0.  1.
         12    1    6    6    0    0 -0.80150777926E+01 -0.27983101643E+02  0.24007248889E+02  0.37731199938E+02  0.00000000000E+00 0. -1.
         -5    1    3    3    0  503 -0.10259733803E+03  0.59077640499E+02  0.93044037330E+02  0.15065080239E+03  0.47000000000E+01 0.  1.
         11    1    4    4    0    0  0.50035863215E+01 -0.21484749651E+02  0.64123048368E+02  0.67811471564E+02  0.00000000000E+00 0. -1.
        -12    1    4    4    0    0  0.29445870476E+01 -0.34877452616E+01 -0.24956517766E+02  0.25370509236E+02  0.00000000000E+00 0.  1.
</event>
<event>
12    1  0.8684423E-002  0.1985556E+03  0.7818608E-02  0.1151414E+00
         21   -1    0    0  501  502  0.00000000000E+00  0.00000000000E+00  0.35618845357E+03  0.35618845357E+03  0.00000000000E+00 0.  1.
         21   -1    0    0  502  503 -0.00000000000E+00 -0.00000000000E+00 -0.11167517509E+03  0.11167517509E+03  0.00000000000E+00 0. -1.
         -6    2    1    2    0  503  0.58350664636E+02  0.80977284595E+02  0.90357326107E+02  0.21814855126E+03  0.17164563307E+03 0.  0.
        -24    2    3    3    0    0  0.92491252981E+02  0.23375348762E+02  0.29673503840E+02  0.12765999359E+03  0.79470235466E+02 0.  0.
          6    2    1    2  501    0 -0.58350664636E+02 -0.80977284595E+02  0.15415595237E+03  0.24971507740E+03  0.16920827860E+03 0.  0.
         24    2    5    5    0    0  0.23024359486E+02 -0.80420201680E+02  0.88411492206E+02  0.14499340374E+03  0.78796987291E+02 0.  0.
          5    1    5    5  501    0 -0.81375024123E+02 -0.55708291591E+00  0.65744460165E+02  0.10472167366E+03  0.47000000000E+01 0. -1.
        -13    1    6    6    0    0  0.34950587083E+01 -0.85254743944E+02  0.90956388835E+02  0.12471427934E+03  0.00000000000E+00 0.  1.
         14    1    6    6    0    0  0.19529300778E+02  0.48345422640E+01 -0.25448966287E+01  0.20279124405E+02  0.00000000000E+00 0. -1.
         -5    1    3    3    0  503 -0.34140588345E+02  0.57601935834E+02  0.60683822267E+02  0.90488557670E+02  0.47000000000E+01 0.  1.
         11    1    4    4    0    0  0.41409772414E+02  0.47592210456E+02 -0.14999046381E+01  0.63103387083E+02  0.00000000000E+00 0. -1.
        -12    1    4    4    0    0  0.51081480568E+02 -0.24216861694E+02  0.31173408478E+02  0.64556606505E+02  0.00000000000E+00 0.  1.
</event>
<event>
12    1  0.8684423E-002  0.1901854E+03  0.7818608E-02  0.1158313E+00
         21   -1    0    0  501  502  0.00000000000E+00  0.00000000000E+00  0.60738849266E+02  0.60738849266E+02  0.00000000000E+00 0.  1.
         21   -1    0    0  502  503 -0.00000000000E+00 -0.00000000000E+00 -0.61742548187E+03  0.61742548187E+03  0.00000000000E+00 0.  1.
         -6    2    1    2    0  503  0.76291402372E+02 -0.23954771776E+02 -0.34266158192E+03  0.39190233703E+03  0.17255802757E+03 0.  0.
        -24    2    3    3    0    0  0.70804658598E+02 -0.34093826435E+02 -0.35628467853E+03  0.37344743123E+03  0.79677619517E+02 0.  0.
          6    2    1    2  501    0 -0.76291402372E+02  0.23954771776E+02 -0.21402505069E+03  0.28626199411E+03  0.17246738180E+03 0.  0.
         24    2    5    5    0    0 -0.15612347360E+02 -0.38499001447E+02 -0.57589526773E+02  0.10716262323E+03  0.80258057050E+02 0.  0.
          5    1    5    5  501    0 -0.60679055011E+02  0.62453773223E+02 -0.15643552392E+03  0.17909937088E+03  0.47000000000E+01 0. -1.
        -11    1    6    6    0    0  0.19426825072E+02 -0.41179515710E+02 -0.55739320775E+02  0.71972396979E+02  0.00000000000E+00 0.  1.
         12    1    6    6    0    0 -0.35039172432E+02  0.26805142632E+01 -0.18502059979E+01  0.35190226252E+02  0.00000000000E+00 0. -1.
         -5    1    3    3    0  503  0.54867437737E+01  0.10139054660E+02  0.13623096616E+02  0.18454905799E+02  0.47000000000E+01 0.  1.
         11    1    4    4    0    0  0.40041010058E+02 -0.49796795811E+02 -0.30496387881E+03  0.31158621718E+03  0.00000000000E+00 0. -1.
        -12    1    4    4    0    0  0.30763648539E+02  0.15702969376E+02 -0.51320799721E+02  0.61861214042E+02  0.00000000000E+00 0.  1.
</event>
<event>
12    1  0.8684423E-002  0.2032375E+03  0.7818608E-02  0.1147042E+00
         21   -1    0    0  501  502  0.00000000000E+00  0.00000000000E+00  0.70129975587E+03  0.70129975587E+03  0.00000000000E+00 0. -1.
         21   -1    0    0  502  503 -0.00000000000E+00 -0.00000000000E+00 -0.66647769151E+02  0.66647769151E+02  0.00000000000E+00 0.  1.
         -6    2    1    2    0  503  0.75989611501E+02  0.76092067692E+02  0.18630456210E+03  0.27568650501E+03  0.17242167893E+03 0.  0.
        -24    2    3    3    0    0  0.34183817672E+02  0.72936507849E+02  0.20046935132E+03  0.23118467124E+03  0.82280762209E+02 0.  0.
          6    2    1    2  501    0 -0.75989611501E+02 -0.76092067692E+02  0.44834742462E+03  0.49226102000E+03  0.17245600840E+03 0.  0.
         24    2    5    5    0    0 -0.64605638533E+02 -0.75338373583E+02  0.16474192286E+03  0.20838722142E+03  0.80222028394E+02 0.  0.
          5    1    5    5  501    0 -0.11383972969E+02 -0.75369410899E+00  0.28360550175E+03  0.28387379858E+03  0.47000000000E+01 0. -1.
        -11    1    6    6    0    0 -0.76812884606E+01 -0.52422824746E+02  0.12368453070E+03  0.13455488798E+03  0.00000000000E+00 0.  1.
         12    1    6    6    0    0 -0.56924350072E+02 -0.22915548837E+02  0.41057392167E+02  0.73832333440E+02  0.00000000000E+00 0. -1.
         -5    1    3    3    0  503  0.41805793829E+02  0.31555598427E+01 -0.14164789221E+02  0.44501833774E+02  0.47000000000E+01 0.  1.
         13    1    4    4    0    0 -0.14582033257E+02 -0.10155735243E+02  0.43720550306E+02  0.47193867941E+02  0.00000000000E+00 0. -1.
        -14    1    4    4    0    0  0.48765850929E+02  0.83092243093E+02  0.15674880101E+03  0.18399080330E+03  0.00000000000E+00 0.  1.
</event>
<event>
12    1  0.8684423E-002  0.1920453E+03  0.7818608E-02  0.1156823E+00
         21   -1    0    0  503  502  0.00000000000E+00  0.00000000000E+00  0.75384185562E+02  0.75384185562E+02  0.00000000000E+00 0.  1.
         21   -1    0    0  501  503 -0.00000000000E+00 -0.00000000000E+00 -0.48922912204E+03  0.48922912204E+03  0.00000000000E+00 0.  1.
          6    2    1    2  501    0 -0.77107899572E+02  0.33371045317E+02 -0.18848691381E+03  0.26908866295E+03  0.17269087125E+03 0.  0.
         24    2    3    3    0    0 -0.11902086593E+03  0.24232215787E+02 -0.16033941271E+03  0.21756598084E+03  0.82903931994E+02 0.  0.
         -6    2    1    2    0  502  0.77107899572E+02 -0.33371045317E+02 -0.22535802267E+03  0.29552464465E+03  0.17172455378E+03 0.  0.
        -24    2    5    5    0    0  0.92581352339E+02 -0.77172055253E+02 -0.17357373474E+03  0.22579904900E+03  0.79564666940E+02 0.  0.
          5    1    3    3  501    0  0.41912966361E+02  0.91388295300E+01 -0.28147501096E+02  0.51522682115E+02  0.47000000000E+01 0. -1.
        -13    1    4    4    0    0 -0.60514884532E+02  0.24710482873E+02 -0.14188299901E+03  0.15621601910E+03  0.00000000000E+00 0.  1.
         14    1    4    4    0    0 -0.58505981401E+02 -0.47826708610E+00 -0.18456413701E+02  0.61349961743E+02  0.00000000000E+00 0. -1.
         -5    1    5    5    0  502 -0.15473452767E+02  0.43801009936E+02 -0.51784287937E+02  0.69725595652E+02  0.47000000000E+01 0.  1.
         13    1    6    6    0    0 -0.22815487818E+01 -0.55657472108E+01  0.72442808758E+01  0.94160826391E+01  0.00000000000E+00 0. -1.
        -14    1    6    6    0    0  0.94862901121E+02 -0.71606308042E+02 -0.18081801561E+03  0.21638296636E+03  0.00000000000E+00 0.  1.
</event>
<event>
12    1  0.8684423E-002  0.1791563E+03  0.7818608E-02  0.1170465E+00
         21   -1    0    0  503  502  0.00000000000E+00  0.00000000000E+00  0.25715007707E+03  0.25715007707E+03  0.00000000000E+00 0. -1.
         21   -1    0    0  501  503 -0.00000000000E+00 -0.00000000000E+00 -0.14493222501E+03  0.14493222501E+03  0.00000000000E+00 0. -1.
          6    2    1    2  501    0 -0.44141531554E+02  0.14179355590E+02 -0.28713486282E+02  0.17413798527E+03  0.16537848919E+03 0.  0.
         24    2    3    3    0    0  0.12168738312E+02  0.49927520909E+02 -0.45547224012E+02  0.10518696975E+03  0.79680069359E+02 0.  0.
         -6    2    1    2    0  502  0.44141531554E+02 -0.14179355590E+02  0.14093133834E+03  0.22794431681E+03  0.17305328806E+03 0.  0.
        -24    2    5    5    0    0  0.13381311252E+02  0.30483284656E+02  0.14974734228E+03  0.17280127997E+03  0.79547003113E+02 0.  0.
          5    1    3    3  501    0 -0.56310269866E+02 -0.35748165319E+02  0.16833737730E+02  0.68951015526E+02  0.47000000000E+01 0. -1.
        -13    1    4    4    0    0  0.21956574122E+02  0.13247981041E+02 -0.59460610483E+02  0.64754647307E+02  0.00000000000E+00 0.  1.
         14    1    4    4    0    0 -0.97878358099E+01  0.36679539868E+02  0.13913386471E+02  0.40432322439E+02  0.00000000000E+00 0. -1.
         -5    1    5    5    0  502  0.30760220301E+02 -0.44662640247E+02 -0.88160039389E+01  0.55143036843E+02  0.47000000000E+01 0.  1.
         13    1    6    6    0    0  0.33979724669E+02 -0.34187177047E+01  0.26205881024E+02  0.43047154605E+02  0.00000000000E+00 0. -1.
        -14    1    6    6    0    0 -0.20598413416E+02  0.33902002361E+02  0.12354146126E+03  0.12975412536E+03  0.00000000000E+00 0.  1.
</event>
<event>
12    1  0.8684423E-002  0.1749214E+03  0.7818608E-02  0.1173281E+00
         21   -1    0    0  501  502  0.00000000000E+00  0.00000000000E+00  0.19025712869E+02  0.19025712869E+02  0.00000000000E+00 0. -1.
         21   -1    0    0  502  503 -0.00000000000E+00 -0.00000000000E+00 -0.15988105001E+04  0.15988105001E+04  0.00000000000E+00 0.  1.
         -6    2    1    2    0  503  0.17509621085E+02  0.24888181908E+02 -0.85007750185E+03  0.86788781955E+03  0.17225417194E+03 0.  0.
        -24    2    3    3    0    0  0.67858972970E+02 -0.23745211581E+01 -0.68327484670E+03  0.69146920382E+03  0.81576130889E+02 0.  0.
          6    2    1    2  501    0 -0.17509621085E+02 -0.24888181908E+02 -0.72970728540E+03  0.74994839343E+03  0.17036391055E+03 0.  0.
         24    2    5    5    0    0  0.25339503149E+02 -0.37600540832E+01 -0.66084468354E+03  0.66600440516E+03  0.78676193964E+02 0.  0.
          5    1    5    5  501    0 -0.42849124234E+02 -0.21128127825E+02 -0.68862601859E+02  0.83943988277E+02  0.47000000000E+01 0. -1.
        -13    1    6    6    0    0  0.44583526670E+02  0.18615415633E+02 -0.51114930847E+03  0.51342754124E+03  0.00000000000E+00 0.  1.
         14    1    6    6    0    0 -0.19244023521E+02 -0.22375469716E+02 -0.14969537507E+03  0.15257686392E+03  0.00000000000E+00 0. -1.
         -5    1    3    3    0  503 -0.50349351885E+02  0.27262703066E+02 -0.16680265515E+03  0.17641861573E+03  0.47000000000E+01 0.  1.
         11    1    4    4    0    0  0.51853909773E+02  0.18900574267E+02 -0.20040213986E+03  0.20786312162E+03  0.00000000000E+00 0. -1.
        -12    1    4    4    0    0  0.16005063197E+02 -0.21275095425E+02 -0.48287270684E+03  0.48360608220E+03  0.00000000000E+00 0.  1.
</event>
<event>
12    1  0.8684423E-002  0.4545423E+03  0.7818608E-02  0.1026398E+00
         21   -1    0    0  501  502  0.00000000000E+00  0.00000000000E+00  0.63016351340E+03  0.63016351340E+03  0.00000000000E+00 0. -1.
         21   -1    0    0  502  503 -0.00000000000E+00 -0.00000000000E+00 -0.51680649798E+03  0.51680649798E+03  0.00000000000E+00 0.  1.
         -6    2    1    2    0  503  0.87570761148E+02 -0.41126770682E+03  0.40361777373E+03  0.60765562086E+03  0.17183795104E+03 0.  0.
        -24    2    3    3    0    0  0.50799503665E+02 -0.32022114262E+03  0.37863499291E+03  0.50622667250E+03  0.88197598259E+02 0.  0.
          6    2    1    2  501    0 -0.87570761148E+02  0.41126770682E+03 -0.29026075831E+03  0.53931439051E+03  0.17262369223E+03 0.  0.
         24    2    5    5    0    0 -0.62512434850E+02  0.38101097251E+03 -0.20298483950E+03  0.44348868575E+03  0.80013771579E+02 0.  0.
          5    1    5    5  501    0 -0.25058326298E+02  0.30256734308E+02 -0.87275918810E+02  0.95825704756E+02  0.47000000000E+01 0. -1.
        -13    1    6    6    0    0 -0.20730319511E+02  0.31150290494E+03 -0.17371887794E+03  0.35727028212E+03  0.00000000000E+00 0.  1.
         14    1    6    6    0    0 -0.41782115339E+02  0.69508067572E+02 -0.29265961562E+02  0.86218403638E+02  0.00000000000E+00 0. -1.
         -5    1    3    3    0  503  0.36771257483E+02 -0.91046564197E+02  0.24982780816E+02  0.10142894836E+03  0.47000000000E+01 0.  1.
         11    1    4    4    0    0  0.59828882302E+01 -0.22110872516E+03  0.20647999276E+03  0.30258693082E+03  0.00000000000E+00 0. -1.
        -12    1    4    4    0    0  0.44816615435E+02 -0.99112417465E+02  0.17215500015E+03  0.20363974168E+03  0.00000000000E+00 0.  1.
</event>
<event>
12    1  0.8684423E-002  0.1886697E+03  0.7818608E-02  0.1161449E+00
         21   -1    0    0  503  502  0.00000000000E+00  0.00000000000E+00  0.17905207503E+03  0.17905207503E+03  0.00000000000E+00 0. -1.
         21   -1    0    0  501  503 -0.00000000000E+00 -0.00000000000E+00 -0.59656277126E+03  0.59656277126E+03  0.00000000000E+00 0. -1.
          6    2    1    2  501    0  0.47774749227E+02  0.60987717390E+02 -0.52717773682E+03  0.55738767012E+03  0.16359315469E+03 0.  0.
         24    2    3    3    0    0  0.21697982539E+02  0.89695613027E+02 -0.26335090356E+03  0.29068403501E+03  0.81408871499E+02 0.  0.
         -6    2    1    2    0  502 -0.47774749227E+02 -0.60987717390E+02  0.10966704060E+03  0.21822717617E+03  0.17202997497E+03 0.  0.
        -24    2    5    5    0    0 -0.90911517427E+02 -0.44984509333E+02  0.11681025163E+03  0.17142975207E+03  0.73858072872E+02 0.  0.
          5    1    3    3  501    0  0.26076766688E+02 -0.28707895637E+02 -0.26382683326E+03  0.26670363511E+03  0.47000000000E+01 0. -1.
        -13    1    4    4    0    0  0.45571266331E+02  0.23438967164E+02 -0.89890174883E+02  0.10347158565E+03  0.00000000000E+00 0.  1.
         14    1    4    4    0    0 -0.23873283792E+02  0.66256645864E+02 -0.17346072868E+03  0.18721244936E+03  0.00000000000E+00 0. -1.
         -5    1    5    5    0  502  0.43136768201E+02 -0.16003208057E+02 -0.71432110255E+01  0.46797424103E+02  0.47000000000E+01 0.  1.
         13    1    6    6    0    0 -0.95517367755E+02 -0.33327210959E+02  0.70128606982E+02  0.12309464672E+03  0.00000000000E+00 0. -1.
        -14    1    6    6    0    0  0.46058503278E+01 -0.11657298373E+02  0.46681644645E+02  0.48335105352E+02  0.00000000000E+00 0.  1.
</event>
<event>
12    1  0.8684423E-002  0.2116017E+03  0.7818608E-02  0.1140463E+00
         21   -1    0    0  503  502  0.00000000000E+00  0.00000000000E+00  0.18511531319E+03  0.18511531319E+03  0.00000000000E+00 0. -1.
         21   -1    0    0  501  503 -0.00000000000E+00 -0.00000000000E+00 -0.96074199538E+03  0.96074199538E+03  0.00000000000E+00 0. -1.
          6    2    1    2  501    0  0.98918188890E+02  0.69461431307E+02 -0.88353324497E+03  0.90833021130E+03  0.17269359937E+03 0.  0.
         24    2    3    3    0    0  0.67429306850E+02  0.68667079458E+02 -0.86070996051E+03  0.86914892749E+03  0.73050276031E+02 0.  0.
         -6    2    1    2    0  502 -0.98918188890E+02 -0.69461431307E+02  0.10790656278E+03  0.23752709727E+03  0.17368246058E+03 0.  0.
        -24    2    5    5    0    0 -0.32377071827E+01 -0.42116839519E+02  0.10253576830E+03  0.13776028559E+03  0.81731276669E+02 0.  0.
          5    1    3    3  501    0  0.31488882039E+02  0.79435184913E+00 -0.22823284463E+02  0.39181283805E+02  0.47000000000E+01 0. -1.
        -11    1    4    4    0    0  0.16954549985E+02 -0.77545826257E+01 -0.51465444962E+02  0.54738307811E+02  0.00000000000E+00 0.  1.
         12    1    4    4    0    0  0.50474756866E+02  0.76421662084E+02 -0.80924451554E+03  0.81441061968E+03  0.00000000000E+00 0. -1.
         -5    1    5    5    0  502 -0.95680481707E+02 -0.27344591788E+02  0.53707944804E+01  0.99766811682E+02  0.47000000000E+01 0.  1.
         13    1    6    6    0    0 -0.37710746071E+02 -0.34153118819E+02  0.35751490064E+02  0.62182834739E+02  0.00000000000E+00 0. -1.
        -14    1    6    6    0    0  0.34473038889E+02 -0.79637206994E+01  0.66784278235E+02  0.75577450850E+02  0.00000000000E+00 0.  1.
</event>
<event>
12    1  0.8684423E-002  0.2168034E+03  0.7818608E-02  0.1136653E+00
         21   -1    0    0  501  502  0.00000000000E+00  0.00000000000E+00  0.75619047058E+02  0.75619047058E+02  0.00000000000E+00 0. -1.
         21   -1    0    0  502  503 -0.00000000000E+00 -0.00000000000E+00 -0.61622647370E+03  0.61622647370E+03  0.00000000000E+00 0.  1.
         -6    2    1    2    0  503 -0.19342146085E+02  0.12851893973E+03 -0.26487522006E+03  0.34108641618E+03  0.17114270248E+03 0.  0.
        -24    2    3    3    0    0 -0.42138913962E+02  0.15370340562E+03 -0.21099888085E+03  0.27722171642E+03  0.83252191377E+02 0.  0.
          6    2    1    2  501    0  0.19342146085E+02 -0.12851893973E+03 -0.27573220658E+03  0.35075910458E+03  0.17352943040E+03 0.  0.
         24    2    5    5    0    0  0.46659099894E+02 -0.86244018131E+02 -0.27197126607E+03  0.30006768878E+03  0.80356368867E+02 0.  0.
          5    1    5    5  501    0 -0.27316953808E+02 -0.42274921602E+02 -0.37609405083E+01  0.50691415795E+02  0.47000000000E+01 0. -1.
        -11    1    6    6    0    0 -0.12387583192E+02 -0.18935014541E+02 -0.13188065065E+03  0.13380767171E+03  0.00000000000E+00 0.  1.
         12    1    6    6    0    0  0.59046683086E+02 -0.67309003590E+02 -0.14009061542E+03  0.16626001707E+03  0.00000000000E+00 0. -1.
         -5    1    3    3    0  503  0.22796767877E+02 -0.25184465886E+02 -0.53876339215E+02  0.63864699755E+02  0.47000000000E+01 0.  1.
         13    1    4    4    0    0  0.23646403821E+01 -0.20593791972E+01  0.57948707866E+01  0.65888613772E+01  0.00000000000E+00 0. -1.
        -14    1    4    4    0    0 -0.44503554344E+02  0.15576278482E+03 -0.21679375163E+03  0.27063285504E+03  0.00000000000E+00 0.  1.
</event>
<event>
12    1  0.8684423E-002  0.2818484E+03  0.7818608E-02  0.1094956E+00
         21   -1    0    0  503  502  0.00000000000E+00  0.00000000000E+00  0.60745630689E+03  0.60745630689E+03  0.00000000000E+00 0.  1.
         21   -1    0    0  501  503 -0.00000000000E+00 -0.00000000000E+00 -0.13334437033E+03  0.13334437033E+03  0.00000000000E+00 0.  1.
          6    2    1    2  501    0 -0.19820897665E+03  0.95825188225E+02  0.29788277188E+03  0.41008861621E+03  0.17598085761E+03 0.  0.
         24    2    3    3    0    0 -0.20693354608E+03  0.67342079289E+02  0.30063246330E+03  0.37980567697E+03  0.80721906151E+02 0.  0.
         -6    2    1    2    0  502  0.19820897665E+03 -0.95825188225E+02  0.17622916468E+03  0.33071206100E+03  0.17275556050E+03 0.  0.
        -24    2    5    5    0    0  0.79620647164E+02 -0.67702138846E+02  0.21081757835E+02  0.13336235705E+03  0.80112737475E+02 0.  0.
          5    1    3    3  501    0  0.87245694301E+01  0.28483108937E+02 -0.27496914202E+01  0.30282939246E+02  0.47000000000E+01 0. -1.
        -13    1    4    4    0    0 -0.11953966124E+03  0.66751817412E+02  0.13363274928E+03  0.19131975177E+03  0.00000000000E+00 0.  1.
         14    1    4    4    0    0 -0.87393884849E+02  0.59026187668E+00  0.16699971401E+03  0.18848592520E+03  0.00000000000E+00 0. -1.
         -5    1    5    5    0  502  0.11858832949E+03 -0.28123049380E+02  0.15514740685E+03  0.19734970395E+03  0.47000000000E+01 0.  1.
         13    1    6    6    0    0  0.53166116891E+02  0.29810748590E+01 -0.50647954108E+01  0.53489951815E+02  0.00000000000E+00 0. -1.
        -14    1    6    6    0    0  0.26454530273E+02 -0.70683213705E+02  0.26146553246E+02  0.79872405236E+02  0.00000000000E+00 0.  1.
</event>
<event>
12    1  0.8684423E-002  0.2662007E+03  0.7818608E-02  0.1103869E+00
         21   -1    0    0  501  502  0.00000000000E+00  0.00000000000E+00  0.97383294433E+02  0.97383294433E+02  0.00000000000E+00 0.  1.
         21   -1    0    0  502  503 -0.00000000000E+00 -0.00000000000E+00 -0.11805714437E+04  0.11805714437E+04  0.00000000000E+00 0. -1.
         -6    2    1    2    0  503  0.12817612118E+03 -0.15750667418E+03 -0.94224202143E+03  0.97912350192E+03  0.17212011684E+03 0.  0.
        -24    2    3    3    0    0 -0.31164018321E+01 -0.58311181329E+02 -0.42310736452E+03  0.43451322438E+03  0.79824773237E+02 0.  0.
          6    2    1    2  501    0 -0.12817612118E+03  0.15750667418E+03 -0.14094612789E+03  0.29883123626E+03  0.16791910655E+03 0.  0.
         24    2    5    5    0    0 -0.13083869808E+03  0.18158900850E+03 -0.12395561070E+03  0.26886766143E+03  0.82652846385E+02 0.  0.
          5    1    5    5  501    0  0.26625768967E+01 -0.24082334321E+02 -0.16990517189E+02  0.29963574827E+02  0.47000000000E+01 0. -1.
        -11    1    6    6    0    0 -0.19815021023E+02  0.51935891833E+02  0.37134828025E+01  0.55711416003E+02  0.00000000000E+00 0.  1.
         12    1    6    6    0    0 -0.11102367706E+03  0.12965311667E+03 -0.12766909350E+03  0.21315624543E+03  0.00000000000E+00 0. -1.
         -5    1    3    3    0  503  0.13129252301E+03 -0.99195492853E+02 -0.51913465691E+03  0.54461027754E+03  0.47000000000E+01 0.  1.
         13    1    4    4    0    0  0.37941143738E+02 -0.20715786412E+02 -0.18720361870E+03  0.19212982342E+03  0.00000000000E+00 0. -1.
        -14    1    4    4    0    0 -0.41057545570E+02 -0.37595394917E+02 -0.23590374582E+03  0.24238340096E+03  0.00000000000E+00 0.  1.
</event>
<event>
12    1  0.8684423E-002  0.1939690E+03  0.7818608E-02  0.1155406E+00
         21   -1    0    0  501  502  0.00000000000E+00  0.00000000000E+00  0.36074959272E+03  0.36074959272E+03  0.00000000000E+00 0.  1.
         21   -1    0    0  502  503 -0.00000000000E+00 -0.00000000000E+00 -0.10779614865E+03  0.10779614865E+03  0.00000000000E+00 0. -1.
         -6    2    1    2    0  503  0.12932669287E+01 -0.84749241532E+02  0.17585290953E+03  0.26181715269E+03  0.17447025298E+03 0.  0.
        -24    2    3    3    0    0 -0.67407747730E+01 -0.54103854057E+02  0.16962070106E+02  0.99730526309E+02  0.81766747442E+02 0.  0.
          6    2    1    2  501    0 -0.12932669287E+01  0.84749241532E+02  0.77100534539E+02  0.20672858867E+03  0.17207007429E+03 0.  0.
         24    2    5    5    0    0  0.21542017504E+02  0.10713189261E+03  0.13960110916E+02  0.13579737989E+03  0.79402410257E+02 0.  0.
          5    1    5    5  501    0 -0.22835284433E+02 -0.22382651077E+02  0.63140423624E+02  0.70931208785E+02  0.47000000000E+01 0. -1.
        -11    1    6    6    0    0 -0.21315117926E+02  0.32711244592E+02  0.28969556722E+02  0.48616817992E+02  0.00000000000E+00 0.  1.
         12    1    6    6    0    0  0.42857135430E+02  0.74420648017E+02 -0.15009445806E+02  0.87180561893E+02  0.00000000000E+00 0. -1.
         -5    1    3    3    0  503  0.80340417018E+01 -0.30645387475E+02  0.15889083943E+03  0.16208662639E+03  0.47000000000E+01 0.  1.
         13    1    4    4    0    0 -0.21703807711E+02 -0.68417786752E+01 -0.25699724511E+02  0.34326972552E+02  0.00000000000E+00 0. -1.
        -14    1    4    4    0    0  0.14963032938E+02 -0.47262075382E+02  0.42661794617E+02  0.65403553757E+02  0.00000000000E+00 0.  1.
</event>
<event>
12    1  0.8684423E-002  0.2514737E+03  0.7818608E-02  0.1112497E+00
         21   -1    0    0  501  502  0.00000000000E+00  0.00000000000E+00  0.15414893715E+03  0.15414893715E+03  0.00000000000E+00 0.  1.
         21   -1    0    0  502  503 -0.00000000000E+00 -0.00000000000E+00 -0.57093324355E+03  0.57093324355E+03  0.00000000000E+00 0.  1.
         -6    2    1    2    0  503 -0.43641840507E+01  0.18466612711E+03 -0.40124073460E+03  0.47312858621E+03  0.16951668762E+03 0.  0.
        -24    2    3    3    0    0 -0.98349969755E+01  0.18341480645E+03 -0.24465707735E+03  0.31637391382E+03  0.80607998721E+02 0.  0.
          6    2    1    2  501    0  0.43641840507E+01 -0.18466612711E+03 -0.15543571797E+02  0.25195359448E+03  0.17064110450E+03 0.  0.
         24    2    5    5    0    0 -0.59072043744E+02 -0.13830492488E+03 -0.28258038906E+02  0.17222114348E+03  0.79018016306E+02 0.  0.
          5    1    5    5  501    0  0.63436227795E+02 -0.46361202230E+02  0.12714467109E+02  0.79732451003E+02  0.47000000000E+01 0. -1.
        -13    1    6    6    0    0 -0.28431801351E+02 -0.10872536763E+03 -0.51593467932E+02  0.12365863831E+03  0.00000000000E+00 0.  1.
         14    1    6    6    0    0 -0.30640242393E+02 -0.29579557249E+02  0.23335429027E+02  0.48562505174E+02  0.00000000000E+00 0. -1.
         -5    1    3    3    0  503  0.54708129249E+01  0.12513206565E+01 -0.15658365725E+03  0.15675467239E+03  0.47000000000E+01 0.  1.
         11    1    4    4    0    0 -0.44692998523E+02  0.11622058952E+03 -0.14270613696E+03  0.18939305972E+03  0.00000000000E+00 0. -1.
        -12    1    4    4    0    0  0.34858001548E+02  0.67194216935E+02 -0.10195094039E+03  0.12698085410E+03  0.00000000000E+00 0.  1.
</event>
<event>
12    1  0.8684423E-002  0.1997926E+03  0.7818608E-02  0.1150010E+00
         21   -1    0    0  503  502  0.00000000000E+00  0.00000000000E+00  0.13504336160E+03  0.13504336160E+03  0.00000000000E+00 0. -1.
         21   -1    0    0  501  503 -0.00000000000E+00 -0.00000000000E+00 -0.31092705120E+03  0.31092705120E+03  0.00000000000E+00 0. -1.
          6    2    1    2  501    0  0.62495089731E+02  0.77158599338E+02 -0.13844684005E+03  0.24270064919E+03  0.17284962223E+03 0.  0.
         24    2    3    3    0    0  0.32341409725E+02 -0.24181184503E+02 -0.42746112256E+02  0.10001317424E+03  0.80899372319E+02 0.  0.
         -6    2    1    2    0  502 -0.62495089731E+02 -0.77158599338E+02 -0.37436849551E+02  0.20326976362E+03  0.17337241247E+03 0.  0.
        -24    2    5    5    0    0 -0.47751695495E+02 -0.99138553639E+02  0.23003598021E+02  0.13712126577E+03  0.78513685205E+02 0.  0.
          5    1    3    3  501    0  0.30153680006E+02  0.10133978384E+03 -0.95700727791E+02  0.14268747495E+03  0.47000000000E+01 0. -1.
        -11    1    4    4    0    0  0.46252724899E+02  0.13287591809E+02 -0.34476138041E+02  0.59198638083E+02  0.00000000000E+00 0.  1.
         12    1    4    4    0    0 -0.13911315174E+02 -0.37468776312E+02 -0.82699742141E+01  0.40814536157E+02  0.00000000000E+00 0. -1.
         -5    1    5    5    0  502 -0.14743394236E+02  0.21979954301E+02 -0.60440447571E+02  0.66148497846E+02  0.47000000000E+01 0.  1.
         13    1    6    6    0    0 -0.50607632314E+01 -0.45368920600E+02 -0.26218246145E+02  0.52643581868E+02  0.00000000000E+00 0. -1.
        -14    1    6    6    0    0 -0.42690932263E+02 -0.53769633039E+02  0.49221844166E+02  0.84477683904E+02  0.00000000000E+00 0.  1.
</event>
<event>
12    1  0.8684423E-002  0.1860276E+03  0.7818608E-02  0.1162289E+00
         21   -1    0    0  503  502  0.00000000000E+00  0.00000000000E+00  0.95033864884E+02  0.95033864884E+02  0.00000000000E+00 0.  1.
         21   -1    0    0  501  503 -0.00000000000E+00 -0.00000000000E+00 -0.39459413652E+03  0.39459413652E+03  0.00000000000E+00 0.  1.
          6    2    1    2  501    0  0.45856633703E+02  0.50455068269E+02 -0.80277733945E+02  0.20260994100E+03  0.17308301146E+03 0.  0.
         24    2    3    3    0    0  0.58879392753E+02  0.73813007586E+01  0.10995078103E+02  0.10073865987E+03  0.80660519201E+02 0.  0.
         -6    2    1    2    0  502 -0.45856633703E+02 -0.50455068269E+02 -0.21928253769E+03  0.28701806040E+03  0.17218011178E+03 0.  0.
        -24    2    5    5    0    0 -0.86806564618E+02 -0.58839994790E+02 -0.11481417328E+03  0.17439953174E+03  0.78964407410E+02 0.  0.
          5    1    3    3  501    0 -0.13022759050E+02  0.43073767510E+02 -0.91272812049E+02  0.10187128113E+03  0.47000000000E+01 0. -1.
        -13    1    4    4    0    0  0.45020419339E+02  0.42118607818E+02  0.13992961328E+02  0.63218812459E+02  0.00000000000E+00 0.  1.
         14    1    4    4    0    0  0.13858973414E+02 -0.34737307059E+02 -0.29978832247E+01  0.37519847409E+02  0.00000000000E+00 0. -1.
         -5    1    5    5    0  502  0.40949930915E+02  0.83849265215E+01 -0.10446836441E+03  0.11261852866E+03  0.47000000000E+01 0.  1.
         13    1    6    6    0    0 -0.26063182273E+02 -0.47525957197E+01  0.74799487215E+01  0.27528644520E+02  0.00000000000E+00 0. -1.
        -14    1    6    6    0    0 -0.60743382346E+02 -0.54087399070E+02 -0.12229412200E+03  0.14687088722E+03  0.00000000000E+00 0.  1.
</event>
<event>
12    1  0.8684423E-002  0.1929568E+03  0.7818608E-02  0.1156190E+00
         21   -1    0    0  503  502  0.00000000000E+00  0.00000000000E+00  0.33187323641E+02  0.33187323641E+02  0.00000000000E+00 0.  1.
         21   -1    0    0  501  503 -0.00000000000E+00 -0.00000000000E+00 -0.17328412332E+04  0.17328412332E+04  0.00000000000E+00 0.  1.
          6    2    1    2  501    0 -0.21492192312E+02  0.83418322554E+02 -0.13806113255E+04  0.13940301128E+04  0.17266091756E+03 0.  0.
         24    2    3    3    0    0 -0.99879589168E+01 -0.22768476708E+02 -0.47834245711E+03  0.48544924982E+03  0.78938615533E+02 0.  0.
         -6    2    1    2    0  502  0.21492192312E+02 -0.83418322554E+02 -0.31904258406E+03  0.37199844403E+03  0.17080439412E+03 0.  0.
        -24    2    5    5    0    0  0.19386944059E+02 -0.12476006687E+03 -0.22998133798E+03  0.27367465522E+03  0.77881147958E+02 0.  0.
          5    1    3    3  501    0 -0.11504233395E+02  0.10618679926E+03 -0.90226886841E+03  0.90858086301E+03  0.47000000000E+01 0. -1.
        -13    1    4    4    0    0 -0.39924588059E+02 -0.23334802031E+01 -0.34349602552E+03  0.34581633479E+03  0.00000000000E+00 0.  1.
         14    1    4    4    0    0  0.29936629142E+02 -0.20434996504E+02 -0.13484643158E+03  0.13963291502E+03  0.00000000000E+00 0. -1.
         -5    1    5    5    0  502  0.21052482522E+01  0.41341744312E+02 -0.89061246082E+02  0.98323788813E+02  0.47000000000E+01 0.  1.
         11    1    6    6    0    0  0.30196109769E+02 -0.42070861592E+02 -0.14773081872E+03  0.15654442578E+03  0.00000000000E+00 0. -1.
        -12    1    6    6    0    0 -0.10809165710E+02 -0.82689205274E+02 -0.82250519252E+02  0.11713022944E+03  0.00000000000E+00 0.  1.
</event>
<event>
12    1  0.8684423E-002  0.1906189E+03  0.7818608E-02  0.1157975E+00
         21   -1    0    0  501  502  0.00000000000E+00  0.00000000000E+00  0.95726934883E+03  0.95726934883E+03  0.00000000000E+00 0. -1.
         21   -1    0    0  502  503 -0.00000000000E+00 -0.00000000000E+00 -0.59460605386E+02  0.59460605386E+02  0.00000000000E+00 0. -1.
         -6    2    1    2    0  503 -0.63262491816E+02  0.31021734949E+01  0.14251047576E+03  0.23774917906E+03  0.17945381047E+03 0.  0.
        -24    2    3    3    0    0 -0.79318628767E+02  0.62574819027E+02  0.97622635679E+02  0.16138293464E+03  0.79418006455E+02 0.  0.
          6    2    1    2  501    0  0.63262491816E+02 -0.31021734949E+01  0.75529826769E+03  0.77898077516E+03  0.17978823249E+03 0.  0.
         24    2    5    5    0    0  0.15529294980E+01  0.61178399679E+02  0.43514811662E+03  0.44662814406E+03  0.79859924185E+02 0.  0.
          5    1    5    5  501    0  0.61709562318E+02 -0.64280573174E+02  0.32015015107E+03  0.33235263110E+03  0.47000000000E+01 0. -1.
        -13    1    6    6    0    0 -0.28266064469E+02  0.18454531189E+01  0.70407084128E+02  0.75891591058E+02  0.00000000000E+00 0.  1.
         14    1    6    6    0    0  0.29818993967E+02  0.59332946560E+02  0.36474103249E+03  0.37073655300E+03  0.00000000000E+00 0. -1.
         -5    1    3    3    0  503  0.16056136951E+02 -0.59472645532E+02  0.44887840076E+02  0.76366244422E+02  0.47000000000E+01 0.  1.
         13    1    4    4    0    0 -0.28472762098E+02  0.73384671772E+01 -0.92073158056E+01  0.30811133481E+02  0.00000000000E+00 0. -1.
        -14    1    4    4    0    0 -0.50845866669E+02  0.55236351850E+02  0.10682995148E+03  0.13057180116E+03  0.00000000000E+00 0.  1.
</event>
<event>
12    1  0.8684423E-002  0.1824242E+03  0.7818608E-02  0.1165597E+00
         21   -1    0    0  503  502  0.00000000000E+00  0.00000000000E+00  0.68939350649E+03  0.68939350649E+03  0.00000000000E+00 0. -1.
         21   -1    0    0  501  503 -0.00000000000E+00 -0.00000000000E+00 -0.68253844357E+02  0.68253844357E+02  0.00000000000E+00 0. -1.
          6    2    1    2  501    0 -0.43053639368E+02 -0.44871229734E+02  0.10522141268E+03  0.21059471477E+03  0.17149794483E+03 0.  0.
         24    2    3    3    0    0 -0.43886720556E+02 -0.48249530019E+01  0.13166027052E+03  0.16237126085E+03  0.84146747441E+02 0.  0.
         -6    2    1    2    0  502  0.43053639368E+02  0.44871229734E+02  0.51591824945E+03  0.54705263608E+03  0.17096170157E+03 0.  0.
        -24    2    5    5    0    0  0.45214320613E+01 -0.33998042626E+02  0.17891464833E+03  0.19877313583E+03  0.79523568149E+02 0.  0.
          5    1    3    3  501    0  0.83308118763E+00 -0.40046276732E+02 -0.26438857835E+02  0.48223453920E+02  0.47000000000E+01 0. -1.
        -11    1    4    4    0    0 -0.28885476127E+02 -0.21886819233E+02  0.13466343625E+03  0.13945481221E+03  0.00000000000E+00 0.  1.
         12    1    4    4    0    0 -0.15001244429E+02  0.17061866231E+02 -0.30031657324E+01  0.22916448636E+02  0.00000000000E+00 0. -1.
         -5    1    5    5    0  502  0.38532207307E+02  0.78869272360E+02  0.33700360112E+03  0.34827950025E+03  0.47000000000E+01 0.  1.
         11    1    6    6    0    0  0.15921967997E+02 -0.13296394685E+02  0.26281950136E+01  0.20909581190E+02  0.00000000000E+00 0. -1.
        -12    1    6    6    0    0 -0.11400535936E+02 -0.20701647942E+02  0.17628645331E+03  0.17786355464E+03  0.00000000000E+00 0.  1.
</event>
<event>
12    1  0.8684423E-002  0.3043429E+03  0.7818608E-02  0.1083103E+00
         21   -1    0    0  501  502  0.00000000000E+00  0.00000000000E+00  0.51155326646E+03  0.51155326646E+03  0.00000000000E+00 0.  1.
         21   -1    0    0  502  503 -0.00000000000E+00 -0.00000000000E+00 -0.19055059795E+03  0.19055059795E+03  0.00000000000E+00 0.  1.
         -6    2    1    2    0  503 -0.21582181282E+03  0.12600609033E+03  0.81884829049E+02  0.31506132818E+03  0.17349906511E+03 0.  0.
        -24    2    3    3    0    0 -0.97153757081E+02  0.26200069607E+01  0.68337744309E+02  0.14327120469E+03  0.80067932685E+02 0.  0.
          6    2    1    2  501    0  0.21582181282E+03 -0.12600609033E+03  0.23911783947E+03  0.38704253623E+03  0.17368936066E+03 0.  0.
         24    2    5    5    0    0  0.15338112422E+03 -0.37475736401E+02  0.20956851868E+03  0.27465163126E+03  0.81144035177E+02 0.  0.
          5    1    5    5  501    0  0.62440688608E+02 -0.88530353931E+02  0.29549320783E+02  0.11239090497E+03  0.47000000000E+01 0. -1.
        -13    1    6    6    0    0  0.12296507013E+03 -0.53728373478E+02  0.12528223195E+03  0.18358318069E+03  0.00000000000E+00 0.  1.
         14    1    6    6    0    0  0.30416054085E+02  0.16252637076E+02  0.84286286733E+02  0.91068450570E+02  0.00000000000E+00 0. -1.
         -5    1    3    3    0  503 -0.11866805574E+03  0.12338608337E+03  0.13547084740E+02  0.17179012349E+03  0.47000000000E+01 0.  1.
         13    1    4    4    0    0 -0.57683617118E+02  0.34546778339E+02  0.63145581333E+02  0.92240143209E+02  0.00000000000E+00 0. -1.
        -14    1    4    4    0    0 -0.39470139964E+02 -0.31926771379E+02  0.51921629762E+01  0.51031061480E+02  0.00000000000E+00 0.  1.
</event>
<event>
12    1  0.8684423E-002  0.2197541E+03  0.7818608E-02  0.1134222E+00
         21   -1    0    0  501  502  0.00000000000E+00  0.00000000000E+00  0.80046025191E+03  0.80046025191E+03  0.00000000000E+00 0. -1.
         21   -1    0    0  502  503 -0.00000000000E+00 -0.00000000000E+00 -0.15453359738E+03  0.15453359738E+03  0.00000000000E+00 0. -1.
         -6    2    1    2    0  503  0.12188010237E+03  0.63825508625E+02 -0.50064163839E+02  0.22538476807E+03  0.17135757430E+03 0.  0.
        -24    2    3    3    0    0  0.99050460215E+02 -0.15660085802E+02 -0.68596969495E+02  0.14050422160E+03  0.70566706800E+02 0.  0.
          6    2    1    2  501    0 -0.12188010237E+03 -0.63825508625E+02  0.69599081837E+03  0.72960908122E+03  0.17028721982E+03 0.  0.
         24    2    5    5    0    0 -0.69616855207E+02 -0.10177724831E+03  0.38661852556E+03  0.41353142129E+03  0.79556503701E+02 0.  0.
          5    1    5    5  501    0 -0.52263247166E+02  0.37951739686E+02  0.30937229281E+03  0.31607765993E+03  0.47000000000E+01 0. -1.
        -11    1    6    6    0    0 -0.25678327640E+02 -0.32197568632E+02  0.40485646370E+02  0.57750735910E+02  0.00000000000E+00 0.  1.
         12    1    6    6    0    0 -0.43938527566E+02 -0.69579679680E+02  0.34613287919E+03  0.35578068538E+03  0.00000000000E+00 0. -1.
         -5    1    3    3    0  503  0.22829642159E+02  0.79485594427E+02  0.18532805656E+02  0.84880546464E+02  0.47000000000E+01 0.  1.
         11    1    4    4    0    0  0.44170170783E+02 -0.16857936721E+02 -0.71293059135E+02  0.85544691818E+02  0.00000000000E+00 0. -1.
        -12    1    4    4    0    0  0.54880289432E+02  0.11978509192E+01  0.26960896398E+01  0.54959529786E+02  0.00000000000E+00 0.  1.
</event>
<event>
12    1  0.8684423E-002  0.2065732E+03  0.7818608E-02  0.1145065E+00
         21   -1    0    0  503  502  0.00000000000E+00  0.00000000000E+00  0.84412518849E+02  0.84412518849E+02  0.00000000000E+00 0. -1.
         21   -1    0    0  501  503 -0.00000000000E+00 -0.00000000000E+00 -0.79577989417E+03  0.79577989417E+03  0.00000000000E+00 0. -1.
          6    2    1    2  501    0 -0.98396286650E+02 -0.57849947041E+02 -0.62356156945E+03  0.65573228754E+03  0.16771212369E+03 0.  0.
         24    2    3    3    0    0  0.82119847869E+01 -0.39095802361E+02 -0.21203843895E+03  0.23018508873E+03  0.80180777153E+02 0.  0.
         -6    2    1    2    0  502  0.98396286650E+02  0.57849947041E+02 -0.87805805872E+02  0.22446012548E+03  0.17217445451E+03 0.  0.
        -24    2    5    5    0    0  0.85975299802E+02  0.22232042923E+02  0.94869518380E+01  0.12000493551E+03  0.80157135572E+02 0.  0.
          5    1    3    3  501    0 -0.10660827144E+03 -0.18754144680E+02 -0.41152313050E+03  0.42554719882E+03  0.47000000000E+01 0. -1.
        -11    1    4    4    0    0  0.14318066167E+02 -0.22589602858E+02 -0.11897707944E+02  0.29272045203E+02  0.00000000000E+00 0.  1.
         12    1    4    4    0    0 -0.61060813802E+01 -0.16506199503E+02 -0.20014073100E+03  0.20091304352E+03  0.00000000000E+00 0. -1.
         -5    1    5    5    0  502  0.12420986848E+02  0.35617904118E+02 -0.97292757710E+02  0.10445518997E+03  0.47000000000E+01 0.  1.
         13    1    6    6    0    0  0.23705023728E+02  0.35219489198E+02 -0.23315411078E+02  0.48434997296E+02  0.00000000000E+00 0. -1.
        -14    1    6    6    0    0  0.62270276074E+02 -0.12987446276E+02  0.32802362916E+02  0.71569938214E+02  0.00000000000E+00 0.  1.
</event>
<event>
12    1  0.8684423E-002  0.2948063E+03  0.7818608E-02  0.1087999E+00
         21   -1    0    0  501  502  0.00000000000E+00  0.00000000000E+00  0.14236206022E+04  0.14236206022E+04  0.00000000000E+00 0. -1.
         21   -1    0    0  502  503 -0.00000000000E+00 -0.00000000000E+00 -0.67004388012E+02  0.67004388012E+02  0.00000000000E+00 0.  1.
         -6    2    1    2    0  503  0.18934777216E+03 -0.14568531910E+03  0.45322374354E+03  0.54066855800E+03  0.17272503256E+03 0.  0.
        -24    2    3    3    0    0  0.61044646176E+02 -0.13057840255E+03  0.27773341230E+03  0.32270329144E+03  0.78894853822E+02 0.  0.
          6    2    1    2  501    0 -0.18934777216E+03  0.14568531910E+03  0.90339247066E+03  0.94995643223E+03  0.17094582786E+03 0.  0.
         24    2    5    5    0    0 -0.12872668112E+03  0.10705628987E+03  0.39676445274E+03  0.43823272052E+03  0.81205164537E+02 0.  0.
          5    1    5    5  501    0 -0.60621091038E+02  0.38629029230E+02  0.50662801792E+03  0.51172371170E+03  0.47000000000E+01 0. -1.
        -11    1    6    6    0    0 -0.11581459347E+03  0.12069792477E+03  0.35868780245E+03  0.39577512394E+03  0.00000000000E+00 0.  1.
         12    1    6    6    0    0 -0.12912087659E+02 -0.13641634902E+02  0.38076650291E+02  0.42457596586E+02  0.00000000000E+00 0. -1.
         -5    1    3    3    0  503  0.12830312599E+03 -0.15106916549E+02  0.17549033124E+03  0.21796526655E+03  0.47000000000E+01 0.  1.
         11    1    4    4    0    0  0.73377418378E+02 -0.67023113993E+02  0.17590166679E+03  0.20203400634E+03  0.00000000000E+00 0. -1.
        -12    1    4    4    0    0 -0.12332772203E+02 -0.63555288556E+02  0.10183174551E+03  0.12066928510E+03  0.00000000000E+00 0.  1.
</event>
<event>
12    1  0.8684423E-002  0.2017062E+03  0.7818608E-02  0.1148962E+00
         21   -1    0    0  501  502  0.00000000000E+00  0.00000000000E+00  0.32701281724E+03  0.32701281724E+03  0.00000000000E+00 0. -1.
         21   -1    0    0  502  503 -0.00000000000E+00 -0.00000000000E+00 -0.12316094170E+03  0.12316094170E+03  0.00000000000E+00 0. -1.
         -6    2    1    2    0  503  0.79076994091E+02  0.70860041687E+02  0.86282010364E+02  0.21938547176E+03  0.17149659882E+03 0.  0.
        -24    2    3    3    0    0  0.63593878549E+02  0.95404641434E+02  0.11412409769E+03  0.17889552152E+03  0.76374543869E+02 0.  0.
          6    2    1    2  501    0 -0.79076994091E+02 -0.70860041687E+02  0.11756986517E+03  0.23078828718E+03  0.16782801852E+03 0.  0.
         24    2    5    5    0    0 -0.31185715318E+02 -0.99996520623E+02  0.45024988076E+02  0.13898764350E+03  0.79488757179E+02 0.  0.
          5    1    5    5  501    0 -0.47891278773E+02  0.29136478936E+02  0.72544877096E+02  0.91800643681E+02  0.47000000000E+01 0. -1.
        -11    1    6    6    0    0 -0.51625591801E+02 -0.90480505038E+02  0.50527030599E+02  0.11577955062E+03  0.00000000000E+00 0.  1.
         12    1    6    6    0    0  0.20439876482E+02 -0.95160155849E+01 -0.55020425223E+01  0.23208092880E+02  0.00000000000E+00 0. -1.
         -5    1    3    3    0  503  0.15483115542E+02 -0.24544599747E+02 -0.27842087328E+02  0.40489950240E+02  0.47000000000E+01 0.  1.
         13    1    4    4    0    0 -0.53652545169E+01 -0.77808489426E+01  0.23182983884E+02  0.25035540898E+02  0.00000000000E+00 0. -1.
        -14    1    4    4    0    0  0.68959133066E+02  0.10318549038E+03  0.90941113809E+02  0.15385998063E+03  0.00000000000E+00 0.  1.
</event>
<event>
12    1  0.8684423E-002  0.2244982E+03  0.7818608E-02  0.1130736E+00
         21   -1    0    0  503  502  0.00000000000E+00  0.00000000000E+00  0.73837218550E+03  0.73837218550E+03  0.00000000000E+00 0. -1.
         21   -1    0    0  501  503 -0.00000000000E+00 -0.00000000000E+00 -0.68138885432E+02  0.68138885432E+02  0.00000000000E+00 0.  1.
          6    2    1    2  501    0 -0.68224649514E+02 -0.12607061203E+03  0.31664771743E+03  0.38815618911E+03  0.17277455881E+03 0.  0.
         24    2    3    3    0    0  0.17544358256E+02 -0.28744314783E+02  0.66907782239E+02  0.10669419157E+03  0.75979991130E+02 0.  0.
         -6    2    1    2    0  502  0.68224649514E+02  0.12607061203E+03  0.35358558264E+03  0.41835488182E+03  0.17160897668E+03 0.  0.
        -24    2    5    5    0    0  0.45391150766E+02  0.31062139286E+02  0.75919324626E+02  0.12395953642E+03  0.81098765415E+02 0.  0.
          5    1    3    3  501    0 -0.85769007770E+02 -0.97326297247E+02  0.24973993519E+03  0.28146199754E+03  0.47000000000E+01 0. -1.
        -13    1    4    4    0    0 -0.81007520928E+00 -0.52057802548E+02  0.51617340739E+02  0.73314533982E+02  0.00000000000E+00 0.  1.
         14    1    4    4    0    0  0.18354433465E+02  0.23313487765E+02  0.15290441500E+02  0.33379657590E+02  0.00000000000E+00 0. -1.
         -5    1    5    5    0  502  0.22833498748E+02  0.95008472744E+02  0.27766625801E+03  0.29439534541E+03  0.47000000000E+01 0.  1.
         11    1    6    6    0    0  0.26282694052E+02 -0.93567303430E+01  0.74140750067E+02  0.79216028870E+02  0.00000000000E+00 0. -1.
        -12    1    6    6    0    0  0.19108456715E+02  0.40418869629E+02  0.17785745590E+01  0.44743507546E+02  0.00000000000E+00 0.  1.
</event>
<event>
12    1  0.8684423E-002  0.4298900E+03  0.7818608E-02  0.1033932E+00
         21   -1    0    0  503  502  0.00000000000E+00  0.00000000000E+00  0.77789094326E+03  0.77789094326E+03  0.00000000000E+00 0.  1.
         21   -1    0    0  501  503 -0.00000000000E+00 -0.00000000000E+00 -0.27715379784E+03  0.27715379784E+03  0.00000000000E+00 0. -1.
          6    2    1    2  501    0 -0.14283098709E+03 -0.36664809589E+03  0.50480594096E+02  0.43284378504E+03  0.17312982058E+03 0.  0.
         24    2    3    3    0    0 -0.39323664098E+02 -0.56756614192E+02  0.47712000718E+02  0.10607742898E+03  0.64871581714E+02 0.  0.
         -6    2    1    2    0  502  0.14283098709E+03  0.36664809589E+03  0.45025655132E+03  0.62220095606E+03  0.17196380613E+03 0.  0.
        -24    2    5    5    0    0  0.34331769265E+02  0.13084400440E+03  0.25264102518E+03  0.29593475185E+03  0.73831334025E+02 0.  0.
          5    1    3    3  501    0 -0.10350732299E+03 -0.30989148170E+03  0.27685933773E+01  0.32676635606E+03  0.47000000000E+01 0. -1.
        -11    1    4    4    0    0 -0.35032484440E+02  0.59471201605E+00  0.73073904128E+01  0.35791431979E+02  0.00000000000E+00 0.  1.
         12    1    4    4    0    0 -0.42911796575E+01 -0.57351326208E+02  0.40404610306E+02  0.70285997002E+02  0.00000000000E+00 0. -1.
         -5    1    5    5    0  502  0.10849921783E+03  0.23580409150E+03  0.19761552615E+03  0.32626620421E+03  0.47000000000E+01 0.  1.
         13    1    6    6    0    0 -0.17394832664E+02  0.60791565515E+02  0.74997966342E+02  0.98096328151E+02  0.00000000000E+00 0. -1.
        -14    1    6    6    0    0  0.51726601929E+02  0.70052438881E+02  0.17764305884E+03  0.19783842370E+03  0.00000000000E+00 0.  1.
</event>
<event>
12    1  0.8684423E-002  0.2316932E+03  0.7818608E-02  0.1126086E+00
         21   -1    0    0  501  502  0.00000000000E+00  0.00000000000E+00  0.64191954088E+03  0.64191954088E+03  0.00000000000E+00 0. -1.
         21   -1    0    0  502  503 -0.00000000000E+00 -0.00000000000E+00 -0.16609798715E+03  0.16609798715E+03  0.00000000000E+00 0.  1.
         -6    2    1    2    0  503  0.14912294887E+03  0.14687676631E+02 -0.49913056434E+02  0.23349283490E+03  0.17197153550E+03 0.  0.
        -24    2    3    3    0    0  0.10435435098E+03 -0.15256158806E+02  0.29252148559E+02  0.13762792828E+03  0.83445655965E+02 0.  0.
          6    2    1    2  501    0 -0.14912294887E+03 -0.14687676631E+02  0.52573461016E+03  0.57452469314E+03  0.17671548030E+03 0.  0.
         24    2    5    5    0    0 -0.81267253012E+02 -0.65137767260E+02  0.41545447867E+03  0.43548007977E+03  0.78696765453E+02 0.  0.
          5    1    5    5  501    0 -0.67855695858E+02  0.50450090629E+02  0.11028013149E+03  0.13904461337E+03  0.47000000000E+01 0. -1.
        -13    1    6    6    0    0 -0.33421216625E+02  0.14197612046E+02  0.88690437599E+02  0.95836024698E+02  0.00000000000E+00 0.  1.
         14    1    6    6    0    0 -0.47846036387E+02 -0.79335379306E+02  0.32676404107E+03  0.33964405507E+03  0.00000000000E+00 0. -1.
         -5    1    3    3    0  503  0.44768597894E+02  0.29943835438E+02 -0.79165204993E+02  0.95864906612E+02  0.47000000000E+01 0.  1.
         13    1    4    4    0    0  0.23796097949E+01 -0.24526076082E+02  0.25062385699E+02  0.35147035831E+02  0.00000000000E+00 0. -1.
        -14    1    4    4    0    0  0.10197474118E+03  0.92699172758E+01  0.41897628601E+01  0.10248089245E+03  0.00000000000E+00 0.  1.
</event>
<event>
12    1  0.8684423E-002  0.1892041E+03  0.7818608E-02  0.1159246E+00
         21   -1    0    0  503  502  0.00000000000E+00  0.00000000000E+00  0.26742207632E+03  0.26742207632E+03  0.00000000000E+00 0.  1.
         21   -1    0    0  501  503 -0.00000000000E+00 -0.00000000000E+00 -0.20180985291E+03  0.20180985291E+03  0.00000000000E+00 0. -1.
          6    2    1    2  501    0 -0.81670930213E+01 -0.76156135190E+02 -0.10354633181E+03  0.21543515549E+03  0.17269627979E+03 0.  0.
         24    2    3    3    0    0 -0.25916927478E+02 -0.15202222821E+02  0.75839005214E+01  0.87363087515E+02  0.81682304108E+02 0.  0.
         -6    2    1    2    0  502  0.81670930213E+01  0.76156135190E+02  0.16915855521E+03  0.25379677374E+03  0.17300788197E+03 0.  0.
        -24    2    5    5    0    0  0.52178327757E+02  0.45513394309E+02  0.48291579823E+02  0.12148319888E+03  0.87361570383E+02 0.  0.
          5    1    3    3  501    0  0.17749834457E+02 -0.60953912369E+02 -0.11113023233E+03  0.12807206797E+03  0.47000000000E+01 0. -1.
        -11    1    4    4    0    0  0.24807581857E+02 -0.16575838541E+02  0.18973153704E+02  0.35357532470E+02  0.00000000000E+00 0.  1.
         12    1    4    4    0    0 -0.50724509335E+02  0.13736157200E+01 -0.11389253182E+02  0.52005555045E+02  0.00000000000E+00 0. -1.
         -5    1    5    5    0  502 -0.44011234736E+02  0.30642740881E+02  0.12086697539E+03  0.13231357486E+03  0.47000000000E+01 0.  1.
         13    1    6    6    0    0  0.18810552059E+01  0.53280535689E+02  0.30711174388E+01  0.53402112452E+02  0.00000000000E+00 0. -1.
        -14    1    6    6    0    0  0.50297272551E+02 -0.77671413798E+01  0.45220462384E+02  0.68081086430E+02  0.00000000000E+00 0.  1.
</event>
<event>
12    1  0.8684423E-002  0.2204222E+03  0.7818608E-02  0.1133635E+00
         21   -1    0    0  503  502  0.00000000000E+00  0.00000000000E+00  0.74861347313E+02  0.74861347313E+02  0.00000000000E+00 0.  1.
         21   -1    0    0  501  503 -0.00000000000E+00 -0.00000000000E+00 -0.90659333317E+03  0.90659333317E+03  0.00000000000E+00 0.  1.
          6    2    1    2  501    0 -0.33684188365E+02  0.13332352792E+03 -0.67773004932E+03  0.71256332081E+03  0.17181000777E+03 0.  0.
         24    2    3    3    0    0 -0.62964861261E+02  0.26227499208E+02 -0.38180681077E+03  0.39646275092E+03  0.82181607726E+02 0.  0.
         -6    2    1    2    0  502  0.33684188365E+02 -0.13332352792E+03 -0.15400193654E+03  0.26889135968E+03  0.17226775440E+03 0.  0.
        -24    2    5    5    0    0 -0.12220001585E+01 -0.65639213639E+02 -0.16228860785E+03  0.19214263123E+03  0.79190901289E+02 0.  0.
          5    1    3    3  501    0  0.29280672896E+02  0.10709602871E+03 -0.29592323855E+03  0.31610056989E+03  0.47000000000E+01 0. -1.
        -11    1    4    4    0    0  0.14393880600E+02  0.24529985514E+02 -0.12806817173E+03  0.13118826395E+03  0.00000000000E+00 0.  1.
         12    1    4    4    0    0 -0.77358741861E+02  0.16975136936E+01 -0.25373863904E+03  0.26527448697E+03  0.00000000000E+00 0. -1.
         -5    1    5    5    0  502  0.34906188523E+02 -0.67684314283E+02  0.82866713047E+01  0.76748728449E+02  0.47000000000E+01 0.  1.
         13    1    6    6    0    0 -0.15712133760E+02  0.14265059222E+02 -0.26849775818E+02  0.34223873588E+02  0.00000000000E+00 0. -1.
        -14    1    6    6    0    0  0.14490133601E+02 -0.79904272861E+02 -0.13543883203E+03  0.15791875764E+03  0.00000000000E+00 0.  1.
</event>
<event>
12    1  0.8684423E-002  0.2175336E+03  0.7818608E-02  0.1136025E+00
         21   -1    0    0  501  502  0.00000000000E+00  0.00000000000E+00  0.16767641824E+03  0.16767641824E+03  0.00000000000E+00 0.  1.
         21   -1    0    0  502  503 -0.00000000000E+00 -0.00000000000E+00 -0.28024764916E+03  0.28024764916E+03  0.00000000000E+00 0. -1.
         -6    2    1    2    0  503  0.85716009226E+02  0.10049182866E+03 -0.57895757459E+02  0.22510618502E+03  0.17284395834E+03 0.  0.
        -24    2    3    3    0    0  0.71860726748E+01  0.23109886907E+02 -0.75370506367E+02  0.11338164566E+03  0.81172518930E+02 0.  0.
          6    2    1    2  501    0 -0.85716009226E+02 -0.10049182866E+03 -0.54675473456E+02  0.22281788239E+03  0.17091682026E+03 0.  0.
         24    2    5    5    0    0 -0.32955930159E+02  0.76121487411E+00  0.21905027635E+02  0.85258920790E+02  0.75515432581E+02 0.  0.
          5    1    5    5  501    0 -0.52760079067E+02 -0.10125304354E+03 -0.76580501091E+02  0.13755896160E+03  0.47000000000E+01 0. -1.
        -11    1    6    6    0    0 -0.33139379648E+02 -0.33628573189E+02  0.18469924469E+02  0.50697510077E+02  0.00000000000E+00 0.  1.
         12    1    6    6    0    0  0.18344948831E+00  0.34389788063E+02  0.34351031667E+01  0.34561410713E+02  0.00000000000E+00 0. -1.
         -5    1    3    3    0  503  0.78529936551E+02  0.77381941755E+02  0.17474748908E+02  0.11172453935E+03  0.47000000000E+01 0.  1.
         13    1    4    4    0    0  0.11484963332E+02  0.51862917360E+02 -0.61205422600E+02  0.81041781418E+02  0.00000000000E+00 0. -1.
        -14    1    4    4    0    0 -0.42988906568E+01 -0.28753030453E+02 -0.14165083767E+02  0.32339864243E+02  0.00000000000E+00 0.  1.
</event>
<event>
12    1  0.8684423E-002  0.3090728E+03  0.7818608E-02  0.1080795E+00
         21   -1    0    0  503  502  0.00000000000E+00  0.00000000000E+00  0.12535154772E+04  0.12535154772E+04  0.00000000000E+00 0.  1.
         21   -1    0    0  501  503 -0.00000000000E+00 -0.00000000000E+00 -0.17295145358E+04  0.17295145358E+04  0.00000000000E+00 0. -1.
          6    2    1    2  501    0 -0.19984051049E+03 -0.16122456219E+03 -0.16962886186E+04  0.17242160762E+04  0.17203607343E+03 0.  0.
         24    2    3    3    0    0 -0.13831038328E+03 -0.10101245469E+03 -0.73012797174E+03  0.75421610708E+03  0.80136152498E+02 0.  0.
         -6    2    1    2    0  502  0.19984051049E+03  0.16122456219E+03  0.12202895599E+04  0.12588139368E+04  0.17197769750E+03 0.  0.
        -24    2    5    5    0    0  0.10959313687E+03  0.42637433404E+02  0.80590736722E+03  0.81842525943E+03  0.80651189450E+02 0.  0.
          5    1    3    3  501    0 -0.61530127208E+02 -0.60212107505E+02 -0.96616064688E+03  0.96999996908E+03  0.47000000000E+01 0. -1.
        -11    1    4    4    0    0 -0.10431776845E+03 -0.10879947961E+03 -0.52764446123E+03  0.54875149298E+03  0.00000000000E+00 0.  1.
         12    1    4    4    0    0 -0.33992614836E+02  0.77870249244E+01 -0.20248351050E+03  0.20546461410E+03  0.00000000000E+00 0. -1.
         -5    1    5    5    0  502  0.90247373619E+02  0.11858712879E+03  0.41438219270E+03  0.44038867741E+03  0.47000000000E+01 0.  1.
         13    1    6    6    0    0  0.12431524809E+02  0.18829590657E+02  0.39283951166E+02  0.45302594987E+02  0.00000000000E+00 0. -1.
        -14    1    6    6    0    0  0.97161612061E+02  0.23807842747E+02  0.76662341605E+03  0.77312266444E+03  0.00000000000E+00 0.  1.
</event>
<event>
12    1  0.8684423E-002  0.3792624E+03  0.7818608E-02  0.1051464E+00
         21   -1    0    0  503  502  0.00000000000E+00  0.00000000000E+00  0.48477898974E+03  0.48477898974E+03  0.00000000000E+00 0. -1.
         21   -1    0    0  501  503 -0.00000000000E+00 -0.00000000000E+00 -0.12213373335E+04  0.12213373335E+04  0.00000000000E+00 0. -1.
          6    2    1    2  501    0 -0.25862047589E+03  0.21685522137E+03 -0.11117107348E+04  0.11746236589E+04  0.17300070729E+03 0.  0.
         24    2    3    3    0    0 -0.53452999977E+02  0.10706676949E+03 -0.49314536368E+03  0.51372093866E+03  0.79977101523E+02 0.  0.
         -6    2    1    2    0  502  0.25862047589E+03 -0.21685522137E+03  0.37515239102E+03  0.53149266430E+03  0.16683644129E+03 0.  0.
        -24    2    5    5    0    0  0.12733592345E+03 -0.18329236298E+03  0.24931411618E+03  0.34650763630E+03  0.89997143072E+02 0.  0.
          5    1    3    3  501    0 -0.20516747591E+03  0.10978845188E+03 -0.61856537111E+03  0.66090272028E+03  0.47000000000E+01 0. -1.
        -13    1    4    4    0    0 -0.44421995459E+02  0.38291146980E+02 -0.11314578965E+03  0.12744212543E+03  0.00000000000E+00 0.  1.
         14    1    4    4    0    0 -0.90310045175E+01  0.68775622507E+02 -0.37999957403E+03  0.38627881323E+03  0.00000000000E+00 0. -1.
         -5    1    5    5    0  502  0.13128455244E+03 -0.33562858389E+02  0.12583827483E+03  0.18498502800E+03  0.47000000000E+01 0.  1.
         13    1    6    6    0    0  0.70063971585E+02 -0.10797530643E+03  0.77176915231E+02  0.15007965604E+03  0.00000000000E+00 0. -1.
        -14    1    6    6    0    0  0.57271951862E+02 -0.75317056546E+02  0.17213720095E+03  0.19642798026E+03  0.00000000000E+00 0.  1.
</event>
<event>
12    1  0.8684423E-002  0.1865254E+03  0.7818608E-02  0.1161722E+00
         21   -1    0    0  501  502  0.00000000000E+00  0.00000000000E+00  0.20489064685E+03  0.20489064685E+03  0.00000000000E+00 0. -1.
         21   -1    0    0  502  503 -0.00000000000E+00 -0.00000000000E+00 -0.29162149380E+03  0.29162149380E+03  0.00000000000E+00 0. -1.
         -6    2    1    2    0  503  0.49025780762E+02 -0.52737105409E+02 -0.20401948128E+03  0.27617528084E+03  0.17165112157E+03 0.  0.
        -24    2    3    3    0    0  0.47292446485E+02 -0.56884656518E+02 -0.22706598813E+03  0.25222871311E+03  0.81166009582E+02 0.  0.
          6    2    1    2  501    0 -0.49025780762E+02  0.52737105409E+02  0.11728863434E+03  0.22033685981E+03  0.17206678524E+03 0.  0.
         24    2    5    5    0    0 -0.75053294604E+02  0.54305471855E+02  0.13964424398E+03  0.18567052842E+03  0.79943410884E+02 0.  0.
          5    1    5    5  501    0  0.26027513843E+02 -0.15683664463E+01 -0.22355609636E+02  0.34666331394E+02  0.47000000000E+01 0. -1.
        -11    1    6    6    0    0 -0.21968199500E+02 -0.17148494877E+02  0.12698296970E+02  0.30625469984E+02  0.00000000000E+00 0.  1.
         12    1    6    6    0    0 -0.53085095105E+02  0.71453966733E+02  0.12694594701E+03  0.15504505844E+03  0.00000000000E+00 0. -1.
         -5    1    3    3    0  503  0.17333342763E+01  0.41475511093E+01  0.23046506847E+02  0.23946567724E+02  0.47000000000E+01 0.  1.
         11    1    4    4    0    0  0.40049445018E+02 -0.52442963094E+02 -0.74881057134E+02  0.99806789057E+02  0.00000000000E+00 0. -1.
        -12    1    4    4    0    0  0.72430014676E+01 -0.44416934239E+01 -0.15218493100E+03  0.15242192406E+03  0.00000000000E+00 0.  1.
</event>
<event>
12    1  0.8684423E-002  0.1786955E+03  0.7818608E-02  0.1169183E+00
         21   -1    0    0  501  502  0.00000000000E+00  0.00000000000E+00  0.15958143920E+03  0.15958143920E+03  0.00000000000E+00 0. -1.
         21   -1    0    0  502  503 -0.00000000000E+00 -0.00000000000E+00 -0.21330036798E+03  0.21330036798E+03  0.00000000000E+00 0. -1.
         -6    2    1    2    0  503 -0.16739952134E+02  0.45362510451E+02 -0.74093699207E+02  0.19302845685E+03  0.17155793640E+03 0.  0.
        -24    2    3    3    0    0 -0.49753845369E+02  0.71383106664E+02 -0.89203506943E+02  0.14811314918E+03  0.80057768278E+02 0.  0.
          6    2    1    2  501    0  0.16739952134E+02 -0.45362510451E+02  0.20374770428E+02  0.17985335033E+03  0.17202939575E+03 0.  0.
         24    2    5    5    0    0  0.15256442163E+01  0.28796533287E+02  0.51829937336E+02  0.97740279148E+02  0.77686883346E+02 0.  0.
          5    1    5    5  501    0  0.15214307917E+02 -0.74159043738E+02 -0.31455166909E+02  0.82113071181E+02  0.47000000000E+01 0. -1.
        -11    1    6    6    0    0  0.22191924117E+02  0.14725669197E+02 -0.11982670758E+02  0.29204643943E+02  0.00000000000E+00 0.  1.
         12    1    6    6    0    0 -0.20666279901E+02  0.14070864091E+02  0.63812608094E+02  0.68535635205E+02  0.00000000000E+00 0. -1.
         -5    1    3    3    0  503  0.33013893235E+02 -0.26020596214E+02  0.15109807736E+02  0.44915307677E+02  0.47000000000E+01 0.  1.
         13    1    4    4    0    0 -0.17736197682E+02  0.55267923841E+02 -0.70377560460E+01  0.58469189528E+02  0.00000000000E+00 0. -1.
        -14    1    4    4    0    0 -0.32017647687E+02  0.16115182824E+02 -0.82165750897E+02  0.89643959648E+02  0.00000000000E+00 0.  1.
</event>
<event>
12    1  0.8684423E-002  0.2141225E+03  0.7818608E-02  0.1138623E+00
         21   -1    0    0  501  502  0.00000000000E+00  0.00000000000E+00  0.46240403644E+03  0.46240403644E+03  0.00000000000E+00 0. -1.
         21   -1    0    0  502  503 -0.00000000000E+00 -0.00000000000E+00 -0.23242180550E+03  0.23242180550E+03  0.00000000000E+00 0. -1.
         -6    2    1    2    0  503 -0.11042109079E+03 -0.63761180217E+02 -0.14890494060E+03  0.25962023648E+03  0.17021069431E+03 0.  0.
        -24    2    3    3    0    0 -0.11302411123E+03 -0.91563022413E+02 -0.75904349544E+02  0.18132020812E+03  0.77183617442E+02 0.  0.
          6    2    1    2  501    0  0.11042109079E+03  0.63761180217E+02  0.37888717154E+03  0.43520560546E+03  0.17201780393E+03 0.  0.
         24    2    5    5    0    0  0.16682773899E+02  0.46795980825E+02  0.86418460640E+02  0.12757802721E+03  0.79623011245E+02 0.  0.
          5    1    5    5  501    0  0.93738316894E+02  0.16965199392E+02  0.29246871090E+03  0.30762757825E+03  0.47000000000E+01 0. -1.
        -13    1    6    6    0    0 -0.83202378501E+00  0.67057318863E+02  0.61090331542E+02  0.90716067401E+02  0.00000000000E+00 0.  1.
         14    1    6    6    0    0  0.17514797684E+02 -0.20261338038E+02  0.25328129098E+02  0.36861959804E+02  0.00000000000E+00 0. -1.
         -5    1    3    3    0  503  0.26030204380E+01  0.27801842196E+02 -0.73000591059E+02  0.78300028351E+02  0.47000000000E+01 0.  1.
         13    1    4    4    0    0 -0.88561043512E+02 -0.61270948387E+02 -0.89553390059E+02  0.14006069119E+03  0.00000000000E+00 0. -1.
        -14    1    4    4    0    0 -0.24463067719E+02 -0.30292074026E+02  0.13649040515E+02  0.41259516939E+02  0.00000000000E+00 0.  1.
</event>
<event>
12    1  0.8684423E-002  0.5404075E+03  0.7818608E-02  0.1003745E+00
         21   -1    0    0  501  502  0.00000000000E+00  0.00000000000E+00  0.22394160129E+03  0.22394160129E+03  0.00000000000E+00 0.  1.
         21   -1    0    0  502  503 -0.00000000000E+00 -0.00000000000E+00 -0.21386270913E+04  0.21386270913E+04  0.00000000000E+00 0. -1.
         -6    2    1    2    0  503 -0.36946708758E+03 -0.35448208318E+03 -0.16953202307E+04  0.17793351357E+04  0.17250902666E+03 0.  0.
        -24    2    3    3    0    0 -0.34557605412E+03 -0.26328717357E+03 -0.12682201188E+04  0.13419292731E+04  0.60406616602E+02 0.  0.
          6    2    1    2  501    0  0.36946708758E+03  0.35448208318E+03 -0.21936525929E+03  0.58323355690E+03  0.17284903474E+03 0.  0.
         24    2    5    5    0    0  0.29702618742E+03  0.23306139627E+03 -0.10017201542E+03  0.39824764768E+03  0.77618205128E+02 0.  0.
          5    1    5    5  501    0  0.72440900166E+02  0.12142068691E+03 -0.11919324386E+03  0.18498590922E+03  0.47000000000E+01 0. -1.
        -13    1    6    6    0    0  0.19931336353E+03  0.13207648905E+03 -0.96033014523E+02  0.25766714133E+03  0.00000000000E+00 0.  1.
         14    1    6    6    0    0  0.97712823883E+02  0.10098490722E+03 -0.41390009001E+01  0.14058050635E+03  0.00000000000E+00 0. -1.
         -5    1    3    3    0  503 -0.23891033465E+02 -0.91194909612E+02 -0.42710011187E+03  0.43740586253E+03  0.47000000000E+01 0.  1.
         11    1    4    4    0    0 -0.16613258608E+03 -0.12650742546E+03 -0.70237091491E+03  0.73275443838E+03  0.00000000000E+00 0. -1.
        -12    1    4    4    0    0 -0.17944346804E+03 -0.13677974811E+03 -0.56584920392E+03  0.60917483475E+03  0.00000000000E+00 0.  1.
</event>
<event>
12    1  0.8684423E-002  0.1904229E+03  0.7818608E-02  0.1158345E+00
         21   -1    0    0  501  502  0.00000000000E+00  0.00000000000E+00  0.54113098284E+02  0.54113098284E+02  0.00000000000E+00 0. -1.
         21   -1    0    0  502  503 -0.00000000000E+00 -0.00000000000E+00 -0.70843125220E+03  0.70843125220E+03  0.00000000000E+00 0.  1.
         -6    2    1    2    0  503  0.82212399309E+01 -0.78962317827E+02 -0.41955403729E+03  0.46026127718E+03  0.17179120071E+03 0.  0.
        -24    2    3    3    0    0 -0.48357454555E+02 -0.12613232114E+02 -0.27896879869E+03  0.29476309243E+03  0.81019460492E+02 0.  0.
          6    2    1    2  501    0 -0.82212399309E+01  0.78962317827E+02 -0.23476411662E+03  0.30228307330E+03  0.17308445779E+03 0.  0.
         24    2    5    5    0    0 -0.59257309462E+01  0.48689028167E+02 -0.35085132682E+02  0.10025454053E+03  0.80089141645E+02 0.  0.
          5    1    5    5  501    0 -0.22955089847E+01  0.30273289660E+02 -0.19967898394E+03  0.20202853278E+03  0.47000000000E+01 0. -1.
        -11    1    6    6    0    0 -0.73232586276E+01  0.33067364768E+01 -0.51388108230E+02  0.52012520517E+02  0.00000000000E+00 0.  1.
         12    1    6    6    0    0  0.13975276815E+01  0.45382291691E+02  0.16302975548E+02  0.48242020008E+02  0.00000000000E+00 0. -1.
         -5    1    3    3    0  503  0.56578694486E+02 -0.66349085713E+02 -0.14058523860E+03  0.16549818475E+03  0.47000000000E+01 0.  1.
         13    1    4    4    0    0  0.21565010206E+02 -0.51574151561E+01 -0.10101034596E+03  0.10341536920E+03  0.00000000000E+00 0. -1.
        -14    1    4    4    0    0 -0.69922464761E+02 -0.74558169583E+01 -0.17795845274E+03  0.19134772323E+03  0.00000000000E+00 0.  1.
</event>
<event>
12    1  0.8684423E-002  0.1761874E+03  0.7818608E-02  0.1171959E+00
         21   -1    0    0  501  502  0.00000000000E+00  0.00000000000E+00  0.20691191473E+04  0.20691191473E+04  0.00000000000E+00 0.  1.
         21   -1    0    0  502  503 -0.00000000000E+00 -0.00000000000E+00 -0.14863722953E+02  0.14863722953E+02  0.00000000000E+00 0.  1.
         -6    2    1    2    0  503  0.12579262279E+02  0.20417354111E+02  0.10099666729E+04  0.10249356604E+04  0.17287371481E+03 0.  0.
        -24    2    3    3    0    0  0.31412660425E+02 -0.37712126019E+02  0.35901576894E+03  0.37110624626E+03  0.80115940870E+02 0.  0.
          6    2    1    2  501    0 -0.12579262279E+02 -0.20417354111E+02  0.10442887514E+04  0.10590472098E+04  0.17454767327E+03 0.  0.
         24    2    5    5    0    0 -0.43324888800E+02 -0.69615965583E+02  0.60456458844E+03  0.61548748851E+03  0.81259327244E+02 0.  0.
          5    1    5    5  501    0  0.30745626521E+02  0.49198611472E+02  0.43972416294E+03  0.44355972134E+03  0.47000000000E+01 0. -1.
        -11    1    6    6    0    0 -0.33256829570E+02 -0.84736003182E+02  0.40529695642E+03  0.41539358425E+03  0.00000000000E+00 0.  1.
         12    1    6    6    0    0 -0.10068059230E+02  0.15120037599E+02  0.19926763201E+03  0.20009390426E+03  0.00000000000E+00 0. -1.
         -5    1    3    3    0  503 -0.18833398146E+02  0.58129480130E+02  0.65095090400E+03  0.65382941412E+03  0.47000000000E+01 0.  1.
         13    1    4    4    0    0  0.17328071061E+02 -0.62740028135E+02  0.25845694917E+03  0.26652686122E+03  0.00000000000E+00 0. -1.
        -14    1    4    4    0    0  0.14084589364E+02  0.25027902116E+02  0.10055881977E+03  0.10457938504E+03  0.00000000000E+00 0.  1.
</event>
<event>
12    1  0.8684423E-002  0.2073136E+03  0.7818608E-02  0.1144808E+00
         21   -1    0    0  503  502  0.00000000000E+00  0.00000000000E+00  0.10359046784E+03  0.10359046784E+03  0.00000000000E+00 0.  1.
         21   -1    0    0  501  503 -0.00000000000E+00 -0.00000000000E+00 -0.57597624924E+03  0.57597624924E+03  0.00000000000E+00 0.  1.
          6    2    1    2  501    0 -0.38880840839E+02 -0.10915650748E+03 -0.41955844907E+03  0.46562825796E+03  0.16538899454E+03 0.  0.
         24    2    3    3    0    0 -0.68276303137E+02 -0.68539616042E+02 -0.38689155056E+03  0.40560291888E+03  0.73954873860E+02 0.  0.
         -6    2    1    2    0  502  0.38880840839E+02  0.10915650748E+03 -0.52827332333E+02  0.21393845912E+03  0.17190716780E+03 0.  0.
        -24    2    5    5    0    0  0.59986062221E+02  0.93787818729E+02 -0.95288841952E+02  0.16387153628E+03  0.73344627614E+02 0.  0.
          5    1    3    3  501    0  0.29395462298E+02 -0.40616891440E+02 -0.32666898508E+02  0.60025339083E+02  0.47000000000E+01 0. -1.
        -13    1    4    4    0    0 -0.57194162112E+02 -0.60521214555E+02 -0.18075997345E+03  0.19901798309E+03  0.00000000000E+00 0.  1.
         14    1    4    4    0    0 -0.11082141025E+02 -0.80184014868E+01 -0.20613157711E+03  0.20658493578E+03  0.00000000000E+00 0. -1.
         -5    1    5    5    0  502 -0.21105221381E+02  0.15368688752E+02  0.42461509619E+02  0.50066922840E+02  0.47000000000E+01 0.  1.
         13    1    6    6    0    0  0.20790211971E+01  0.66316921570E+02 -0.65360063451E+02  0.93135354780E+02  0.00000000000E+00 0. -1.
        -14    1    6    6    0    0  0.57907041024E+02  0.27470897160E+02 -0.29928778501E+02  0.70736181501E+02  0.00000000000E+00 0.  1.
</event>
<event>
12    1  0.8684423E-002  0.2047049E+03  0.7818608E-02  0.1147169E+00
         21   -1    0    0  501  502  0.00000000000E+00  0.00000000000E+00  0.64098217315E+03  0.64098217315E+03  0.00000000000E+00 0.  1.
         21   -1    0    0  502  503 -0.00000000000E+00 -0.00000000000E+00 -0.22269641872E+03  0.22269641872E+03  0.00000000000E+00 0.  1.
         -6    2    1    2    0  503  0.87170116515E+02  0.47216925091E+02 -0.15709890289E+03  0.25296458055E+03  0.17170598853E+03 0.  0.
        -24    2    3    3    0    0 -0.58487498488E+01  0.20665602164E+02 -0.12995003751E+03  0.15238310542E+03  0.76631087568E+02 0.  0.
          6    2    1    2  501    0 -0.87170116515E+02 -0.47216925091E+02  0.57538465732E+03  0.61071401132E+03  0.17909782947E+03 0.  0.
         24    2    5    5    0    0 -0.11556357310E+03 -0.68894052426E+02  0.53103055752E+03  0.55356978681E+03  0.79653788105E+02 0.  0.
          5    1    5    5  501    0  0.28393456585E+02  0.21677127335E+02  0.44354099792E+02  0.57144224509E+02  0.47000000000E+01 0. -1.
        -11    1    6    6    0    0 -0.12140629847E+03 -0.41838189535E+02  0.42409960105E+03  0.44311442655E+03  0.00000000000E+00 0.  1.
         12    1    6    6    0    0  0.58427253725E+01 -0.27055862891E+02  0.10693095648E+03  0.11045536026E+03  0.00000000000E+00 0. -1.
         -5    1    3    3    0  503  0.93018866364E+02  0.26551322927E+02 -0.27148865381E+02  0.10058147513E+03  0.47000000000E+01 0.  1.
         13    1    4    4    0    0 -0.78915308886E+01 -0.24555517923E+02 -0.17514059478E+02  0.31176786230E+02  0.00000000000E+00 0. -1.
        -14    1    4    4    0    0  0.20427810398E+01  0.45221120088E+02 -0.11243597803E+03  0.12120631919E+03  0.00000000000E+00 0.  1.
</event>
<event>
12    1  0.8684423E-002  0.1758802E+03  0.7818608E-02  0.1171858E+00
         21   -1    0    0  503  502  0.00000000000E+00  0.00000000000E+00  0.57333509632E+03  0.57333509632E+03  0.00000000000E+00 0.  1.
         21   -1    0    0  501  503 -0.00000000000E+00 -0.00000000000E+00 -0.63170461440E+02  0.63170461440E+02  0.00000000000E+00 0.  1.
          6    2    1    2  501    0  0.37811086250E+02  0.83060304321E+01  0.13348045163E+03  0.22079604390E+03  0.17156687807E+03 0.  0.
         24    2    3    3    0    0  0.40321912503E+02 -0.53511999757E+02  0.11699988169E+03  0.15659735006E+03  0.79651534735E+02 0.  0.
         -6    2    1    2    0  502 -0.37811086250E+02 -0.83060304321E+01  0.37668418325E+03  0.41570951386E+03  0.17153646148E+03 0.  0.
        -24    2    5    5    0    0 -0.17169516360E+02 -0.68721203359E+02  0.18386240929E+03  0.21253866447E+03  0.79686273993E+02 0.  0.
          5    1    3    3  501    0 -0.25108262525E+01  0.61818030189E+02  0.16480569941E+02  0.64198693838E+02  0.47000000000E+01 0. -1.
        -11    1    4    4    0    0  0.55764822947E+01  0.29806568714E+01 -0.10856083821E+02  0.12563280865E+02  0.00000000000E+00 0.  1.
         12    1    4    4    0    0  0.34745430208E+02 -0.56492656628E+02  0.12785596551E+03  0.14403406920E+03  0.00000000000E+00 0. -1.
         -5    1    5    5    0  502 -0.20641569890E+02  0.60415172927E+02  0.19282177396E+03  0.20317084939E+03  0.47000000000E+01 0.  1.
         13    1    6    6    0    0  0.18987974274E+02 -0.18040767039E+02  0.10292952075E+02  0.28141735995E+02  0.00000000000E+00 0. -1.
        -14    1    6    6    0    0 -0.36157490634E+02 -0.50680436320E+02  0.17356945721E+03  0.18439692848E+03  0.00000000000E+00 0.  1.
</event>
<event>
12    1  0.8684423E-002  0.2120769E+03  0.7818608E-02  0.1139964E+00
         21   -1    0    0  503  502  0.00000000000E+00  0.00000000000E+00  0.14533862675E+03  0.14533862675E+03  0.00000000000E+00 0. -1.
         21   -1    0    0  501  503 -0.00000000000E+00 -0.00000000000E+00 -0.40046950959E+03  0.40046950959E+03  0.00000000000E+00 0. -1.
          6    2    1    2  501    0 -0.37585462472E+02 -0.11721510547E+03 -0.25779746404E+03  0.33371450706E+03  0.17249287467E+03 0.  0.
         24    2    3    3    0    0  0.27155469135E+02 -0.11915886265E+03 -0.15779440145E+03  0.21447580132E+03  0.78514598457E+02 0.  0.
         -6    2    1    2    0  502  0.37585462472E+02  0.11721510547E+03  0.26665812035E+01  0.21209362929E+03  0.17269785461E+03 0.  0.
        -24    2    5    5    0    0  0.51378897942E+02  0.41646663897E+02  0.55553542543E+02  0.11871285555E+03  0.81438996896E+02 0.  0.
          5    1    3    3  501    0 -0.64740931607E+02  0.19437571806E+01 -0.10000306259E+03  0.11923870573E+03  0.47000000000E+01 0. -1.
        -13    1    4    4    0    0 -0.79113260364E+00  0.93419148174E+01 -0.41267637613E+00  0.93844320576E+01  0.00000000000E+00 0.  1.
         14    1    4    4    0    0  0.27946601739E+02 -0.12850077747E+03 -0.15738172508E+03  0.20509136927E+03  0.00000000000E+00 0. -1.
         -5    1    5    5    0  502 -0.13793435470E+02  0.75568441577E+02 -0.52886961340E+02  0.93380773739E+02  0.47000000000E+01 0.  1.
         13    1    6    6    0    0  0.63838185310E+01  0.56392872114E+02  0.37575498790E+02  0.68064875476E+02  0.00000000000E+00 0. -1.
        -14    1    6    6    0    0  0.44995079411E+02 -0.14746208217E+02  0.17978043754E+02  0.50647980070E+02  0.00000000000E+00 0.  1.
</event>
<event>
12    1  0.8684423E-002  0.2118961E+03  0.7818608E-02  0.1140234E+00
         21   -1    0    0  501  502  0.00000000000E+00  0.00000000000E+00  0.75796619417E+02  0.75796619417E+02  0.00000000000E+00 0. -1.
         21   -1    0    0  502  503 -0.00000000000E+00 -0.00000000000E+00 -0.61935508125E+03  0.61935508125E+03  0.00000000000E+00 0.  1.
         -6    2    1    2    0  503  0.10929394084E+03  0.58091724741E+02 -0.34783334629E+03  0.40729352299E+03  0.17198884582E+03 0.  0.
        -24    2    3    3    0    0  0.92216135274E+02  0.10331771168E+03 -0.22361752380E+03  0.27391923050E+03  0.76476027200E+02 0.  0.
          6    2    1    2  501    0 -0.10929394084E+03 -0.58091724741E+02 -0.19572511554E+03  0.28785817769E+03  0.17098010299E+03 0.  0.
         24    2    5    5    0    0 -0.10613628704E+03 -0.38902678408E+02 -0.62342039750E+02  0.15298295689E+03  0.82090957868E+02 0.  0.
          5    1    5    5  501    0 -0.31576537923E+01 -0.19189046333E+02 -0.13338307579E+03  0.13487522080E+03  0.47000000000E+01 0. -1.
        -11    1    6    6    0    0 -0.24324161568E+02  0.16405113113E+02 -0.43467181390E+02  0.52442238989E+02  0.00000000000E+00 0.  1.
         12    1    6    6    0    0 -0.81812125476E+02 -0.55307791521E+02 -0.18874858360E+02  0.10054071790E+03  0.00000000000E+00 0. -1.
         -5    1    3    3    0  503  0.17077805562E+02 -0.45225986943E+02 -0.12421582249E+03  0.13337429249E+03  0.47000000000E+01 0.  1.
         11    1    4    4    0    0  0.22254815777E+02 -0.32566311529E+01 -0.74055619082E+02  0.77395847365E+02  0.00000000000E+00 0. -1.
        -12    1    4    4    0    0  0.69961319497E+02  0.10657434284E+03 -0.14956190472E+03  0.19652338314E+03  0.00000000000E+00 0.  1.
</event>
<event>
12    1  0.8684423E-002  0.2751782E+03  0.7818608E-02  0.1098651E+00
         21   -1    0    0  501  502  0.00000000000E+00  0.00000000000E+00  0.11761075957E+03  0.11761075957E+03  0.00000000000E+00 0.  1.
         21   -1    0    0  502  503 -0.00000000000E+00 -0.00000000000E+00 -0.82319085381E+03  0.82319085381E+03  0.00000000000E+00 0. -1.
         -6    2    1    2    0  503  0.20133085192E+03  0.66829150200E+02 -0.13126546314E+03  0.30488303758E+03  0.17527919883E+03 0.  0.
        -24    2    3    3    0    0  0.25013735046E+02 -0.43906343121E+01 -0.53594939980E+02  0.99420672232E+02  0.79794034019E+02 0.  0.
          6    2    1    2  501    0 -0.20133085192E+03 -0.66829150200E+02 -0.57431463110E+03  0.63591857580E+03  0.17191536377E+03 0.  0.
         24    2    5    5    0    0 -0.12183728431E+03 -0.78996128680E+02 -0.49876445341E+03  0.52547772283E+03  0.79222124457E+02 0.  0.
          5    1    5    5  501    0 -0.79493567616E+02  0.12166978480E+02 -0.75550177687E+02  0.11044085298E+03  0.47000000000E+01 0. -1.
        -13    1    6    6    0    0 -0.67360567215E+02 -0.77541608039E+02 -0.24031797854E+03  0.26134819266E+03  0.00000000000E+00 0.  1.
         14    1    6    6    0    0 -0.54476717090E+02 -0.14545206405E+01 -0.25844647487E+03  0.26412953017E+03  0.00000000000E+00 0. -1.
         -5    1    3    3    0  503  0.17631711687E+03  0.71219784512E+02 -0.77670523157E+02  0.20546236535E+03  0.47000000000E+01 0.  1.
         11    1    4    4    0    0  0.33930112858E+02 -0.35486917326E+01 -0.71599484229E+02  0.79311612727E+02  0.00000000000E+00 0. -1.
        -12    1    4    4    0    0 -0.89163778116E+01 -0.84194257949E+00  0.18004544248E+02  0.20109059505E+02  0.00000000000E+00 0.  1.
</event>
<event>
12    1  0.8684423E-002  0.1737337E+03  0.7818608E-02  0.1174099E+00
         21   -1    0    0  503  502  0.00000000000E+00  0.00000000000E+00  0.66905608612E+02  0.66905608612E+02  0.00000000000E+00 0. -1.
         21   -1    0    0  501  503 -0.00000000000E+00 -0.00000000000E+00 -0.46162966737E+03  0.46162966737E+03  0.00000000000E+00 0. -1.
          6    2    1    2  501    0 -0.18199288693E+02 -0.14668153339E+02 -0.15562021763E+03  0.23297812458E+03  0.17179867743E+03 0.  0.
         24    2    3    3    0    0 -0.42060835933E+02  0.49559990679E+02 -0.81054972790E+02  0.13160409606E+03  0.80773899808E+02 0.  0.
         -6    2    1    2    0  502  0.18199288693E+02  0.14668153339E+02 -0.23910384113E+03  0.29555715140E+03  0.17215404169E+03 0.  0.
        -24    2    5    5    0    0  0.58290851918E+02 -0.39365586839E+02 -0.14990309394E+03  0.18372763017E+03  0.79607987486E+02 0.  0.
          5    1    3    3  501    0  0.23861547239E+02 -0.64228144018E+02 -0.74565244839E+02  0.10137402852E+03  0.47000000000E+01 0. -1.
        -11    1    4    4    0    0 -0.42017826490E+01  0.40481469439E+02  0.10756243233E+01  0.40713158967E+02  0.00000000000E+00 0.  1.
         12    1    4    4    0    0 -0.37859053284E+02  0.90785212400E+01 -0.82130597113E+02  0.90890937093E+02  0.00000000000E+00 0. -1.
         -5    1    5    5    0  502 -0.40091563224E+02  0.54033740177E+02 -0.89200747189E+02  0.11182952123E+03  0.47000000000E+01 0.  1.
         11    1    6    6    0    0  0.62479882120E+02 -0.17502677787E+01 -0.62073938164E+02  0.88090708399E+02  0.00000000000E+00 0. -1.
        -12    1    6    6    0    0 -0.41890302018E+01 -0.37615319060E+02 -0.87829155778E+02  0.95636921775E+02  0.00000000000E+00 0.  1.
</event>
<event>
12    1  0.8684423E-002  0.1799109E+03  0.7818608E-02  0.1168047E+00
         21   -1    0    0  503  502  0.00000000000E+00  0.00000000000E+00  0.10013280809E+03  0.10013280809E+03  0.00000000000E+00 0. -1.
         21   -1    0    0  501  503 -0.00000000000E+00 -0.00000000000E+00 -0.47106117234E+03  0.47106117234E+03  0.00000000000E+00 0. -1.
          6    2    1    2  501    0  0.89882774634E+01 -0.56959640943E+02 -0.34630515363E+03  0.39025018058E+03  0.17041934803E+03 0.  0.
         24    2    3    3    0    0 -0.27520912881E+02  0.84306381837E+01 -0.89742175663E+02  0.12293863716E+03  0.78941586679E+02 0.  0.
         -6    2    1    2    0  502 -0.89882774634E+01  0.56959640943E+02 -0.24623210623E+02  0.18094379986E+03  0.16973263203E+03 0.  0.
        -24    2    5    5    0    0 -0.45601760635E+02  0.66327279318E+02 -0.60647600283E+02  0.12852103334E+03  0.79753971919E+02 0.  0.
          5    1    3    3  501    0  0.36509190344E+02 -0.65390279127E+02 -0.25656297796E+03  0.26731154342E+03  0.47000000000E+01 0. -1.
        -11    1    4    4    0    0  0.94172730335E+01 -0.12730397989E+02  0.69478015476E+01  0.17292195080E+02  0.00000000000E+00 0.  1.
         12    1    4    4    0    0 -0.36938185914E+02  0.21161036173E+02 -0.96689977211E+02  0.10564644208E+03  0.00000000000E+00 0. -1.
         -5    1    5    5    0  502  0.36613483171E+02 -0.93676383748E+01  0.36024389660E+02  0.52422766514E+02  0.47000000000E+01 0.  1.
         11    1    6    6    0    0 -0.19962467631E+02  0.33030923911E+02  0.15464945156E+02  0.41577717313E+02  0.00000000000E+00 0. -1.
        -12    1    6    6    0    0 -0.25639293004E+02  0.33296355407E+02 -0.76112545439E+02  0.86943316030E+02  0.00000000000E+00 0.  1.
</event>
<event>
12    1  0.8684423E-002  0.2331773E+03  0.7818608E-02  0.1124482E+00
         21   -1    0    0  503  502  0.00000000000E+00  0.00000000000E+00  0.72195580562E+02  0.72195580562E+02  0.00000000000E+00 0.  1.
         21   -1    0    0  501  503 -0.00000000000E+00 -0.00000000000E+00 -0.76485759397E+03  0.76485759397E+03  0.00000000000E+00 0. -1.
          6    2    1    2  501    0  0.12090836587E+02  0.15640809850E+03 -0.40031059036E+03  0.46309996391E+03  0.17205617169E+03 0.  0.
         24    2    3    3    0    0  0.51117214304E+02  0.12828456669E+03 -0.19359854209E+03  0.25081253588E+03  0.79728495581E+02 0.  0.
         -6    2    1    2    0  502 -0.12090836587E+02 -0.15640809850E+03 -0.29235142305E+03  0.37395321063E+03  0.17251657187E+03 0.  0.
        -24    2    5    5    0    0 -0.87671278046E+01 -0.16393743542E+03 -0.15933431495E+03  0.24059887435E+03  0.74485227759E+02 0.  0.
          5    1    3    3  501    0 -0.39026377718E+02  0.28123531808E+02 -0.20671204827E+03  0.21228742803E+03  0.47000000000E+01 0. -1.
        -11    1    4    4    0    0  0.22157654470E+02  0.62685970175E+02 -0.31519312321E+02  0.73579613736E+02  0.00000000000E+00 0.  1.
         12    1    4    4    0    0  0.28959559834E+02  0.65598596520E+02 -0.16207922977E+03  0.17723292215E+03  0.00000000000E+00 0. -1.
         -5    1    5    5    0  502 -0.33237087820E+01  0.75293369223E+01 -0.13301710811E+03  0.13335433628E+03  0.47000000000E+01 0.  1.
         13    1    6    6    0    0  0.14026681500E+02 -0.10319022463E+03 -0.13677076226E+03  0.17190465864E+03  0.00000000000E+00 0. -1.
        -14    1    6    6    0    0 -0.22793809304E+02 -0.60747210796E+02 -0.22563552690E+02  0.68694215711E+02  0.00000000000E+00 0.  1.
</event>
<event>
12    1  0.8684423E-002  0.1923220E+03  0.7818608E-02  0.1156912E+00
         21   -1    0    0  503  502  0.00000000000E+00  0.00000000000E+00  0.21464163622E+04  0.21464163622E+04  0.00000000000E+00 0. -1.
         21   -1    0    0  501  503 -0.00000000000E+00 -0.00000000000E+00 -0.21154225962E+02  0.21154225962E+02  0.00000000000E+00 0.  1.
          6    2    1    2  501    0  0.30497964421E+02 -0.73418882911E+02  0.58887196712E+03  0.61948200862E+03  0.17512083582E+03 0.  0.
         24    2    3    3    0    0  0.73275598305E+02 -0.94867759186E+02  0.43351116522E+03  0.45685037264E+03  0.80069517100E+02 0.  0.
         -6    2    1    2    0  502 -0.30497964421E+02  0.73418882911E+02  0.15363901691E+04  0.15480885795E+04  0.17251968049E+03 0.  0.
        -24    2    5    5    0    0  0.45518653063E+02  0.22588954760E+02  0.93159084777E+03  0.93639705857E+03  0.79973339298E+02 0.  0.
          5    1    3    3  501    0 -0.42777633883E+02  0.21448876275E+02  0.15536080191E+03  0.16263163598E+03  0.47000000000E+01 0. -1.
        -11    1    4    4    0    0 -0.11093336093E+02 -0.42275607162E+02  0.10846225843E+03  0.11693737884E+03  0.00000000000E+00 0.  1.
         12    1    4    4    0    0  0.84368934398E+02 -0.52592152024E+02  0.32504890679E+03  0.33991299379E+03  0.00000000000E+00 0. -1.
         -5    1    5    5    0  502 -0.76016617485E+02  0.50829928151E+02  0.60479932134E+03  0.61169152096E+03  0.47000000000E+01 0.  1.
         13    1    6    6    0    0 -0.99459117910E+01  0.29717254353E+02  0.53074478372E+03  0.53166912814E+03  0.00000000000E+00 0. -1.
        -14    1    6    6    0    0  0.55464564854E+02 -0.71282995926E+01  0.40084606405E+03  0.40472793043E+03  0.00000000000E+00 0.  1.
</event>
<event>
12    1  0.8684423E-002  0.2127395E+03  0.7818608E-02  0.1140263E+00
         21   -1    0    0  501  502  0.00000000000E+00  0.00000000000E+00  0.15544830792E+03  0.15544830792E+03  0.00000000000E+00 0. -1.
         21   -1    0    0  502  503 -0.00000000000E+00 -0.00000000000E+00 -0.28582220843E+03  0.28582220843E+03  0.00000000000E+00 0. -1.
         -6    2    1    2    0  503 -0.14117237499E+02 -0.12187992644E+03 -0.56233484376E+02  0.22004609515E+03  0.17379317121E+03 0.  0.
        -24    2    3    3    0    0 -0.99297338877E+01 -0.15603206093E+03 -0.59601424481E+02  0.18515574551E+03  0.79282511579E+02 0.  0.
          6    2    1    2  501    0  0.14117237499E+02  0.12187992644E+03 -0.74140416140E+02  0.22122442120E+03  0.16849163293E+03 0.  0.
         24    2    5    5    0    0 -0.46939151904E+02  0.55154329754E+02 -0.77348226443E+01  0.10892134561E+03  0.80986097426E+02 0.  0.
          5    1    5    5  501    0  0.61056389404E+02  0.66725596687E+02 -0.66405593495E+02  0.11230307559E+03  0.47000000000E+01 0. -1.
        -11    1    6    6    0    0  0.24895132782E+00  0.27029413321E+02  0.31430722812E+02  0.41455295171E+02  0.00000000000E+00 0.  1.
         12    1    6    6    0    0 -0.47188103232E+02  0.28124916433E+02 -0.39165545457E+02  0.67466050440E+02  0.00000000000E+00 0. -1.
         -5    1    3    3    0  503 -0.41875036115E+01  0.34152134493E+02  0.33679401050E+01  0.34890349632E+02  0.47000000000E+01 0.  1.
         11    1    4    4    0    0  0.23370110731E+02 -0.46086849432E+02 -0.46532527806E+02  0.69537298698E+02  0.00000000000E+00 0. -1.
        -12    1    4    4    0    0 -0.33299844619E+02 -0.10994521150E+03 -0.13068896675E+02  0.11561844682E+03  0.00000000000E+00 0.  1.
</event>
<event>
12    1  0.8684423E-002  0.1921399E+03  0.7818608E-02  0.1157296E+00
         21   -1    0    0  503  502  0.00000000000E+00  0.00000000000E+00  0.14384385996E+04  0.14384385996E+04  0.00000000000E+00 0. -1.
         21   -1    0    0  501  503 -0.00000000000E+00 -0.00000000000E+00 -0.51225028791E+02  0.51225028791E+02  0.00000000000E+00 0. -1.
          6    2    1    2  501    0  0.33974781579E+02  0.68011715626E+02  0.15992034306E+03  0.24742114298E+03  0.17280864162E+03 0.  0.
         24    2    3    3    0    0  0.75193115965E+01  0.10716031463E+03  0.14509103441E+03  0.19767676549E+03  0.80528394199E+02 0.  0.
         -6    2    1    2    0  502 -0.33974781579E+02 -0.68011715626E+02  0.12272932277E+04  0.12422424854E+04  0.17645919205E+03 0.  0.
        -24    2    5    5    0    0  0.21684170434E+02 -0.99007870136E+02  0.92023701306E+03  0.92861166819E+03  0.72185237466E+02 0.  0.
          5    1    3    3  501    0  0.26455469983E+02 -0.39148599003E+02  0.14829308658E+02  0.49744377483E+02  0.47000000000E+01 0. -1.
        -11    1    4    4    0    0 -0.92366052270E+01  0.56386507059E+02  0.13018284321E+03  0.14217005915E+03  0.00000000000E+00 0.  1.
         12    1    4    4    0    0  0.16755916823E+02  0.50773807570E+02  0.14908191200E+02  0.55506706339E+02  0.00000000000E+00 0. -1.
         -5    1    5    5    0  502 -0.55658952013E+02  0.30996154510E+02  0.30705621468E+03  0.31363081722E+03  0.47000000000E+01 0.  1.
         13    1    6    6    0    0  0.44426415288E+02 -0.59313768268E+02  0.43962280927E+03  0.44582512705E+03  0.00000000000E+00 0. -1.
        -14    1    6    6    0    0 -0.22742244854E+02 -0.39694101867E+02  0.48061420378E+03  0.48278654114E+03  0.00000000000E+00 0.  1.
</event>
<event>
12    1  0.8684423E-002  0.3424868E+03  0.7818608E-02  0.1065787E+00
         21   -1    0    0  501  502  0.00000000000E+00  0.00000000000E+00  0.35897145247E+03  0.35897145247E+03  0.00000000000E+00 0. -1.
         21   -1    0    0  502  503 -0.00000000000E+00 -0.00000000000E+00 -0.33719489454E+03  0.33719489454E+03  0.00000000000E+00 0.  1.
         -6    2    1    2    0  503 -0.29400545070E+03 -0.26262250301E+02 -0.51540581286E+02  0.34591984757E+03  0.17284443466E+03 0.  0.
        -24    2    3    3    0    0 -0.72776027174E+02  0.15324829815E+02 -0.37736922013E+02  0.12034375381E+03  0.86760263130E+02 0.  0.
          6    2    1    2  501    0  0.29400545070E+03  0.26262250301E+02  0.73317139220E+02  0.35024649944E+03  0.17369023185E+03 0.  0.
         24    2    5    5    0    0  0.20766656810E+03 -0.55611034894E+01  0.11325329605E+03  0.24982680458E+03  0.80192230558E+02 0.  0.
          5    1    5    5  501    0  0.86338882593E+02  0.31823353791E+02 -0.39936156829E+02  0.10041969486E+03  0.47000000000E+01 0. -1.
        -11    1    6    6    0    0  0.82182374036E+02 -0.20243387747E+02  0.73251300808E+01  0.84955252223E+02  0.00000000000E+00 0.  1.
         12    1    6    6    0    0  0.12548419407E+03  0.14682284257E+02  0.10592816597E+03  0.16487155236E+03  0.00000000000E+00 0. -1.
         -5    1    3    3    0  503 -0.22122942352E+03 -0.41587080116E+02 -0.13803659274E+02  0.22557609376E+03  0.47000000000E+01 0.  1.
         11    1    4    4    0    0 -0.44942407628E+02  0.10043293597E+02  0.24354610618E+02  0.52094479630E+02  0.00000000000E+00 0. -1.
        -12    1    4    4    0    0 -0.27833619547E+02  0.52815362184E+01 -0.62091532631E+02  0.68249274181E+02  0.00000000000E+00 0.  1.
</event>
<event>
12    1  0.8684423E-002  0.1875091E+03  0.7818608E-02  0.1160804E+00
         21   -1    0    0  501  502  0.00000000000E+00  0.00000000000E+00  0.18160393291E+04  0.18160393291E+04  0.00000000000E+00 0. -1.
         21   -1    0    0  502  503 -0.00000000000E+00 -0.00000000000E+00 -0.51725095193E+02  0.51725095193E+02  0.00000000000E+00 0. -1.
         -6    2    1    2    0  503 -0.49569421530E+02 -0.54613437439E+02  0.14275693349E+03  0.23540179966E+03  0.17203113127E+03 0.  0.
        -24    2    3    3    0    0  0.22673817928E+02 -0.19225235723E+02  0.12681469912E+03  0.15325768664E+03  0.80760379478E+02 0.  0.
          6    2    1    2  501    0  0.49569421530E+02  0.54613437439E+02  0.16215573005E+04  0.16323626247E+04  0.17239461894E+03 0.  0.
         24    2    5    5    0    0  0.64568575732E+02 -0.22172238982E+02  0.76723534974E+03  0.77445289736E+03  0.80414545847E+02 0.  0.
          5    1    5    5  501    0 -0.14999154202E+02  0.76785676420E+02  0.85432195072E+03  0.85790972731E+03  0.47000000000E+01 0. -1.
        -13    1    6    6    0    0  0.54349810341E+01 -0.23960156079E+02  0.61261314916E+02  0.66004369578E+02  0.00000000000E+00 0.  1.
         14    1    6    6    0    0  0.59133594698E+02  0.17879170970E+01  0.70597403482E+03  0.70844852778E+03  0.00000000000E+00 0. -1.
         -5    1    3    3    0  503 -0.72243239458E+02 -0.35388201716E+02  0.15942234368E+02  0.82144113025E+02  0.47000000000E+01 0.  1.
         13    1    4    4    0    0  0.44324368224E+02 -0.82610689180E+01  0.31751720593E+02  0.55145866923E+02  0.00000000000E+00 0. -1.
        -14    1    4    4    0    0 -0.21650550295E+02 -0.10964166805E+02  0.95062978525E+02  0.98111819716E+02  0.00000000000E+00 0.  1.
</event>
<event>
12    1  0.8684423E-002  0.2864503E+03  0.7818608E-02  0.1093200E+00
         21   -1    0    0  503  502  0.00000000000E+00  0.00000000000E+00  0.12572811303E+04  0.12572811303E+04  0.00000000000E+00 0. -1.
         21   -1    0    0  501  503 -0.00000000000E+00 -0.00000000000E+00 -0.19269161499E+03  0.19269161499E+03  0.00000000000E+00 0.  1.
          6    2    1    2  501    0 -0.22934053151E+03  0.11973239540E+02 -0.63341390652E+02  0.28623655366E+03  0.15867827521E+03 0.  0.
         24    2    3    3    0    0 -0.24120550653E+03  0.28874222760E+02 -0.68526175966E+02  0.26443304787E+03  0.78836431256E+02 0.  0.
         -6    2    1    2    0  502  0.22934053151E+03 -0.11973239540E+02  0.11279309059E+04  0.11637361916E+04  0.17121144006E+03 0.  0.
        -24    2    5    5    0    0  0.90049940386E+02 -0.62567701464E+02  0.52045774425E+03  0.53843034602E+03  0.83709407637E+02 0.  0.
          5    1    3    3  501    0  0.11864975019E+02 -0.16900983220E+02  0.51847853136E+01  0.21803505790E+02  0.47000000000E+01 0. -1.
        -13    1    4    4    0    0 -0.18010784349E+03 -0.13873687717E+02 -0.53131147959E+02  0.18829294565E+03  0.00000000000E+00 0.  1.
         14    1    4    4    0    0 -0.61097663040E+02  0.42747910477E+02 -0.15395028007E+02  0.76140102222E+02  0.00000000000E+00 0. -1.
         -5    1    5    5    0  502  0.13929059112E+03  0.50594461924E+02  0.60747316167E+03  0.62530584557E+03  0.47000000000E+01 0.  1.
         13    1    6    6    0    0 -0.59423967889E+01 -0.19093106425E+02  0.20206866130E+03  0.20305566398E+03  0.00000000000E+00 0. -1.
        -14    1    6    6    0    0  0.95992337174E+02 -0.43474595039E+02  0.31838908295E+03  0.33537468204E+03  0.00000000000E+00 0.  1.
</event>
<event>
12    1  0.8684423E-002  0.1882053E+03  0.7818608E-02  0.1160657E+00
         21   -1    0    0  503  502  0.00000000000E+00  0.00000000000E+00  0.33222261271E+03  0.33222261271E+03  0.00000000000E+00 0. -1.
         21   -1    0    0  501  503 -0.00000000000E+00 -0.00000000000E+00 -0.36796309959E+03  0.36796309959E+03  0.00000000000E+00 0. -1.
          6    2    1    2  501    0  0.58018628274E+02 -0.39336479105E+02 -0.31373210011E+03  0.36585388411E+03  0.17466457587E+03 0.  0.
         24    2    3    3    0    0  0.70171132689E+02  0.12573966512E+02 -0.28631952323E+03  0.30572138791E+03  0.80028776996E+02 0.  0.
         -6    2    1    2    0  502 -0.58018628274E+02  0.39336479105E+02  0.27799161324E+03  0.33433182819E+03  0.17200265839E+03 0.  0.
        -24    2    5    5    0    0 -0.44052877750E+02 -0.96236412990E+01  0.26430996059E+03  0.28140345020E+03  0.85410046277E+02 0.  0.
          5    1    3    3  501    0 -0.12152504415E+02 -0.51910445617E+02 -0.27412576879E+02  0.60132496197E+02  0.47000000000E+01 0. -1.
        -11    1    4    4    0    0  0.15129832211E+02 -0.31481232906E+02 -0.70491041820E+02  0.78669986812E+02  0.00000000000E+00 0.  1.
         12    1    4    4    0    0  0.55041300478E+02  0.44055199418E+02 -0.21582848141E+03  0.22705140110E+03  0.00000000000E+00 0. -1.
         -5    1    5    5    0  502 -0.13965750525E+02  0.48960120404E+02  0.13681652649E+02  0.52928377992E+02  0.47000000000E+01 0.  1.
         13    1    6    6    0    0 -0.86529094259E+01  0.24514822997E+02  0.19321693256E+03  0.19495802732E+03  0.00000000000E+00 0. -1.
        -14    1    6    6    0    0 -0.35399968324E+02 -0.34138464296E+02  0.71093028027E+02  0.86445422874E+02  0.00000000000E+00 0.  1.
</event>
<event>
12    1  0.8684423E-002  0.1890512E+03  0.7818608E-02  0.1159761E+00
         21   -1    0    0  503  502  0.00000000000E+00  0.00000000000E+00  0.16704845695E+03  0.16704845695E+03  0.00000000000E+00 0.  1.
         21   -1    0    0  501  503 -0.00000000000E+00 -0.00000000000E+00 -0.37384813712E+03  0.37384813712E+03  0.00000000000E+00 0. -1.
          6    2    1    2  501    0  0.72687704662E+02  0.28903284452E+02 -0.28177104479E+03  0.33931587317E+03  0.17210879653E+03 0.  0.
         24    2    3    3    0    0  0.37856094812E+02  0.85097016717E+02 -0.17852479926E+03  0.21662580102E+03  0.79881459329E+02 0.  0.
         -6    2    1    2    0  502 -0.72687704662E+02 -0.28903284452E+02  0.74971364621E+02  0.20158072090E+03  0.16998582078E+03 0.  0.
        -24    2    5    5    0    0 -0.46759613005E+02  0.12121022806E+02 -0.20376907546E+02  0.94488971791E+02  0.78610220879E+02 0.  0.
          5    1    3    3  501    0  0.34831609850E+02 -0.56193732264E+02 -0.10324624553E+03  0.12269007216E+03  0.47000000000E+01 0. -1.
        -13    1    4    4    0    0  0.15966401097E+02  0.78417060559E+00  0.20715408264E+01  0.16119310436E+02  0.00000000000E+00 0.  1.
         14    1    4    4    0    0  0.21889693715E+02  0.84312846111E+02 -0.18059634009E+03  0.20050649058E+03  0.00000000000E+00 0. -1.
         -5    1    5    5    0  502 -0.25928091657E+02 -0.41024307258E+02  0.95348272167E+02  0.10709174911E+03  0.47000000000E+01 0.  1.
         11    1    6    6    0    0  0.10609428833E+02  0.16830276590E+00 -0.32896628001E+02  0.34565538327E+02  0.00000000000E+00 0. -1.
        -12    1    6    6    0    0 -0.57369041838E+02  0.11952720040E+02  0.12519720456E+02  0.59923433464E+02  0.00000000000E+00 0.  1.
</event>
<event>
12    1  0.8684423E-002  0.2043928E+03  0.7818608E-02  0.1146348E+00
         21   -1    0    0  501  502  0.00000000000E+00  0.00000000000E+00  0.78474023864E+03  0.78474023864E+03  0.00000000000E+00 0. -1.
         21   -1    0    0  502  503 -0.00000000000E+00 -0.00000000000E+00 -0.54226214518E+02  0.54226214518E+02  0.00000000000E+00 0. -1.
         -6    2    1    2    0  503  0.73374805054E+02  0.82374541629E+02  0.30085753696E+03  0.36371920221E+03  0.17206677015E+03 0.  0.
        -24    2    3    3    0    0  0.20789992353E+02  0.75647723856E+02  0.28670740732E+03  0.30864898546E+03  0.83115924510E+02 0.  0.
          6    2    1    2  501    0 -0.73374805054E+02 -0.82374541629E+02  0.42965648717E+03  0.47524725095E+03  0.17054566967E+03 0.  0.
         24    2    5    5    0    0 -0.73273915031E+02 -0.10897326058E+03  0.41845607097E+03  0.44600616082E+03  0.81066479015E+02 0.  0.
          5    1    5    5  501    0 -0.10089002356E+00  0.26598718949E+02  0.11200416199E+02  0.29241090123E+02  0.47000000000E+01 0. -1.
        -11    1    6    6    0    0 -0.84617745865E+02 -0.64800552705E+02  0.25676363119E+03  0.27800510220E+03  0.00000000000E+00 0.  1.
         12    1    6    6    0    0  0.11343830835E+02 -0.44172707873E+02  0.16169243978E+03  0.16800105863E+03  0.00000000000E+00 0. -1.
         -5    1    3    3    0  503  0.52584812701E+02  0.67268177729E+01  0.14150129636E+02  0.55070216749E+02  0.47000000000E+01 0.  1.
         11    1    4    4    0    0  0.30539470986E+02  0.74801397426E+02  0.28768392796E+03  0.29881424121E+03  0.00000000000E+00 0. -1.
        -12    1    4    4    0    0 -0.97494786328E+01  0.84632643026E+00 -0.97652063165E+00  0.98347442560E+01  0.00000000000E+00 0.  1.
</event>
<event>
12    1  0.8684423E-002  0.2129425E+03  0.7818608E-02  0.1139465E+00
         21   -1    0    0  503  502  0.00000000000E+00  0.00000000000E+00  0.76895941325E+03  0.76895941325E+03  0.00000000000E+00 0. -1.
         21   -1    0    0  501  503 -0.00000000000E+00 -0.00000000000E+00 -0.59129068504E+02  0.59129068504E+02  0.00000000000E+00 0.  1.
          6    2    1    2  501    0  0.10752440705E+03 -0.65351876401E+02  0.31768615495E+03  0.38185808273E+03  0.17046623254E+03 0.  0.
         24    2    3    3    0    0  0.16709907986E+02 -0.53313213114E+02  0.92209505346E+02  0.13843661249E+03  0.86836530823E+02 0.  0.
         -6    2    1    2    0  502 -0.10752440705E+03  0.65351876401E+02  0.39214418980E+03  0.44623039903E+03  0.17179097055E+03 0.  0.
        -24    2    5    5    0    0 -0.85628808419E+02  0.34313919434E+02  0.38921331453E+03  0.40784482827E+03  0.79628272902E+02 0.  0.
          5    1    3    3  501    0  0.90814499067E+02 -0.12038663287E+02  0.22547664960E+03  0.24342147023E+03  0.47000000000E+01 0. -1.
        -11    1    4    4    0    0  0.29862956735E+02 -0.36996633296E+02  0.39343739409E+01  0.47707718018E+02  0.00000000000E+00 0.  1.
         12    1    4    4    0    0 -0.13153048748E+02 -0.16316579817E+02  0.88275131405E+02  0.90728894476E+02  0.00000000000E+00 0. -1.
         -5    1    5    5    0  502 -0.21895598635E+02  0.31037956967E+02  0.29308752716E+01  0.38385570754E+02  0.47000000000E+01 0.  1.
         13    1    6    6    0    0 -0.47643907872E+01  0.37912240398E+02  0.87848003108E+02  0.95798272645E+02  0.00000000000E+00 0. -1.
        -14    1    6    6    0    0 -0.80864417631E+02 -0.35983209645E+01  0.30136531142E+03  0.31204655563E+03  0.00000000000E+00 0.  1.
</event>
<event>
12    1  0.8684423E-002  0.1797151E+03  0.7818608E-02  0.1168466E+00
         21   -1    0    0  501  502  0.00000000000E+00  0.00000000000E+00  0.62302478157E+02  0.62302478157E+02  0.00000000000E+00 0.  1.
         21   -1    0    0  502  503 -0.00000000000E+00 -0.00000000000E+00 -0.57365914669E+03  0.57365914669E+03  0.00000000000E+00 0.  1.
         -6    2    1    2    0  503 -0.95702278675E+01 -0.50788426568E+02 -0.35939049249E+03  0.40181966389E+03  0.17212339370E+03 0.  0.
        -24    2    3    3    0    0  0.11965702737E+02 -0.32869055675E+02 -0.36280907067E+03  0.37320713451E+03  0.80184728132E+02 0.  0.
          6    2    1    2  501    0  0.95702278675E+01  0.50788426568E+02 -0.15196617605E+03  0.23414196096E+03  0.17046315053E+03 0.  0.
         24    2    5    5    0    0  0.55845103382E+02  0.65793601897E+02 -0.14271992466E+03  0.18440160959E+03  0.78660683316E+02 0.  0.
          5    1    5    5  501    0 -0.46274875515E+02 -0.15005175329E+02 -0.92462513833E+01  0.49740351378E+02  0.47000000000E+01 0. -1.
        -13    1    6    6    0    0  0.27654827744E+01 -0.11574438879E+02 -0.53917659536E+02  0.55215301685E+02  0.00000000000E+00 0.  1.
         14    1    6    6    0    0  0.53079620608E+02  0.77368040776E+02 -0.88802265126E+02  0.12918630790E+03  0.00000000000E+00 0. -1.
         -5    1    3    3    0  503 -0.21535930605E+02 -0.17919370894E+02  0.34185781852E+01  0.28612529372E+02  0.47000000000E+01 0.  1.
         13    1    4    4    0    0 -0.15107657169E+01  0.18883213917E+02 -0.21829659482E+03  0.21911700411E+03  0.00000000000E+00 0. -1.
        -14    1    4    4    0    0  0.13476468454E+02 -0.51752269591E+02 -0.14451247585E+03  0.15409013040E+03  0.00000000000E+00 0.  1.
</event>
<event>
12    1  0.8684423E-002  0.2011025E+03  0.7818608E-02  0.1149275E+00
         21   -1    0    0  503  502  0.00000000000E+00  0.00000000000E+00  0.13045857344E+04  0.13045857344E+04  0.00000000000E+00 0.  1.
         21   -1    0    0  501  503 -0.00000000000E+00 -0.00000000000E+00 -0.57136069903E+02  0.57136069903E+02  0.00000000000E+00 0. -1.
          6    2    1    2  501    0 -0.64807782514E+02  0.78654797400E+02  0.15843486755E+03  0.25429440564E+03  0.17081396797E+03 0.  0.
         24    2    3    3    0    0 -0.22707385196E+02  0.30189680907E+02  0.16700942819E+03  0.18935655796E+03  0.80849952128E+02 0.  0.
         -6    2    1    2    0  502  0.64807782514E+02 -0.78654797400E+02  0.10890147969E+04  0.11074273987E+04  0.17336547959E+03 0.  0.
        -24    2    5    5    0    0  0.49446599397E+02 -0.10954481384E+03  0.10199314924E+04  0.10300662196E+04  0.79568430274E+02 0.  0.
          5    1    3    3  501    0 -0.42100397319E+02  0.48465116494E+02 -0.85745606478E+01  0.64937847681E+02  0.47000000000E+01 0. -1.
        -11    1    4    4    0    0  0.25130710389E+02 -0.94695704966E+01  0.57012638678E+02  0.63021157869E+02  0.00000000000E+00 0.  1.
         12    1    4    4    0    0 -0.47838095585E+02  0.39659251403E+02  0.10999678952E+03  0.12633540009E+03  0.00000000000E+00 0. -1.
         -5    1    5    5    0  502  0.15361183117E+02  0.30890016437E+02  0.69083304532E+02  0.77361179071E+02  0.47000000000E+01 0.  1.
         11    1    6    6    0    0 -0.29684023123E+01 -0.78130012581E+02  0.43688208566E+03  0.44382323852E+03  0.00000000000E+00 0. -1.
        -12    1    6    6    0    0  0.52415001710E+02 -0.31414801257E+02  0.58304940676E+03  0.58624298108E+03  0.00000000000E+00 0.  1.
</event>
<event>
12    1  0.8684423E-002  0.2017563E+03  0.7818608E-02  0.1148657E+00
         21   -1    0    0  503  502  0.00000000000E+00  0.00000000000E+00  0.49199059301E+02  0.49199059301E+02  0.00000000000E+00 0. -1.
         21   -1    0    0  501  503 -0.00000000000E+00 -0.00000000000E+00 -0.11988874583E+04  0.11988874583E+04  0.00000000000E+00 0. -1.
          6    2    1    2  501    0  0.24076615463E+02 -0.10221014803E+03 -0.92395954810E+03  0.94533394093E+03  0.17008355465E+03 0.  0.
         24    2    3    3    0    0  0.12916466413E+02 -0.13357351809E+03 -0.60047057974E+03  0.62010261931E+03  0.77159714227E+02 0.  0.
         -6    2    1    2    0  502 -0.24076615463E+02  0.10221014803E+03 -0.22572885086E+03  0.30275257664E+03  0.17227597273E+03 0.  0.
        -24    2    5    5    0    0 -0.16630842034E+02  0.25611501681E+02 -0.20600754109E+03  0.22316732534E+03  0.80199839087E+02 0.  0.
          5    1    3    3  501    0  0.11160149050E+02  0.31363370060E+02 -0.32348896837E+03  0.32523132162E+03  0.47000000000E+01 0. -1.
        -11    1    4    4    0    0 -0.15852713903E+02 -0.93550174171E+02 -0.49047000551E+03  0.49956357947E+03  0.00000000000E+00 0.  1.
         12    1    4    4    0    0  0.28769180316E+02 -0.40023343922E+02 -0.11000057423E+03  0.12053903984E+03  0.00000000000E+00 0. -1.
         -5    1    5    5    0  502 -0.74457734295E+01  0.76598646352E+02 -0.19721309769E+02  0.79585251297E+02  0.47000000000E+01 0.  1.
         11    1    6    6    0    0 -0.47296018603E+02  0.26589953386E+02 -0.14632221095E+03  0.15605809307E+03  0.00000000000E+00 0. -1.
        -12    1    6    6    0    0  0.30665176569E+02 -0.97845170517E+00 -0.59685330144E+02  0.67109232272E+02  0.00000000000E+00 0.  1.
</event>
<event>
12    1  0.8684423E-002  0.2296269E+03  0.7818608E-02  0.1127015E+00
         21   -1    0    0  501  502  0.00000000000E+00  0.00000000000E+00  0.15119237271E+03  0.15119237271E+03  0.00000000000E+00 0.  1.
         21   -1    0    0  502  503 -0.00000000000E+00 -0.00000000000E+00 -0.35201683612E+03  0.35201683612E+03  0.00000000000E+00 0.  1.
         -6    2    1    2    0  503 -0.13094803924E+03 -0.78009780073E+02 -0.72965434871E+02  0.24094078327E+03  0.17174280652E+03 0.  0.
        -24    2    3    3    0    0 -0.77025387412E+01  0.34362903243E+00 -0.61026578594E+01  0.80250301101E+02  0.79645597554E+02 0.  0.
          6    2    1    2  501    0  0.13094803924E+03  0.78009780073E+02 -0.12785902854E+03  0.26226842556E+03  0.17089143075E+03 0.  0.
         24    2    5    5    0    0  0.15418895925E+03  0.36641049730E+02 -0.93472006336E+02  0.20348008055E+03  0.86892609194E+02 0.  0.
          5    1    5    5  501    0 -0.23240920016E+02  0.41368730342E+02 -0.34387022201E+02  0.58788345012E+02  0.47000000000E+01 0. -1.
        -13    1    6    6    0    0  0.16772366055E+02 -0.24848560114E+02 -0.19288001149E+02  0.35648144288E+02  0.00000000000E+00 0.  1.
         14    1    6    6    0    0  0.13741659320E+03  0.61489609844E+02 -0.74184005187E+02  0.16783193627E+03  0.00000000000E+00 0. -1.
         -5    1    3    3    0  503 -0.12324550049E+03 -0.78353409105E+02 -0.66862777012E+02  0.16069048217E+03  0.47000000000E+01 0.  1.
         11    1    4    4    0    0  0.55689008012E+01 -0.63509116475E+01 -0.41241101967E+02  0.42097211622E+02  0.00000000000E+00 0. -1.
        -12    1    4    4    0    0 -0.13271439542E+02  0.66945406800E+01  0.35138444108E+02  0.38153089478E+02  0.00000000000E+00 0.  1.
</event>
<event>
12    1  0.8684423E-002  0.2180358E+03  0.7818608E-02  0.1135608E+00
         21   -1    0    0  501  502  0.00000000000E+00  0.00000000000E+00  0.13366310122E+03  0.13366310122E+03  0.00000000000E+00 0. -1.
         21   -1    0    0  502  503 -0.00000000000E+00 -0.00000000000E+00 -0.44116733842E+03  0.44116733842E+03  0.00000000000E+00 0.  1.
         -6    2    1    2    0  503 -0.88104466286E+02  0.99008643760E+02 -0.28225738413E+03  0.35666347572E+03  0.17313143995E+03 0.  0.
        -24    2    3    3    0    0 -0.71613213295E+02  0.13048676731E+03 -0.17284189783E+03  0.24152585229E+03  0.79405081190E+02 0.  0.
          6    2    1    2  501    0  0.88104466286E+02 -0.99008643760E+02 -0.25246853065E+02  0.21816696392E+03  0.17144769476E+03 0.  0.
         24    2    5    5    0    0  0.60253548738E+02 -0.13440417068E+03 -0.16692038091E+01  0.16711294862E+03  0.78923888163E+02 0.  0.
          5    1    5    5  501    0  0.27850917548E+02  0.35395526921E+02 -0.23577649256E+02  0.51054015304E+02  0.47000000000E+01 0. -1.
        -11    1    6    6    0    0 -0.70506604001E+01 -0.48061694184E+02 -0.25810236594E+02  0.55007331992E+02  0.00000000000E+00 0.  1.
         12    1    6    6    0    0  0.67304209138E+02 -0.86342476497E+02  0.24141032784E+02  0.11210561663E+03  0.00000000000E+00 0. -1.
         -5    1    3    3    0  503 -0.16491252991E+02 -0.31478123546E+02 -0.10941548629E+03  0.11513762343E+03  0.47000000000E+01 0.  1.
         11    1    4    4    0    0 -0.31062905457E+02 -0.98741331426E+00 -0.33860406207E+02  0.45960920237E+02  0.00000000000E+00 0. -1.
        -12    1    4    4    0    0 -0.40550307838E+02  0.13147418062E+03 -0.13898149162E+03  0.19556493205E+03  0.00000000000E+00 0.  1.
</event>
<event>
12    1  0.8684423E-002  0.1780755E+03  0.7818608E-02  0.1170336E+00
         21   -1    0    0  503  502  0.00000000000E+00  0.00000000000E+00  0.13108886374E+03  0.13108886374E+03  0.00000000000E+00 0.  1.
         21   -1    0    0  501  503 -0.00000000000E+00 -0.00000000000E+00 -0.41383030452E+03  0.41383030452E+03  0.00000000000E+00 0.  1.
          6    2    1    2  501    0  0.34082758446E+02  0.31364755269E+01 -0.31819823368E+03  0.36334805822E+03  0.17204715514E+03 0.  0.
         24    2    3    3    0    0 -0.70497564103E+01 -0.15388772853E+02 -0.30593582318E+03  0.31636374895E+03  0.78757732012E+02 0.  0.
         -6    2    1    2    0  502 -0.34082758446E+02 -0.31364755269E+01  0.35456792902E+02  0.18157111004E+03  0.17475529158E+03 0.  0.
        -24    2    5    5    0    0  0.40567401660E+02 -0.38425961934E+02 -0.64033125096E+01  0.88876165840E+02  0.68816435648E+02 0.  0.
          5    1    3    3  501    0  0.41132514857E+02  0.18525248380E+02 -0.12262410499E+02  0.46984309266E+02  0.47000000000E+01 0. -1.
        -13    1    4    4    0    0 -0.12372588580E+02  0.30891716450E+02 -0.14833770859E+03  0.15202452067E+03  0.00000000000E+00 0.  1.
         14    1    4    4    0    0  0.53228321695E+01 -0.46280489303E+02 -0.15759811459E+03  0.16433922829E+03  0.00000000000E+00 0. -1.
         -5    1    5    5    0  502 -0.74650160106E+02  0.35289486407E+02  0.41860105411E+02  0.92694944198E+02  0.47000000000E+01 0.  1.
         11    1    6    6    0    0  0.25302739443E+02  0.13314258927E+02 -0.17882158963E+02  0.33723429886E+02  0.00000000000E+00 0. -1.
        -12    1    6    6    0    0  0.15264662217E+02 -0.51740220861E+02  0.11478846453E+02  0.55152735954E+02  0.00000000000E+00 0.  1.
</event>
<event>
12    1  0.8684423E-002  0.1823360E+03  0.7818608E-02  0.1167441E+00
         21   -1    0    0  501  502  0.00000000000E+00  0.00000000000E+00  0.63492048460E+02  0.63492048460E+02  0.00000000000E+00 0.  1.
         21   -1    0    0  502  503 -0.00000000000E+00 -0.00000000000E+00 -0.53659267795E+03  0.53659267795E+03  0.00000000000E+00 0.  1.
         -6    2    1    2    0  503  0.24729200710E+02  0.16971043232E+02 -0.31783305340E+03  0.36642089796E+03  0.17985236987E+03 0.  0.
        -24    2    3    3    0    0 -0.18467948153E+02  0.17782168756E+02 -0.56464845188E+02  0.10146414326E+03  0.80308299637E+02 0.  0.
          6    2    1    2  501    0 -0.24729200710E+02 -0.16971043232E+02 -0.15526757608E+03  0.23366382845E+03  0.17202097217E+03 0.  0.
         24    2    5    5    0    0 -0.59634336833E+01  0.54514832046E+02 -0.11066666245E+03  0.14721317274E+03  0.80107294269E+02 0.  0.
          5    1    5    5  501    0 -0.18765767027E+02 -0.71485875278E+02 -0.44600913635E+02  0.86450655714E+02  0.47000000000E+01 0. -1.
        -11    1    6    6    0    0 -0.33980469268E+02 -0.19389406510E+01 -0.37353122621E+02  0.50534023707E+02  0.00000000000E+00 0.  1.
         12    1    6    6    0    0  0.28017035585E+02  0.56453772697E+02 -0.73313539828E+02  0.96679149029E+02  0.00000000000E+00 0. -1.
         -5    1    3    3    0  503  0.43197148863E+02 -0.81112552461E+00 -0.26136820821E+03  0.26495675470E+03  0.47000000000E+01 0.  1.
         13    1    4    4    0    0 -0.31040483824E+02  0.28085079343E+02 -0.69158309551E+02  0.80840306145E+02  0.00000000000E+00 0. -1.
        -14    1    4    4    0    0  0.12572535670E+02 -0.10302910587E+02  0.12693464363E+02  0.20623837114E+02  0.00000000000E+00 0.  1.
</event>
<event>
12    1  0.8684423E-002  0.2617011E+03  0.7818608E-02  0.1106427E+00
         21   -1    0    0  501  502  0.00000000000E+00  0.00000000000E+00  0.71995680165E+02  0.71995680165E+02  0.00000000000E+00 0.  1.
         21   -1    0    0  502  503 -0.00000000000E+00 -0.00000000000E+00 -0.10788302826E+04  0.10788302826E+04  0.00000000000E+00 0.  1.
         -6    2    1    2    0  503 -0.88333904517E+02  0.17586466874E+03 -0.70858196595E+03  0.75536471628E+03  0.17249983115E+03 0.  0.
        -24    2    3    3    0    0 -0.11944843604E+03  0.12258059962E+03 -0.42332268022E+03  0.46347046114E+03  0.79428234808E+02 0.  0.
          6    2    1    2  501    0  0.88333904517E+02 -0.17586466874E+03 -0.29825263647E+03  0.39546124647E+03  0.16942166890E+03 0.  0.
         24    2    5    5    0    0  0.74874605922E+02 -0.31178622745E+02 -0.10564157477E+03  0.15413922983E+03  0.77591537703E+02 0.  0.
          5    1    5    5  501    0  0.13459298595E+02 -0.14468604599E+03 -0.19261106170E+03  0.24132201664E+03  0.47000000000E+01 0. -1.
        -13    1    6    6    0    0  0.60917182316E+02 -0.33025138258E+02 -0.27194204569E+02  0.74438482121E+02  0.00000000000E+00 0.  1.
         14    1    6    6    0    0  0.13957423606E+02  0.18465155123E+01 -0.78447370203E+02  0.79700747706E+02  0.00000000000E+00 0. -1.
         -5    1    3    3    0  503  0.31114531527E+02  0.53284069123E+02 -0.28525928572E+03  0.29189425514E+03  0.47000000000E+01 0.  1.
         11    1    4    4    0    0 -0.21953237679E+02 -0.78765108470E+01 -0.31895498746E+02  0.39513376317E+02  0.00000000000E+00 0. -1.
        -12    1    4    4    0    0 -0.97495198366E+02  0.13045711046E+03 -0.39142718148E+03  0.42395708483E+03  0.00000000000E+00 0.  1.
</event>
<event>
12    1  0.8684423E-002  0.1812737E+03  0.7818608E-02  0.1167319E+00
         21   -1    0    0  501  502  0.00000000000E+00  0.00000000000E+00  0.17114996260E+04  0.17114996260E+04  0.00000000000E+00 0. -1.
         21   -1    0    0  502  503 -0.00000000000E+00 -0.00000000000E+00 -0.40879337195E+02  0.40879337195E+02  0.00000000000E+00 0. -1.
         -6    2    1    2    0  503 -0.55759686744E+02 -0.37328330388E+01  0.19579146371E+03  0.26682288061E+03  0.17244441321E+03 0.  0.
        -24    2    3    3    0    0 -0.65087388864E+02 -0.61696836011E+02  0.14537113937E+03  0.18929139814E+03  0.81581845317E+02 0.  0.
          6    2    1    2  501    0  0.55759686744E+02  0.37328330388E+01  0.14748288251E+04  0.14855560825E+04  0.16921505389E+03 0.  0.
         24    2    5    5    0    0  0.15531945916E+02 -0.57837764997E+02  0.98401063896E+03  0.98923583162E+03  0.82000881542E+02 0.  0.
          5    1    5    5  501    0  0.40227740828E+02  0.61570598036E+02  0.49081818610E+03  0.49632025093E+03  0.47000000000E+01 0. -1.
        -13    1    6    6    0    0 -0.24558544884E+02 -0.31959677784E+02  0.21494692164E+03  0.21869321492E+03  0.00000000000E+00 0.  1.
         14    1    6    6    0    0  0.40090490800E+02 -0.25878087214E+02  0.76906371732E+03  0.77054261670E+03  0.00000000000E+00 0. -1.
         -5    1    3    3    0  503  0.93277021198E+01  0.57964002972E+02  0.50420324338E+02  0.77531482468E+02  0.47000000000E+01 0.  1.
         11    1    4    4    0    0 -0.21891312012E+01 -0.33875582512E+02  0.68422105003E+01  0.34628936318E+02  0.00000000000E+00 0. -1.
        -12    1    4    4    0    0 -0.62898257663E+02 -0.27821253499E+02  0.13852892887E+03  0.15466246182E+03  0.00000000000E+00 0.  1.
</event>
<event>
12    1  0.8684423E-002  0.2520587E+03  0.7818608E-02  0.1112172E+00
         21   -1    0    0  501  502  0.00000000000E+00  0.00000000000E+00  0.14997340118E+03  0.14997340118E+03  0.00000000000E+00 0. -1.
         21   -1    0    0  502  503 -0.00000000000E+00 -0.00000000000E+00 -0.46078786971E+03  0.46078786971E+03  0.00000000000E+00 0.  1.
         -6    2    1    2    0  503 -0.12747586295E+03  0.13116582971E+03 -0.24441166810E+03  0.35109918608E+03  0.17343299699E+03 0.  0.
        -24    2    3    3    0    0 -0.42740336043E+02  0.19100988731E+02 -0.55312872852E+02  0.11547430949E+03  0.89906719181E+02 0.  0.
          6    2    1    2  501    0  0.12747586295E+03 -0.13116582971E+03 -0.66402800423E+02  0.25966208481E+03  0.17193166046E+03 0.  0.
         24    2    5    5    0    0  0.10218367391E+03 -0.16202910003E+03 -0.38894917214E+02  0.21096906765E+03  0.79373802032E+02 0.  0.
          5    1    5    5  501    0  0.25292189039E+02  0.30863270327E+02 -0.27507883209E+02  0.48693017162E+02  0.47000000000E+01 0. -1.
        -13    1    6    6    0    0 -0.95679021678E+01 -0.42955903480E+02 -0.64790890125E+01  0.44482951679E+02  0.00000000000E+00 0.  1.
         14    1    6    6    0    0  0.11175157608E+03 -0.11907319655E+03 -0.32415828202E+02  0.16648611597E+03  0.00000000000E+00 0. -1.
         -5    1    3    3    0  503 -0.84735526906E+02  0.11206484097E+03 -0.18909879525E+03  0.23562487659E+03  0.47000000000E+01 0.  1.
         11    1    4    4    0    0 -0.26267526180E+02  0.46262532296E+02 -0.17843496017E+01  0.53229585097E+02  0.00000000000E+00 0. -1.
        -12    1    4    4    0    0 -0.16472809862E+02 -0.27161543565E+02 -0.53528523250E+02  0.62244724394E+02  0.00000000000E+00 0.  1.
</event>
<event>
12    1  0.8684423E-002  0.2628877E+03  0.7818608E-02  0.1105466E+00
         21   -1    0    0  501  502  0.00000000000E+00  0.00000000000E+00  0.94747120110E+02  0.94747120110E+02  0.00000000000E+00 0.  1.
         21   -1    0    0  502  503 -0.00000000000E+00 -0.00000000000E+00 -0.74500789284E+03  0.74500789284E+03  0.00000000000E+00 0. -1.
         -6    2    1    2    0  503 -0.16630700389E+03 -0.10921423164E+03 -0.38767681512E+03  0.46840503147E+03  0.17182605331E+03 0.  0.
        -24    2    3    3    0    0 -0.73381145061E+02 -0.12681295364E+03 -0.22433569373E+03  0.27959999396E+03  0.79895778854E+02 0.  0.
          6    2    1    2  501    0  0.16630700389E+03  0.10921423164E+03 -0.26258395761E+03  0.37134998148E+03  0.17136133174E+03 0.  0.
         24    2    5    5    0    0  0.13089310610E+02  0.40769467666E+02 -0.12032458285E+03  0.15130415226E+03  0.81126208511E+02 0.  0.
          5    1    5    5  501    0  0.15321769328E+03  0.68444763970E+02 -0.14225937476E+03  0.22004582922E+03  0.47000000000E+01 0. -1.
        -11    1    6    6    0    0  0.19963974414E+02  0.59163192123E+02 -0.55398470984E+02  0.83473553680E+02  0.00000000000E+00 0.  1.
         12    1    6    6    0    0 -0.68746638043E+01 -0.18393724457E+02 -0.64926111866E+02  0.67830598581E+02  0.00000000000E+00 0. -1.
         -5    1    3    3    0  503 -0.92925858825E+02  0.17598722005E+02 -0.16334112138E+03  0.18880503751E+03  0.47000000000E+01 0.  1.
         13    1    4    4    0    0 -0.70133627544E+02 -0.56356067319E+02 -0.16275837203E+03  0.18597048073E+03  0.00000000000E+00 0. -1.
        -14    1    4    4    0    0 -0.32475175176E+01 -0.70456886322E+02 -0.61577321701E+02  0.93629513232E+02  0.00000000000E+00 0.  1.
</event>
<event>
12    1  0.8684423E-002  0.1832932E+03  0.7818608E-02  0.1164694E+00
         21   -1    0    0  501  502  0.00000000000E+00  0.00000000000E+00  0.16654630249E+03  0.16654630249E+03  0.00000000000E+00 0.  1.
         21   -1    0    0  502  503 -0.00000000000E+00 -0.00000000000E+00 -0.21340721692E+03  0.21340721692E+03  0.00000000000E+00 0.  1.
         -6    2    1    2    0  503 -0.51017091702E+02 -0.37047558504E+02 -0.68248381641E+02  0.19558691067E+03  0.17210791031E+03 0.  0.
        -24    2    3    3    0    0 -0.42461308312E+01 -0.34548431167E+02 -0.10580560093E+03  0.13536728646E+03  0.76927584988E+02 0.  0.
          6    2    1    2  501    0  0.51017091702E+02  0.37047558504E+02  0.21387467217E+02  0.18436660874E+03  0.17192544148E+03 0.  0.
         24    2    5    5    0    0  0.89058685000E+02 -0.34579480759E+01  0.38142573976E+02  0.12613704163E+03  0.80698764192E+02 0.  0.
          5    1    5    5  501    0 -0.38041593298E+02  0.40505506580E+02 -0.16755106759E+02  0.58229567116E+02  0.47000000000E+01 0. -1.
        -13    1    6    6    0    0  0.35609921493E+02 -0.22143329545E+02 -0.18693101674E+02  0.45911061873E+02  0.00000000000E+00 0.  1.
         14    1    6    6    0    0  0.53448763507E+02  0.18685381469E+02  0.56835675650E+02  0.80225979755E+02  0.00000000000E+00 0. -1.
         -5    1    3    3    0  503 -0.46770960870E+02 -0.24991273364E+01  0.37557219294E+02  0.60219624204E+02  0.47000000000E+01 0.  1.
         13    1    4    4    0    0  0.25983235225E+02 -0.98778732478E+01 -0.63245747798E+01  0.28507913617E+02  0.00000000000E+00 0. -1.
        -14    1    4    4    0    0 -0.30229366056E+02 -0.24670557920E+02 -0.99481026155E+02  0.10685937285E+03  0.00000000000E+00 0.  1.
</event>
<event>
12    1  0.8684423E-002  0.1995349E+03  0.7818608E-02  0.1150309E+00
         21   -1    0    0  501  502  0.00000000000E+00  0.00000000000E+00  0.24107257514E+02  0.24107257514E+02  0.00000000000E+00 0.  1.
         21   -1    0    0  502  503 -0.00000000000E+00 -0.00000000000E+00 -0.17912361436E+04  0.17912361436E+04  0.00000000000E+00 0. -1.
         -6    2    1    2    0  503 -0.96682723210E+02  0.22158077686E+02 -0.11449382246E+04  0.11621952062E+04  0.17313471573E+03 0.  0.
        -24    2    3    3    0    0 -0.12522843298E+03  0.12661433763E+01 -0.10559321199E+04  0.10663019993E+04  0.79520740745E+02 0.  0.
          6    2    1    2  501    0  0.96682723210E+02 -0.22158077686E+02 -0.62219066145E+03  0.65314819488E+03  0.17217089157E+03 0.  0.
         24    2    5    5    0    0  0.12388422117E+03 -0.39020045779E+02 -0.39302087588E+03  0.42170678096E+03  0.80630862590E+02 0.  0.
          5    1    5    5  501    0 -0.27201497957E+02  0.16861968093E+02 -0.22916978557E+03  0.23144141392E+03  0.47000000000E+01 0. -1.
        -11    1    6    6    0    0  0.16176659312E+02 -0.40390616181E+02 -0.14291177757E+03  0.14938829389E+03  0.00000000000E+00 0.  1.
         12    1    6    6    0    0  0.10770756186E+03  0.13705704017E+01 -0.25010909831E+03  0.27231848708E+03  0.00000000000E+00 0. -1.
         -5    1    3    3    0  503  0.28545709775E+02  0.20891934310E+02 -0.89006104647E+02  0.95893206903E+02  0.47000000000E+01 0.  1.
         11    1    4    4    0    0 -0.77793101945E+02  0.36529629535E+02 -0.73131454878E+03  0.73634716663E+03  0.00000000000E+00 0. -1.
        -12    1    4    4    0    0 -0.47435331040E+02 -0.35263486158E+02 -0.32461757116E+03  0.32995483266E+03  0.00000000000E+00 0.  1.
</event>
<event>
12    1  0.8684423E-002  0.1911809E+03  0.7818608E-02  0.1157485E+00
         21   -1    0    0  503  502  0.00000000000E+00  0.00000000000E+00  0.37165900181E+03  0.37165900181E+03  0.00000000000E+00 0. -1.
         21   -1    0    0  501  503 -0.00000000000E+00 -0.00000000000E+00 -0.16200987424E+03  0.16200987424E+03  0.00000000000E+00 0. -1.
          6    2    1    2  501    0  0.65095659703E+02 -0.53974258598E+02 -0.62767128594E+02  0.20086146978E+03  0.17104079077E+03 0.  0.
         24    2    3    3    0    0 -0.18399383507E+02 -0.35271334535E+02 -0.71695524166E+02  0.11470447438E+03  0.80213863543E+02 0.  0.
         -6    2    1    2    0  502 -0.65095659703E+02  0.53974258598E+02  0.27241625616E+03  0.33280740627E+03  0.17146278763E+03 0.  0.
        -24    2    5    5    0    0 -0.94193436798E+02  0.23482314536E+02  0.11713813380E+03  0.17184211632E+03  0.79903366135E+02 0.  0.
          5    1    3    3  501    0  0.83495043210E+02 -0.18702924063E+02  0.89283955715E+01  0.86156995401E+02  0.47000000000E+01 0. -1.
        -13    1    4    4    0    0  0.20167873907E+02 -0.19920308807E+01  0.65846662021E+01  0.21308898468E+02  0.00000000000E+00 0.  1.
         14    1    4    4    0    0 -0.38567257414E+02 -0.33279303654E+02 -0.78280190368E+02  0.93395575913E+02  0.00000000000E+00 0. -1.
         -5    1    5    5    0  502  0.29097777095E+02  0.30491944062E+02  0.15527812236E+03  0.16096528995E+03  0.47000000000E+01 0.  1.
         11    1    6    6    0    0 -0.96214668007E+02 -0.27583603104E+01  0.10623309809E+03  0.14335390480E+03  0.00000000000E+00 0. -1.
        -12    1    6    6    0    0  0.20212312093E+01  0.26240674846E+02  0.10905035716E+02  0.28488211526E+02  0.00000000000E+00 0.  1.
</event>
<event>
12    1  0.8684423E-002  0.2014916E+03  0.7818608E-02  0.1148579E+00
         21   -1    0    0  501  502  0.00000000000E+00  0.00000000000E+00  0.15615590127E+03  0.15615590127E+03  0.00000000000E+00 0. -1.
         21   -1    0    0  502  503 -0.00000000000E+00 -0.00000000000E+00 -0.27652430374E+03  0.27652430374E+03  0.00000000000E+00 0. -1.
         -6    2    1    2    0  503  0.50669895569E+02  0.90330330256E+02 -0.11392872133E+03  0.23108571638E+03  0.17231902939E+03 0.  0.
        -24    2    3    3    0    0 -0.36404481428E+02  0.40854230035E+02 -0.84187805489E+02  0.12650826328E+03  0.76957129008E+02 0.  0.
          6    2    1    2  501    0 -0.50669895569E+02 -0.90330330256E+02 -0.64396811358E+01  0.20159448863E+03  0.17283478085E+03 0.  0.
         24    2    5    5    0    0  0.30663835117E+01 -0.15807804268E+02 -0.53966931904E+02  0.98046798482E+02  0.80258679093E+02 0.  0.
          5    1    5    5  501    0 -0.53736279081E+02 -0.74522525988E+02  0.47527250769E+02  0.10354769015E+03  0.47000000000E+01 0. -1.
        -13    1    6    6    0    0  0.33348328197E+02 -0.26034802315E+02 -0.50525871214E+02  0.65899814772E+02  0.00000000000E+00 0.  1.
         14    1    6    6    0    0 -0.30281944685E+02  0.10226998047E+02 -0.34410606905E+01  0.32146983710E+02  0.00000000000E+00 0. -1.
         -5    1    3    3    0  503  0.87074376998E+02  0.49476100221E+02 -0.29740915840E+02  0.10457745310E+03  0.47000000000E+01 0.  1.
         11    1    4    4    0    0  0.23799402974E+02  0.72902449412E+01 -0.16241502538E+02  0.29721131505E+02  0.00000000000E+00 0. -1.
        -12    1    4    4    0    0 -0.60203884403E+02  0.33563985094E+02 -0.67946302951E+02  0.96787131775E+02  0.00000000000E+00 0.  1.
</event>
<event>
12    1  0.8684423E-002  0.2079895E+03  0.7818608E-02  0.1143417E+00
         21   -1    0    0  501  502  0.00000000000E+00  0.00000000000E+00  0.10690276414E+04  0.10690276414E+04  0.00000000000E+00 0.  1.
         21   -1    0    0  502  503 -0.00000000000E+00 -0.00000000000E+00 -0.40653809603E+02  0.40653809603E+02  0.00000000000E+00 0.  1.
         -6    2    1    2    0  503  0.82704033508E+02  0.78349979206E+02  0.45576413289E+03  0.50046760629E+03  0.17253464497E+03 0.  0.
        -24    2    3    3    0    0  0.34618093859E+02 -0.27128493501E+02  0.20068072337E+03  0.22023983891E+03  0.79362877528E+02 0.  0.
          6    2    1    2  501    0 -0.82704033508E+02 -0.78349979206E+02  0.57260969894E+03  0.60921384475E+03  0.17401426641E+03 0.  0.
         24    2    5    5    0    0 -0.10171264321E+03 -0.49033654559E+02  0.25784965461E+03  0.29248564954E+03  0.79445891876E+02 0.  0.
          5    1    5    5  501    0  0.19008609703E+02 -0.29316324646E+02  0.31476004433E+03  0.31672819521E+03  0.47000000000E+01 0. -1.
        -13    1    6    6    0    0 -0.56360792560E+01 -0.35692809023E+02  0.39355816236E+02  0.53428665311E+02  0.00000000000E+00 0.  1.
         14    1    6    6    0    0 -0.96076563954E+02 -0.13340845536E+02  0.21849383838E+03  0.23905698423E+03  0.00000000000E+00 0. -1.
         -5    1    3    3    0  503  0.48085939648E+02  0.10547847271E+03  0.25508340953E+03  0.28022776738E+03  0.47000000000E+01 0.  1.
         13    1    4    4    0    0  0.40012674797E+02  0.13864976994E+02  0.58829950343E+02  0.72485962701E+02  0.00000000000E+00 0. -1.
        -14    1    4    4    0    0 -0.53945809376E+01 -0.40993470495E+02  0.14185077302E+03  0.14775387621E+03  0.00000000000E+00 0.  1.
</event>
<event>
12    1  0.8684423E-002  0.1798003E+03  0.7818608E-02  0.1168383E+00
         21   -1    0    0  501  502  0.00000000000E+00  0.00000000000E+00  0.20348242908E+03  0.20348242908E+03  0.00000000000E+00 0. -1.
         21   -1    0    0  502  503 -0.00000000000E+00 -0.00000000000E+00 -0.20419915503E+03  0.20419915503E+03  0.00000000000E+00 0. -1.
         -6    2    1    2    0  503 -0.22693235850E+02 -0.45218203002E+02 -0.97863481671E+02  0.20331515177E+03  0.17088042912E+03 0.  0.
        -24    2    3    3    0    0 -0.59220936370E+02  0.22443860355E+02 -0.70311493274E+02  0.12150054557E+03  0.76209122252E+02 0.  0.
          6    2    1    2  501    0  0.22693235850E+02  0.45218203002E+02  0.97146755716E+02  0.20436643234E+03  0.17253543893E+03 0.  0.
         24    2    5    5    0    0 -0.43744542624E+02  0.38842535762E+02  0.18185991853E+02  0.10086996008E+03  0.80135453779E+02 0.  0.
          5    1    5    5  501    0  0.66437778474E+02  0.63756672401E+01  0.78960763863E+02  0.10349647226E+03  0.47000000000E+01 0. -1.
        -13    1    6    6    0    0  0.13882876698E+02  0.28657046318E+02 -0.13192717683E+02  0.34467497283E+02  0.00000000000E+00 0.  1.
         14    1    6    6    0    0 -0.57627419322E+02  0.10185489443E+02  0.31378709536E+02  0.66402462793E+02  0.00000000000E+00 0. -1.
         -5    1    3    3    0  503  0.36527700520E+02 -0.67662063357E+02 -0.27551988397E+02  0.81814606200E+02  0.47000000000E+01 0.  1.
         11    1    4    4    0    0 -0.14964260209E+02  0.66598535575E+01  0.16209502587E+02  0.23044103521E+02  0.00000000000E+00 0. -1.
        -12    1    4    4    0    0 -0.44256676162E+02  0.15784006798E+02 -0.86520995861E+02  0.98456442046E+02  0.00000000000E+00 0.  1.
</event>
<event>
12    1  0.8684423E-002  0.2808263E+03  0.7818608E-02  0.1095264E+00
         21   -1    0    0  503  502  0.00000000000E+00  0.00000000000E+00  0.74910187024E+02  0.74910187024E+02  0.00000000000E+00 0. -1.
         21   -1    0    0  501  503 -0.00000000000E+00 -0.00000000000E+00 -0.21327149112E+04  0.21327149112E+04  0.00000000000E+00 0.  1.
          6    2    1    2  501    0 -0.10262562839E+03  0.19652470558E+03 -0.18144560237E+04  0.18360312314E+04  0.17206406195E+03 0.  0.
         24    2    3    3    0    0 -0.11747142703E+03  0.82032464328E+02 -0.97781306548E+03  0.99144707307E+03  0.79498718929E+02 0.  0.
         -6    2    1    2    0  502  0.10262562839E+03 -0.19652470558E+03 -0.24334870051E+03  0.37159386681E+03  0.17236424312E+03 0.  0.
        -24    2    5    5    0    0  0.78857402961E+02 -0.20434290955E+03 -0.15419342450E+03  0.27887490384E+03  0.77595651595E+02 0.  0.
          5    1    3    3  501    0  0.14845798631E+02  0.11449224125E+03 -0.83664295818E+03  0.84458415834E+03  0.47000000000E+01 0. -1.
        -11    1    4    4    0    0 -0.20230530723E+02  0.60148309897E+02 -0.33593431514E+03  0.34187564646E+03  0.00000000000E+00 0.  1.
         12    1    4    4    0    0 -0.97240896302E+02  0.21884154431E+02 -0.64187875034E+03  0.64957142661E+03  0.00000000000E+00 0. -1.
         -5    1    5    5    0  502  0.23768225433E+02  0.78182039756E+01 -0.89155276012E+02  0.92718962971E+02  0.47000000000E+01 0.  1.
         11    1    6    6    0    0  0.29193323964E+01 -0.11045957742E+03 -0.60045356620E+02  0.12575883905E+03  0.00000000000E+00 0. -1.
        -12    1    6    6    0    0  0.75938070564E+02 -0.93883332127E+02 -0.94148067881E+02  0.15311606479E+03  0.00000000000E+00 0.  1.
</event>
<event>
12    1  0.8684423E-002  0.2136750E+03  0.7818608E-02  0.1139106E+00
         21   -1    0    0  503  502  0.00000000000E+00  0.00000000000E+00  0.10773345377E+03  0.10773345377E+03  0.00000000000E+00 0. -1.
         21   -1    0    0  501  503 -0.00000000000E+00 -0.00000000000E+00 -0.74119764371E+03  0.74119764371E+03  0.00000000000E+00 0. -1.
          6    2    1    2  501    0 -0.10075124208E+03 -0.73604457233E+02 -0.59544311599E+03  0.63189979228E+03  0.17081104823E+03 0.  0.
         24    2    3    3    0    0 -0.73684160805E+02 -0.11828623599E+03 -0.44192845837E+03  0.46967177884E+03  0.76614804979E+02 0.  0.
         -6    2    1    2    0  502  0.10075124208E+03  0.73604457233E+02 -0.38021073953E+02  0.21703130519E+03  0.17346053287E+03 0.  0.
        -24    2    5    5    0    0  0.68204477035E+02 -0.15157304071E+02  0.17614634906E+02  0.10723438226E+03  0.79418781291E+02 0.  0.
          5    1    3    3  501    0 -0.27067081280E+02  0.44681778752E+02 -0.15351465762E+03  0.16222801345E+03  0.47000000000E+01 0. -1.
        -11    1    4    4    0    0  0.12347065692E+02 -0.35160987477E+02 -0.14087350922E+03  0.14571921860E+03  0.00000000000E+00 0.  1.
         12    1    4    4    0    0 -0.86031226497E+02 -0.83125248508E+02 -0.30105494915E+03  0.32395256023E+03  0.00000000000E+00 0. -1.
         -5    1    5    5    0  502  0.32546765050E+02  0.88761761304E+02 -0.55635708859E+02  0.10979692293E+03  0.47000000000E+01 0.  1.
         11    1    6    6    0    0  0.80706108450E+02  0.50412877463E+01  0.68449760374E+01  0.81152598358E+02  0.00000000000E+00 0. -1.
        -12    1    6    6    0    0 -0.12501631415E+02 -0.20198591818E+02  0.10769658868E+02  0.26081783903E+02  0.00000000000E+00 0.  1.
</event>
<event>
12    1  0.8684423E-002  0.1923691E+03  0.7818608E-02  0.1157109E+00
         21   -1    0    0  503  502  0.00000000000E+00  0.00000000000E+00  0.19574887806E+04  0.19574887806E+04  0.00000000000E+00 0. -1.
         21   -1    0    0  501  503 -0.00000000000E+00 -0.00000000000E+00 -0.55029020310E+02  0.55029020310E+02  0.00000000000E+00 0. -1.
          6    2    1    2  501    0 -0.41275110918E+02  0.66956107943E+02  0.13505929523E+03  0.23504659729E+03  0.17555379375E+03 0.  0.
         24    2    3    3    0    0  0.42319535167E+02  0.24956149755E+02  0.94629815578E+02  0.13302358927E+03  0.79540686686E+02 0.  0.
         -6    2    1    2    0  502  0.41275110918E+02 -0.66956107943E+02  0.17674004650E+04  0.17774712036E+04  0.17179266748E+03 0.  0.
        -24    2    5    5    0    0 -0.24075245120E+02 -0.47614966935E+02  0.14335060870E+04  0.14366599737E+04  0.78774208377E+02 0.  0.
          5    1    3    3  501    0 -0.83594646085E+02  0.41999958188E+02  0.40429479647E+02  0.10202300802E+03  0.47000000000E+01 0. -1.
        -11    1    4    4    0    0  0.40043253313E+02  0.52107531332E+02  0.60244664224E+02  0.89151985535E+02  0.00000000000E+00 0.  1.
         12    1    4    4    0    0  0.22762818540E+01 -0.27151381577E+02  0.34385151355E+02  0.43871603735E+02  0.00000000000E+00 0. -1.
         -5    1    5    5    0  502  0.65350356038E+02 -0.19341141007E+02  0.33389437800E+03  0.34081122991E+03  0.47000000000E+01 0.  1.
         13    1    6    6    0    0  0.86585857425E+01  0.10578299789E+02  0.69690069110E+03  0.69703475150E+03  0.00000000000E+00 0. -1.
        -14    1    6    6    0    0 -0.32733830863E+02 -0.58193266725E+02  0.73660539592E+03  0.73962522217E+03  0.00000000000E+00 0.  1.
</event>
<event>
12    1  0.8684423E-002  0.2699720E+03  0.7818608E-02  0.1101320E+00
         21   -1    0    0  503  502  0.00000000000E+00  0.00000000000E+00  0.84782217740E+02  0.84782217740E+02  0.00000000000E+00 0.  1.
         21   -1    0    0  501  503 -0.00000000000E+00 -0.00000000000E+00 -0.90240621357E+03  0.90240621357E+03  0.00000000000E+00 0. -1.
          6    2    1    2  501    0 -0.91156049089E+02  0.18610022830E+03 -0.30058118304E+03  0.40390620890E+03  0.17276706205E+03 0.  0.
         24    2    3    3    0    0 -0.27433761357E+02  0.22598649474E+02 -0.14574455448E+03  0.16983406665E+03  0.79616737023E+02 0.  0.
         -6    2    1    2    0  502  0.91156049089E+02 -0.18610022830E+03 -0.51704281279E+03  0.58328222242E+03  0.17303803187E+03 0.  0.
        -24    2    5    5    0    0  0.48261502752E+02 -0.19057348261E+03 -0.48544070656E+03  0.52960974131E+03  0.78653503338E+02 0.  0.
          5    1    3    3  501    0 -0.63722287732E+02  0.16350157882E+03 -0.15483662856E+03  0.23407214225E+03  0.47000000000E+01 0. -1.
        -11    1    4    4    0    0 -0.10849560741E+02 -0.58905125730E-02  0.80469648906E+01  0.13508021577E+02  0.00000000000E+00 0.  1.
         12    1    4    4    0    0 -0.16584200616E+02  0.22604539987E+02 -0.15379151937E+03  0.15632604507E+03  0.00000000000E+00 0. -1.
         -5    1    5    5    0  502  0.42894546337E+02  0.44732543164E+01 -0.31602106233E+02  0.53672481106E+02  0.47000000000E+01 0.  1.
         11    1    6    6    0    0  0.54136329312E+02 -0.17234706124E+03 -0.36071293726E+03  0.40342046896E+03  0.00000000000E+00 0. -1.
        -12    1    6    6    0    0 -0.58748265597E+01 -0.18226421374E+02 -0.12472776929E+03  0.12618927235E+03  0.00000000000E+00 0.  1.
</event>
<event>
12    1  0.8684423E-002  0.2094848E+03  0.7818608E-02  0.1142033E+00
         21   -1    0    0  503  502  0.00000000000E+00  0.00000000000E+00  0.34616105741E+02  0.34616105741E+02  0.00000000000E+00 0.  1.
         21   -1    0    0  501  503 -0.00000000000E+00 -0.00000000000E+00 -0.16100645721E+04  0.16100645721E+04  0.00000000000E+00 0. -1.
          6    2    1    2  501    0 -0.35395822056E+02  0.11423040962E+03 -0.11683200754E+04  0.11869522581E+04  0.17199538895E+03 0.  0.
         24    2    3    3    0    0  0.13826664359E+02  0.10622619184E+03 -0.52832833809E+03  0.54500332364E+03  0.80141184658E+02 0.  0.
         -6    2    1    2    0  502  0.35395822056E+02 -0.11423040962E+03 -0.40712839098E+03  0.45772841972E+03  0.17164011413E+03 0.  0.
        -24    2    5    5    0    0  0.30416182501E+02 -0.72201216098E+02 -0.39905932403E+03  0.41438733345E+03  0.79563548582E+02 0.  0.
          5    1    3    3  501    0 -0.49222486414E+02  0.80042177841E+01 -0.63999173732E+03  0.64194893450E+03  0.47000000000E+01 0. -1.
        -11    1    4    4    0    0 -0.60203322300E+01  0.98870411949E+02 -0.30516369299E+03  0.32083715850E+03  0.00000000000E+00 0.  1.
         12    1    4    4    0    0  0.19846996589E+02  0.73557798862E+01 -0.22316464510E+03  0.22416616514E+03  0.00000000000E+00 0. -1.
         -5    1    5    5    0  502  0.49796395545E+01 -0.42029193521E+02 -0.80690669520E+01  0.43341086276E+02  0.47000000000E+01 0.  1.
         13    1    6    6    0    0 -0.12477083748E+02 -0.67199542843E+02 -0.25420205352E+03  0.26323020379E+03  0.00000000000E+00 0. -1.
        -14    1    6    6    0    0  0.42893266249E+02 -0.50016732558E+01 -0.14485727051E+03  0.15115712965E+03  0.00000000000E+00 0.  1.
</event>
<event>
12    1  0.8684423E-002  0.2842719E+03  0.7818608E-02  0.1093555E+00
         21   -1    0    0  503  502  0.00000000000E+00  0.00000000000E+00  0.33570064815E+04  0.33570064815E+04  0.00000000000E+00 0.  1.
         21   -1    0    0  501  503 -0.00000000000E+00 -0.00000000000E+00 -0.26498674523E+02  0.26498674523E+02  0.00000000000E+00 0.  1.
          6    2    1    2  501    0 -0.21438001968E+03 -0.72044588623E+02  0.11382437707E+04  0.11728871119E+04  0.17004728795E+03 0.  0.
         24    2    3    3    0    0 -0.18946530498E+03 -0.11239085055E+03  0.98487085378E+03  0.10122823003E+04  0.78841942043E+02 0.  0.
         -6    2    1    2    0  502  0.21438001968E+03  0.72044588623E+02  0.21922640363E+04  0.22106180441E+04  0.17222461105E+03 0.  0.
        -24    2    5    5    0    0  0.48883730401E+02  0.70453512282E+02  0.77071499552E+03  0.77945931129E+03  0.78752124680E+02 0.  0.
          5    1    3    3  501    0 -0.24914714695E+02  0.40346261928E+02  0.15337291688E+03  0.16060481155E+03  0.47000000000E+01 0. -1.
        -13    1    4    4    0    0 -0.19273674384E+02 -0.29583283777E+02  0.74477053797E+02  0.82422549982E+02  0.00000000000E+00 0.  1.
         14    1    4    4    0    0 -0.17019163060E+03 -0.82807566774E+02  0.91039379998E+03  0.92985975033E+03  0.00000000000E+00 0. -1.
         -5    1    5    5    0  502  0.16549628928E+03  0.15910763410E+01  0.14215490408E+04  0.14311587329E+04  0.47000000000E+01 0.  1.
         13    1    6    6    0    0 -0.11802749876E+01  0.46204997129E+02  0.54633765812E+03  0.54828927719E+03  0.00000000000E+00 0. -1.
        -14    1    6    6    0    0  0.50064005388E+02  0.24248515153E+02  0.22437733741E+03  0.23117003410E+03  0.00000000000E+00 0.  1.
</event>
<event>
12    1  0.8684423E-002  0.2358587E+03  0.7818608E-02  0.1122755E+00
         21   -1    0    0  503  502  0.00000000000E+00  0.00000000000E+00  0.18406311857E+03  0.18406311857E+03  0.00000000000E+00 0. -1.
         21   -1    0    0  501  503 -0.00000000000E+00 -0.00000000000E+00 -0.41281254368E+03  0.41281254368E+03  0.00000000000E+00 0. -1.
          6    2    1    2  501    0  0.45055123060E+02  0.15360014834E+03 -0.26991256352E+03  0.35844404727E+03  0.17322347818E+03 0.  0.
         24    2    3    3    0    0 -0.32675302240E+02  0.11314160782E+03 -0.12572144019E+03  0.18964806816E+03  0.79320933151E+02 0.  0.
         -6    2    1    2    0  502 -0.45055123060E+02 -0.15360014834E+03  0.41163138412E+02  0.23843161498E+03  0.17184953120E+03 0.  0.
        -24    2    5    5    0    0  0.27296421107E+02 -0.13173653136E+03  0.11123725776E+02  0.15696247970E+03  0.80086668433E+02 0.  0.
          5    1    3    3  501    0  0.77730425300E+02  0.40458540523E+02 -0.14419112332E+03  0.16879597911E+03  0.47000000000E+01 0. -1.
        -13    1    4    4    0    0  0.22235236179E+02  0.13810521096E+02 -0.38276523337E+02  0.46370555956E+02  0.00000000000E+00 0.  1.
         14    1    4    4    0    0 -0.54910538419E+02  0.99331086725E+02 -0.87444916858E+02  0.14327751221E+03  0.00000000000E+00 0. -1.
         -5    1    5    5    0  502 -0.72351544167E+02 -0.21863616987E+02  0.30039412636E+02  0.81469135276E+02  0.47000000000E+01 0.  1.
         13    1    6    6    0    0  0.42760017147E+02 -0.58327970442E+02  0.32009652364E+02  0.79089753108E+02  0.00000000000E+00 0. -1.
        -14    1    6    6    0    0 -0.15463596040E+02 -0.73408560915E+02 -0.20885926588E+02  0.77872726596E+02  0.00000000000E+00 0.  1.
</event>
<event>
12    1  0.8684423E-002  0.2202856E+03  0.7818608E-02  0.1133681E+00
         21   -1    0    0  503  502  0.00000000000E+00  0.00000000000E+00  0.42845911391E+03  0.42845911391E+03  0.00000000000E+00 0.  1.
         21   -1    0    0  501  503 -0.00000000000E+00 -0.00000000000E+00 -0.12082798425E+03  0.12082798425E+03  0.00000000000E+00 0.  1.
          6    2    1    2  501    0 -0.12063967149E+03 -0.65017409629E+02  0.84949369560E+02  0.23609777069E+03  0.17246613593E+03 0.  0.
         24    2    3    3    0    0 -0.11796900692E+03  0.38384821357E+01  0.87469665934E+02  0.16698403708E+03  0.79380763667E+02 0.  0.
         -6    2    1    2    0  502  0.12063967149E+03  0.65017409629E+02  0.22268176011E+03  0.31318932747E+03  0.17239255978E+03 0.  0.
        -24    2    5    5    0    0  0.74580238272E+02  0.75105841923E+02  0.62750972987E+02  0.14638646622E+03  0.79298256285E+02 0.  0.
          5    1    3    3  501    0 -0.26706645659E+01 -0.68855891765E+02 -0.25202963738E+01  0.69113733612E+02  0.47000000000E+01 0. -1.
        -13    1    4    4    0    0 -0.56452573313E+02 -0.32201215578E+02  0.17995866893E+02  0.67436359211E+02  0.00000000000E+00 0.  1.
         14    1    4    4    0    0 -0.61516433609E+02  0.36039697714E+02  0.69473799041E+02  0.99547677865E+02  0.00000000000E+00 0. -1.
         -5    1    5    5    0  502  0.46059433215E+02 -0.10088432294E+02  0.15993078712E+03  0.16680286125E+03  0.47000000000E+01 0.  1.
         11    1    6    6    0    0  0.13907622914E+02  0.68811517423E+02  0.42739811129E+02  0.82189648743E+02  0.00000000000E+00 0. -1.
        -12    1    6    6    0    0  0.60672615358E+02  0.62943245006E+01  0.20011161858E+02  0.64196817477E+02  0.00000000000E+00 0.  1.
</event>
<event>
12    1  0.8684423E-002  0.1914094E+03  0.7818608E-02  0.1157629E+00
         21   -1    0    0  503  502  0.00000000000E+00  0.00000000000E+00  0.80451549099E+03  0.80451549099E+03  0.00000000000E+00 0. -1.
         21   -1    0    0  501  503 -0.00000000000E+00 -0.00000000000E+00 -0.59390579107E+02  0.59390579107E+02  0.00000000000E+00 0. -1.
          6    2    1    2  501    0  0.65372108995E+02  0.48034660362E+02  0.15911327526E+03  0.24742638134E+03  0.17123649900E+03 0.  0.
         24    2    3    3    0    0  0.32009205954E+02  0.74186413871E+02  0.40068113924E+02  0.12097149631E+03  0.80625280758E+02 0.  0.
         -6    2    1    2    0  502 -0.65372108995E+02 -0.48034660362E+02  0.58601163662E+03  0.61647968875E+03  0.17336876062E+03 0.  0.
        -24    2    5    5    0    0 -0.41938672438E+02  0.32497746717E+02  0.41893586740E+03  0.42947434873E+03  0.78268764068E+02 0.  0.
          5    1    3    3  501    0  0.33362903041E+02 -0.26151753508E+02  0.11904516134E+03  0.12645488503E+03  0.47000000000E+01 0. -1.
        -11    1    4    4    0    0  0.10484703062E+02 -0.16345744071E+02 -0.57345451854E+00  0.19427845933E+02  0.00000000000E+00 0.  1.
         12    1    4    4    0    0  0.21524502893E+02  0.90532157942E+02  0.40641568443E+02  0.10154365038E+03  0.00000000000E+00 0. -1.
         -5    1    5    5    0  502 -0.23433436558E+02 -0.80532407079E+02  0.16707576921E+03  0.18700534002E+03  0.47000000000E+01 0.  1.
         13    1    6    6    0    0 -0.24305873255E+02 -0.21711944062E+02  0.22452990967E+03  0.22688293088E+03  0.00000000000E+00 0. -1.
        -14    1    6    6    0    0 -0.17632799182E+02  0.54209690778E+02  0.19440595774E+03  0.20259141784E+03  0.00000000000E+00 0.  1.
</event>
<event>
12    1  0.8684423E-002  0.1842449E+03  0.7818608E-02  0.1165570E+00
         21   -1    0    0  501  502  0.00000000000E+00  0.00000000000E+00  0.27900480756E+03  0.27900480756E+03  0.00000000000E+00 0.  1.
         21   -1    0    0  502  503 -0.00000000000E+00 -0.00000000000E+00 -0.14481474537E+03  0.14481474537E+03  0.00000000000E+00 0.  1.
         -6    2    1    2    0  503 -0.33514065332E+02 -0.16999681805E+02 -0.27339909894E+02  0.17879276903E+03  0.17264762329E+03 0.  0.
        -24    2    3    3    0    0 -0.49856350454E+02 -0.51512967771E+02  0.30509907873E+02  0.10931666805E+03  0.76681405219E+02 0.  0.
          6    2    1    2  501    0  0.33514065332E+02  0.16999681805E+02  0.16152997209E+03  0.24502678390E+03  0.18037186917E+03 0.  0.
         24    2    5    5    0    0  0.78988164103E+02 -0.30916076296E+02  0.12047179973E+03  0.16710581721E+03  0.78841396308E+02 0.  0.
          5    1    5    5  501    0 -0.45474098771E+02  0.47915758101E+02  0.41058172360E+02  0.77920966696E+02  0.47000000000E+01 0. -1.
        -13    1    6    6    0    0  0.82653197312E+01  0.13324784852E+02  0.65145537300E+02  0.67006017877E+02  0.00000000000E+00 0.  1.
         14    1    6    6    0    0  0.70722844372E+02 -0.44240861148E+02  0.55326262430E+02  0.10009979933E+03  0.00000000000E+00 0. -1.
         -5    1    3    3    0  503  0.16342285122E+02  0.34513285965E+02 -0.57849817767E+02  0.69476100976E+02  0.47000000000E+01 0.  1.
         11    1    4    4    0    0  0.88837473536E+01 -0.39643325896E+02  0.27992353545E+02  0.49336458244E+02  0.00000000000E+00 0. -1.
        -12    1    4    4    0    0 -0.58740097808E+02 -0.11869641875E+02  0.25175543274E+01  0.59980209807E+02  0.00000000000E+00 0.  1.
</event>
<event>
12    1  0.8684423E-002  0.1727432E+03  0.7818608E-02  0.1175155E+00
         21   -1    0    0  501  502  0.00000000000E+00  0.00000000000E+00  0.29498102888E+03  0.29498102888E+03  0.00000000000E+00 0. -1.
         21   -1    0    0  502  503 -0.00000000000E+00 -0.00000000000E+00 -0.10118777541E+03  0.10118777541E+03  0.00000000000E+00 0. -1.
         -6    2    1    2    0  503 -0.13916952092E+01  0.85637752654E+01  0.10830488653E+03  0.20342937889E+03  0.17198339654E+03 0.  0.
        -24    2    3    3    0    0  0.26709964475E+02  0.50308111057E+02  0.11175683581E+03  0.15277072907E+03  0.87206519653E+02 0.  0.
          6    2    1    2  501    0  0.13916952092E+01 -0.85637752654E+01  0.85488366951E+02  0.19273942540E+03  0.17252521601E+03 0.  0.
         24    2    5    5    0    0 -0.30751799674E+02  0.55866486787E+02  0.50961891275E+02  0.11274798552E+03  0.77770536505E+02 0.  0.
          5    1    5    5  501    0  0.32143494884E+02 -0.64430262052E+02  0.34526475676E+02  0.79991439880E+02  0.47000000000E+01 0. -1.
        -11    1    6    6    0    0 -0.29877683197E+02  0.15894573790E-01 -0.86013915130E+01  0.31091158580E+02  0.00000000000E+00 0.  1.
         12    1    6    6    0    0 -0.87411647725E+00  0.55850592213E+02  0.59563282788E+02  0.81656826944E+02  0.00000000000E+00 0. -1.
         -5    1    3    3    0  503 -0.28101659684E+02 -0.41744335791E+02 -0.34519492788E+01  0.50658649819E+02  0.47000000000E+01 0.  1.
         13    1    4    4    0    0 -0.22518709042E+02 -0.88636443062E+01  0.12721115765E+02  0.27340139605E+02  0.00000000000E+00 0. -1.
        -14    1    4    4    0    0  0.49228673516E+02  0.59171755363E+02  0.99035720040E+02  0.12543058946E+03  0.00000000000E+00 0.  1.
</event>
<event>
12    1  0.8684423E-002  0.1981606E+03  0.7818608E-02  0.1151418E+00
         21   -1    0    0  503  502  0.00000000000E+00  0.00000000000E+00  0.29122290414E+03  0.29122290414E+03  0.00000000000E+00 0.  1.
         21   -1    0    0  501  503 -0.00000000000E+00 -0.00000000000E+00 -0.49794281710E+03  0.49794281710E+03  0.00000000000E+00 0. -1.
          6    2    1    2  501    0 -0.87392813658E+02  0.38565735620E+02 -0.44044433447E+03  0.48274322856E+03  0.17298841899E+03 0.  0.
         24    2    3    3    0    0 -0.30060869945E+02 -0.26487670475E+02 -0.11084558256E+03  0.14189674599E+03  0.79010700295E+02 0.  0.
         -6    2    1    2    0  502  0.87392813658E+02 -0.38565735620E+02  0.23372442152E+03  0.30642249268E+03  0.17361687408E+03 0.  0.
        -24    2    5    5    0    0  0.12248950985E+03 -0.58173771340E+02  0.19072217371E+03  0.24736712490E+03  0.80172808604E+02 0.  0.
          5    1    3    3  501    0 -0.57331943714E+02  0.65053406095E+02 -0.32959875191E+03  0.34084648256E+03  0.47000000000E+01 0. -1.
        -13    1    4    4    0    0 -0.57825431408E+01 -0.47766685178E+02 -0.93725741376E+02  0.10535468008E+03  0.00000000000E+00 0.  1.
         14    1    4    4    0    0 -0.24278326804E+02  0.21279014702E+02 -0.17119841186E+02  0.36542065915E+02  0.00000000000E+00 0. -1.
         -5    1    5    5    0  502 -0.35096696187E+02  0.19608035720E+02  0.43002247804E+02  0.59055367785E+02  0.47000000000E+01 0.  1.
         11    1    6    6    0    0  0.18884891838E+02 -0.96090288792E+01 -0.39539381298E+01  0.21554725757E+02  0.00000000000E+00 0. -1.
        -12    1    6    6    0    0  0.10360461801E+03 -0.48564742461E+02  0.19467611184E+03  0.22581239914E+03  0.00000000000E+00 0.  1.
</event>
<event>
12    1  0.8684423E-002  0.2531034E+03  0.7818608E-02  0.1111481E+00
         21   -1    0    0  503  502  0.00000000000E+00  0.00000000000E+00  0.20017207264E+03  0.20017207264E+03  0.00000000000E+00 0.  1.
         21   -1    0    0  501  503 -0.00000000000E+00 -0.00000000000E+00 -0.31966901226E+03  0.31966901226E+03  0.00000000000E+00 0.  1.
          6    2    1    2  501    0  0.18349885072E+03 -0.14777555478E+02 -0.71316743761E+02  0.26295892574E+03  0.17369834290E+03 0.  0.
         24    2    3    3    0    0  0.72122220374E+02 -0.68831876037E+02 -0.26014456343E+02  0.13104603554E+03  0.80974500062E+02 0.  0.
         -6    2    1    2    0  502 -0.18349885072E+03  0.14777555478E+02 -0.48180195864E+02  0.25688215915E+03  0.17255986804E+03 0.  0.
        -24    2    5    5    0    0 -0.72831850837E+02  0.32674980873E+02  0.27345884416E+02  0.12162765276E+03  0.87597692033E+02 0.  0.
          5    1    3    3  501    0  0.11137663034E+03  0.54054320559E+02 -0.45302287418E+02  0.13191289021E+03  0.47000000000E+01 0. -1.
        -11    1    4    4    0    0  0.79409464890E+02 -0.52713898411E+02  0.48886165015E+01  0.95438549712E+02  0.00000000000E+00 0.  1.
         12    1    4    4    0    0 -0.72872445166E+01 -0.16117977626E+02 -0.30903072845E+02  0.35607485823E+02  0.00000000000E+00 0. -1.
         -5    1    5    5    0  502 -0.11066699988E+03 -0.17897425394E+02 -0.75526080279E+02  0.13525450640E+03  0.47000000000E+01 0.  1.
         11    1    6    6    0    0 -0.89137259086E+01  0.37508866293E+02 -0.18556203486E+02  0.42786706439E+02  0.00000000000E+00 0. -1.
        -12    1    6    6    0    0 -0.63918124928E+02 -0.48338854199E+01  0.45902087901E+02  0.78840946318E+02  0.00000000000E+00 0.  1.
</event>
<event>
12    1  0.8684423E-002  0.1803944E+03  0.7818608E-02  0.1167774E+00
         21   -1    0    0  501  502  0.00000000000E+00  0.00000000000E+00  0.12871784418E+04  0.12871784418E+04  0.00000000000E+00 0. -1.
         21   -1    0    0  502  503 -0.00000000000E+00 -0.00000000000E+00 -0.33635073828E+02  0.33635073828E+02  0.00000000000E+00 0. -1.
         -6    2    1    2    0  503 -0.48615489770E+02  0.18141151702E+02  0.29557219318E+03  0.34627312470E+03  0.17277033392E+03 0.  0.
        -24    2    3    3    0    0 -0.57758137702E+02 -0.39251695056E+02  0.11502863224E+03  0.15654807558E+03  0.79993847870E+02 0.  0.
          6    2    1    2  501    0  0.48615489770E+02 -0.18141151702E+02  0.95797117484E+03  0.97454039097E+03  0.17125313011E+03 0.  0.
         24    2    5    5    0    0 -0.37303835065E+02 -0.66003139991E+01  0.35823994419E+03  0.36855775067E+03  0.77870518920E+02 0.  0.
          5    1    5    5  501    0  0.85919324834E+02 -0.11540837703E+02  0.59973123065E+03  0.60598264029E+03  0.47000000000E+01 0. -1.
        -13    1    6    6    0    0 -0.18433307778E+02  0.20093538073E+02  0.38652814847E+02  0.47303035881E+02  0.00000000000E+00 0.  1.
         14    1    6    6    0    0 -0.18870527286E+02 -0.26693852072E+02  0.31958712934E+03  0.32125471479E+03  0.00000000000E+00 0. -1.
         -5    1    3    3    0  503  0.91426479324E+01  0.57392846758E+02  0.18054356093E+03  0.18972504912E+03  0.47000000000E+01 0.  1.
         13    1    4    4    0    0  0.30992171914E+01 -0.25672768669E+02  0.17466682974E+00  0.25859750711E+02  0.00000000000E+00 0. -1.
        -14    1    4    4    0    0 -0.60857354893E+02 -0.13578926387E+02  0.11485396541E+03  0.13068832487E+03  0.00000000000E+00 0.  1.
</event>
<event>
12    1  0.8684423E-002  0.1776564E+03  0.7818608E-02  0.1171129E+00
         21   -1    0    0  503  502  0.00000000000E+00  0.00000000000E+00  0.13430165705E+03  0.13430165705E+03  0.00000000000E+00 0. -1.
         21   -1    0    0  501  503 -0.00000000000E+00 -0.00000000000E+00 -0.33558956938E+03  0.33558956938E+03  0.00000000000E+00 0. -1.
          6    2    1    2  501    0  0.18173065035E+02 -0.19956287603E+02 -0.23353478142E+03  0.29342850230E+03  0.17559407201E+03 0.  0.
         24    2    3    3    0    0  0.52218654791E+02 -0.52129332291E+02 -0.82823367940E+02  0.13553541462E+03  0.77883779733E+02 0.  0.
         -6    2    1    2    0  502 -0.18173065035E+02  0.19956287603E+02  0.32246869088E+02  0.17646272412E+03  0.17137887481E+03 0.  0.
        -24    2    5    5    0    0  0.54298203476E+02  0.30184978093E+02  0.20530698279E+02  0.10219247754E+03  0.78500733063E+02 0.  0.
          5    1    3    3  501    0 -0.34045589756E+02  0.32173044688E+02 -0.15071141348E+03  0.15789308768E+03  0.47000000000E+01 0. -1.
        -13    1    4    4    0    0  0.17720370833E+02  0.19926962435E+02 -0.27860287919E+02  0.38565412189E+02  0.00000000000E+00 0.  1.
         14    1    4    4    0    0  0.34498283958E+02 -0.72056294727E+02 -0.54963080020E+02  0.96970002429E+02  0.00000000000E+00 0. -1.
         -5    1    5    5    0  502 -0.72471268511E+02 -0.10228690490E+02  0.11716170809E+02  0.74270246581E+02  0.47000000000E+01 0.  1.
         13    1    6    6    0    0  0.56630085176E+01  0.12624208037E+02  0.43473896013E+02  0.45622581345E+02  0.00000000000E+00 0. -1.
        -14    1    6    6    0    0  0.48635194959E+02  0.17560770056E+02 -0.22943197734E+02  0.56569896199E+02  0.00000000000E+00 0.  1.
</event>
<event>
12    1  0.8684423E-002  0.2049546E+03  0.7818608E-02  0.1145807E+00
         21   -1    0    0  501  502  0.00000000000E+00  0.00000000000E+00  0.67680585761E+02  0.67680585761E+02  0.00000000000E+00 0.  1.
         21   -1    0    0  502  503 -0.00000000000E+00 -0.00000000000E+00 -0.80471406098E+03  0.80471406098E+03  0.00000000000E+00 0.  1.
         -6    2    1    2    0  503 -0.23491927521E+02  0.10872496398E+03 -0.57925890165E+03  0.61444875171E+03  0.17214355893E+03 0.  0.
        -24    2    3    3    0    0 -0.58665457687E+02  0.18464381934E+02 -0.22680879854E+03  0.24889805061E+03  0.82008774975E+02 0.  0.
          6    2    1    2  501    0  0.23491927521E+02 -0.10872496398E+03 -0.15777457356E+03  0.25794589502E+03  0.17108559334E+03 0.  0.
         24    2    5    5    0    0 -0.49658871815E+02 -0.85518537613E+02 -0.90536037819E+02  0.15580536264E+03  0.79366951917E+02 0.  0.
          5    1    5    5  501    0  0.73150799336E+02 -0.23206426368E+02 -0.67238535741E+02  0.10214053239E+03  0.47000000000E+01 0. -1.
        -11    1    6    6    0    0  0.29112733100E+00 -0.72428833388E+02 -0.36655707814E+02  0.81176730511E+02  0.00000000000E+00 0.  1.
         12    1    6    6    0    0 -0.49949999146E+02 -0.13089704225E+02 -0.53880330005E+02  0.74628632125E+02  0.00000000000E+00 0. -1.
         -5    1    3    3    0  503  0.35173530166E+02  0.90260582046E+02 -0.35245010311E+03  0.36555070111E+03  0.47000000000E+01 0.  1.
         13    1    4    4    0    0 -0.16824280891E+02 -0.30964014827E+02 -0.55339061436E+02  0.65606694493E+02  0.00000000000E+00 0. -1.
        -14    1    4    4    0    0 -0.41841176796E+02  0.49428396761E+02 -0.17146973711E+03  0.18329135611E+03  0.00000000000E+00 0.  1.
</event>
<event>
12    1  0.8684423E-002  0.2318032E+03  0.7818608E-02  0.1125389E+00
         21   -1    0    0  503  502  0.00000000000E+00  0.00000000000E+00  0.89482956261E+02  0.89482956261E+02  0.00000000000E+00 0.  1.
         21   -1    0    0  501  503 -0.00000000000E+00 -0.00000000000E+00 -0.98921338388E+03  0.98921338388E+03  0.00000000000E+00 0. -1.
          6    2    1    2  501    0  0.87142055650E+02 -0.12771637637E+03 -0.78808452443E+03  0.82146816290E+03  0.17270643986E+03 0.  0.
         24    2    3    3    0    0 -0.59752103632E+01 -0.95522971663E+02 -0.32646574464E+03  0.34942872770E+03  0.79750937705E+02 0.  0.
         -6    2    1    2    0  502 -0.87142055650E+02  0.12771637637E+03 -0.11164590319E+03  0.25722817724E+03  0.17261609661E+03 0.  0.
        -24    2    5    5    0    0 -0.38689674623E+02  0.11632308341E+03 -0.13778793427E+03  0.20081066098E+03  0.79444673051E+02 0.  0.
          5    1    3    3  501    0  0.93117266013E+02 -0.32193404711E+02 -0.46161877979E+03  0.47203943520E+03  0.47000000000E+01 0. -1.
        -13    1    4    4    0    0  0.11722837194E+02 -0.51765565877E+02 -0.65870443297E+02  0.84593226813E+02  0.00000000000E+00 0.  1.
         14    1    4    4    0    0 -0.17698047558E+02 -0.43757405786E+02 -0.26059530134E+03  0.26483550089E+03  0.00000000000E+00 0. -1.
         -5    1    5    5    0  502 -0.48452381027E+02  0.11393292968E+02  0.26142031080E+02  0.56417516259E+02  0.47000000000E+01 0.  1.
         11    1    6    6    0    0 -0.58085971932E+02  0.55591295910E+02 -0.92781667016E+02  0.12277137309E+03  0.00000000000E+00 0. -1.
        -12    1    6    6    0    0  0.19396297309E+02  0.60731787496E+02 -0.45006267256E+02  0.78039287888E+02  0.00000000000E+00 0.  1.
</event>
<event>
12    1  0.8684423E-002  0.1992205E+03  0.7818608E-02  0.1150968E+00
         21   -1    0    0  503  502  0.00000000000E+00  0.00000000000E+00  0.63836358528E+03  0.63836358528E+03  0.00000000000E+00 0. -1.
         21   -1    0    0  501  503 -0.00000000000E+00 -0.00000000000E+00 -0.61437834814E+03  0.61437834814E+03  0.00000000000E+00 0.  1.
          6    2    1    2  501    0 -0.73451826179E+02  0.65382253943E+02 -0.58227691543E+03  0.61541465967E+03  0.17325930620E+03 0.  0.
         24    2    3    3    0    0 -0.51006665934E+02  0.87709956929E+02 -0.56407794373E+03  0.57859613022E+03  0.79340020152E+02 0.  0.
         -6    2    1    2    0  502  0.73451826179E+02 -0.65382253943E+02  0.60626215258E+03  0.63732727375E+03  0.17018297894E+03 0.  0.
        -24    2    5    5    0    0  0.13701591650E+02 -0.45894851855E+02  0.53079443248E+03  0.53900476289E+03  0.80556401498E+02 0.  0.
          5    1    3    3  501    0 -0.22445160245E+02 -0.22327702987E+02 -0.18198971708E+02  0.36818529443E+02  0.47000000000E+01 0. -1.
        -11    1    4    4    0    0  0.19212952351E+02  0.38480592232E+02 -0.19460691744E+03  0.19930315058E+03  0.00000000000E+00 0.  1.
         12    1    4    4    0    0 -0.70219618285E+02  0.49229364697E+02 -0.36947102629E+03  0.37929297965E+03  0.00000000000E+00 0. -1.
         -5    1    5    5    0  502  0.59750234529E+02 -0.19487402087E+02  0.75467720099E+02  0.98322510868E+02  0.47000000000E+01 0.  1.
         13    1    6    6    0    0  0.45596327750E+02 -0.40294849846E+02  0.37174425172E+03  0.37669150337E+03  0.00000000000E+00 0. -1.
        -14    1    6    6    0    0 -0.31894736100E+02 -0.56000020094E+01  0.15905018076E+03  0.16231325951E+03  0.00000000000E+00 0.  1.
</event>
<event>
12    1  0.8684423E-002  0.2205180E+03  0.7818608E-02  0.1133769E+00
         21   -1    0    0  503  502  0.00000000000E+00  0.00000000000E+00  0.33365224462E+03  0.33365224462E+03  0.00000000000E+00 0. -1.
         21   -1    0    0  501  503 -0.00000000000E+00 -0.00000000000E+00 -0.21659932721E+03  0.21659932721E+03  0.00000000000E+00 0. -1.
          6    2    1    2  501    0 -0.57609154058E+02 -0.12390104786E+03 -0.99764734271E+02  0.24203553118E+03  0.17308354012E+03 0.  0.
         24    2    3    3    0    0  0.30421749576E+02 -0.70054266189E+02 -0.80495210284E+02  0.13695308524E+03  0.80271947900E+02 0.  0.
         -6    2    1    2    0  502  0.57609154058E+02  0.12390104786E+03  0.21681765168E+03  0.30821604065E+03  0.17122193009E+03 0.  0.
        -24    2    5    5    0    0 -0.26018845020E+02  0.76389645188E+02  0.15951726854E+03  0.19616069932E+03  0.80752107129E+02 0.  0.
          5    1    3    3  501    0 -0.88030903633E+02 -0.53846781669E+02 -0.19269523986E+02  0.10508244594E+03  0.47000000000E+01 0. -1.
        -11    1    4    4    0    0  0.38957648851E+02 -0.18271991364E+00 -0.18387215122E+02  0.43079246401E+02  0.00000000000E+00 0.  1.
         12    1    4    4    0    0 -0.85358992750E+01 -0.69871546276E+02 -0.62107995162E+02  0.93873838840E+02  0.00000000000E+00 0. -1.
         -5    1    5    5    0  502  0.83627999078E+02  0.47511402670E+02  0.57300383135E+02  0.11205534133E+03  0.47000000000E+01 0.  1.
         11    1    6    6    0    0 -0.12369375083E+02  0.90469882467E+02  0.14648768179E+03  0.17261645921E+03  0.00000000000E+00 0. -1.
        -12    1    6    6    0    0 -0.13649469937E+02 -0.14080237279E+02  0.13029586750E+02  0.23544240108E+02  0.00000000000E+00 0.  1.
</event>
<event>
12    1  0.8684423E-002  0.2339909E+03  0.7818608E-02  0.1124525E+00
         21   -1    0    0  501  502  0.00000000000E+00  0.00000000000E+00  0.23994917266E+03  0.23994917266E+03  0.00000000000E+00 0.  1.
         21   -1    0    0  502  503 -0.00000000000E+00 -0.00000000000E+00 -0.28295503207E+03  0.28295503207E+03  0.00000000000E+00 0.  1.
         -6    2    1    2    0  503 -0.12077148512E+03 -0.93843526450E+02 -0.14022449166E+03  0.26952068404E+03  0.17200619753E+03 0.  0.
        -24    2    3    3    0    0 -0.13261863084E+03 -0.57009865338E+02 -0.15639271031E+03  0.22732382696E+03  0.79872501376E+02 0.  0.
          6    2    1    2  501    0  0.12077148512E+03  0.93843526450E+02  0.97218632256E+02  0.25338352070E+03  0.17708581826E+03 0.  0.
         24    2    5    5    0    0  0.92202475928E+02  0.10746720040E+03  0.12929453353E+03  0.20807627822E+03  0.80797063235E+02 0.  0.
          5    1    5    5  501    0  0.28569009195E+02 -0.13623673952E+02 -0.32075901274E+02  0.45307242477E+02  0.47000000000E+01 0. -1.
        -11    1    6    6    0    0  0.83039872196E+02  0.10607335611E+03  0.77406681189E+02  0.15536721515E+03  0.00000000000E+00 0.  1.
         12    1    6    6    0    0  0.91626037320E+01  0.13938442919E+01  0.51887852341E+02  0.52709063069E+02  0.00000000000E+00 0. -1.
         -5    1    3    3    0  503  0.11847145714E+02 -0.36833661112E+02  0.16168218652E+02  0.42196857073E+02  0.47000000000E+01 0.  1.
         13    1    4    4    0    0 -0.61213770616E+00 -0.31297780079E+01  0.86524019517E+01  0.92214034986E+01  0.00000000000E+00 0. -1.
        -14    1    4    4    0    0 -0.13200649313E+03 -0.53880087330E+02 -0.16504511227E+03  0.21810242347E+03  0.00000000000E+00 0.  1.
</event>
<event>
12    1  0.8684423E-002  0.1892474E+03  0.7818608E-02  0.1159303E+00
         21   -1    0    0  503  502  0.00000000000E+00  0.00000000000E+00  0.71105015618E+03  0.71105015618E+03  0.00000000000E+00 0.  1.
         21   -1    0    0  501  503 -0.00000000000E+00 -0.00000000000E+00 -0.66375528345E+02  0.66375528345E+02  0.00000000000E+00 0.  1.
          6    2    1    2  501    0  0.41912228280E+02 -0.64271241338E+02  0.13078704058E+03  0.23004306849E+03  0.17299461273E+03 0.  0.
         24    2    3    3    0    0  0.52647676328E+02 -0.15287644359E+02  0.14123401459E+03  0.17860502922E+03  0.94589744127E+02 0.  0.
         -6    2    1    2    0  502 -0.41912228280E+02  0.64271241338E+02  0.51388758726E+03  0.54738261604E+03  0.17222034914E+03 0.  0.
        -24    2    5    5    0    0  0.32782392914E+02  0.79520280578E+01  0.27354251433E+03  0.28943110063E+03  0.88356860683E+02 0.  0.
          5    1    3    3  501    0 -0.10735448048E+02 -0.48983596980E+02 -0.10446974010E+02  0.51438039269E+02  0.47000000000E+01 0. -1.
        -11    1    4    4    0    0 -0.12652584789E+01 -0.38864406632E+02  0.19733623446E+02  0.43605720682E+02  0.00000000000E+00 0.  1.
         12    1    4    4    0    0  0.53912934807E+02  0.23576762273E+02  0.12150039114E+03  0.13499930854E+03  0.00000000000E+00 0. -1.
         -5    1    5    5    0  502 -0.74694621194E+02  0.56319213281E+02  0.24034507293E+03  0.25795151541E+03  0.47000000000E+01 0.  1.
         11    1    6    6    0    0 -0.11537004597E+01 -0.31884356492E+02  0.17470462107E+03  0.17759405350E+03  0.00000000000E+00 0. -1.
        -12    1    6    6    0    0  0.33936093373E+02  0.39836384550E+02  0.98837893262E+02  0.11183704713E+03  0.00000000000E+00 0.  1.
</event>
<event>
12    1  0.8684423E-002  0.1892200E+03  0.7818608E-02  0.1159603E+00
         21   -1    0    0  503  502  0.00000000000E+00  0.00000000000E+00  0.53370713583E+03  0.53370713583E+03  0.00000000000E+00 0.  1.
         21   -1    0    0  501  503 -0.00000000000E+00 -0.00000000000E+00 -0.40773185578E+03  0.40773185578E+03  0.00000000000E+00 0.  1.
          6    2    1    2  501    0  0.43492255809E+02  0.59411671459E+02 -0.36764213624E+03  0.41347909386E+03  0.17430690663E+03 0.  0.
         24    2    3    3    0    0 -0.43650696526E+02  0.40453275909E+02 -0.21202835200E+03  0.23406043611E+03  0.79286914810E+02 0.  0.
         -6    2    1    2    0  502 -0.43492255809E+02 -0.59411671459E+02  0.49361741629E+03  0.52795989775E+03  0.17222710864E+03 0.  0.
        -24    2    5    5    0    0 -0.33015511895E+01 -0.42545337803E+02  0.46765797060E+03  0.47701140642E+03  0.83754990160E+02 0.  0.
          5    1    3    3  501    0  0.87142952335E+02  0.18958395550E+02 -0.15561378423E+03  0.17941865775E+03  0.47000000000E+01 0. -1.
        -13    1    4    4    0    0  0.15149366275E+02 -0.10971255777E+02 -0.64109409574E+02  0.66782393996E+02  0.00000000000E+00 0.  1.
         14    1    4    4    0    0 -0.58800062801E+02  0.51424531686E+02 -0.14791894243E+03  0.16727804211E+03  0.00000000000E+00 0. -1.
         -5    1    5    5    0  502 -0.40190704620E+02 -0.16866333655E+02  0.25959445688E+02  0.50948491334E+02  0.47000000000E+01 0.  1.
         13    1    6    6    0    0 -0.33951898546E+02  0.69727092147E+01  0.14061152733E+03  0.14482041192E+03  0.00000000000E+00 0. -1.
        -14    1    6    6    0    0  0.30650347356E+02 -0.49518047018E+02  0.32704644327E+03  0.33219099450E+03  0.00000000000E+00 0.  1.
</event>
<event>
12    1  0.8684423E-002  0.1866076E+03  0.7818608E-02  0.1161718E+00
         21   -1    0    0  501  502  0.00000000000E+00  0.00000000000E+00  0.41500364293E+02  0.41500364293E+02  0.00000000000E+00 0. -1.
         21   -1    0    0  502  503 -0.00000000000E+00 -0.00000000000E+00 -0.90870059359E+03  0.90870059359E+03  0.00000000000E+00 0. -1.
         -6    2    1    2    0  503 -0.64494889624E+02 -0.32934365198E+02 -0.56875858067E+03  0.59858893513E+03  0.17198292642E+03 0.  0.
        -24    2    3    3    0    0 -0.35290191221E+02  0.50860131175E+02 -0.27902572410E+03  0.29553506169E+03  0.75189543427E+02 0.  0.
          6    2    1    2  501    0  0.64494889624E+02  0.32934365198E+02 -0.29844164863E+03  0.35161202276E+03  0.17122889274E+03 0.  0.
         24    2    5    5    0    0 -0.29445896786E+01  0.71390870351E+02 -0.16395663983E+03  0.19625664387E+03  0.80805714770E+02 0.  0.
          5    1    5    5  501    0  0.67439479303E+02 -0.38456505153E+02 -0.13448500880E+03  0.15535537889E+03  0.47000000000E+01 0. -1.
        -11    1    6    6    0    0 -0.15062737203E+02 -0.10970076879E+02 -0.61401627852E+02  0.64166880411E+02  0.00000000000E+00 0.  1.
         12    1    6    6    0    0  0.12118147524E+02  0.82360947230E+02 -0.10255501198E+03  0.13208976346E+03  0.00000000000E+00 0. -1.
         -5    1    3    3    0  503 -0.29204698404E+02 -0.83794496373E+02 -0.28973285657E+03  0.30305387344E+03  0.47000000000E+01 0.  1.
         11    1    4    4    0    0 -0.24941913100E+02  0.17536108687E+02 -0.24468500224E+03  0.24657729916E+03  0.00000000000E+00 0. -1.
        -12    1    4    4    0    0 -0.10348278120E+02  0.33324022489E+02 -0.34340721858E+02  0.48957762536E+02  0.00000000000E+00 0.  1.
</event>
<event>
12    1  0.8684423E-002  0.2167798E+03  0.7818608E-02  0.1136852E+00
         21   -1    0    0  501  502  0.00000000000E+00  0.00000000000E+00  0.44320766927E+03  0.44320766927E+03  0.00000000000E+00 0. -1.
         21   -1    0    0  502  503 -0.00000000000E+00 -0.00000000000E+00 -0.32123008558E+03  0.32123008558E+03  0.00000000000E+00 0.  1.
         -6    2    1    2    0  503 -0.10613815058E+02 -0.12732901756E+03 -0.25299096257E+03  0.33131547984E+03  0.17158143331E+03 0.  0.
        -24    2    3    3    0    0 -0.32366330390E+02 -0.52575490775E+02 -0.45835736398E+02  0.10996363453E+03  0.78608680279E+02 0.  0.
          6    2    1    2  501    0  0.10613815058E+02  0.12732901756E+03  0.37496854626E+03  0.43312227500E+03  0.17512327838E+03 0.  0.
         24    2    5    5    0    0  0.12251589563E+02 -0.85730683566E+01  0.16685256274E+03  0.18451332130E+03  0.77342026718E+02 0.  0.
          5    1    5    5  501    0 -0.16377745054E+01  0.13590208592E+03  0.20811598352E+03  0.24860895370E+03  0.47000000000E+01 0. -1.
        -11    1    6    6    0    0 -0.82120992124E+01 -0.29357926118E+02  0.24237054494E+02  0.38945618624E+02  0.00000000000E+00 0.  1.
         12    1    6    6    0    0  0.20463688776E+02  0.20784857761E+02  0.14261550825E+03  0.14556770268E+03  0.00000000000E+00 0. -1.
         -5    1    3    3    0  503  0.21752515332E+02 -0.74753526784E+02 -0.20715522618E+03  0.22135184531E+03  0.47000000000E+01 0.  1.
         11    1    4    4    0    0 -0.69612010234E+01  0.14655104010E+02  0.99067215555E+01  0.19009827069E+02  0.00000000000E+00 0. -1.
        -12    1    4    4    0    0 -0.25405129366E+02 -0.67230594785E+02 -0.55742457953E+02  0.90953807463E+02  0.00000000000E+00 0.  1.
</event>
<event>
12    1  0.8684423E-002  0.2038249E+03  0.7818608E-02  0.1146573E+00
         21   -1    0    0  501  502  0.00000000000E+00  0.00000000000E+00  0.25253981601E+03  0.25253981601E+03  0.00000000000E+00 0.  1.
         21   -1    0    0  502  503 -0.00000000000E+00 -0.00000000000E+00 -0.24483433618E+03  0.24483433618E+03  0.00000000000E+00 0. -1.
         -6    2    1    2    0  503  0.96171364675E+02  0.54541376987E+02 -0.13866685204E+03  0.24652197511E+03  0.17123345226E+03 0.  0.
        -24    2    3    3    0    0  0.77947526444E+02 -0.14577107309E+02 -0.29446982025E+02  0.11590596095E+03  0.79238614930E+02 0.  0.
          6    2    1    2  501    0 -0.96171364675E+02 -0.54541376987E+02  0.14637233186E+03  0.25085217707E+03  0.17110891859E+03 0.  0.
         24    2    5    5    0    0 -0.11930762944E+02 -0.81246100960E+02  0.76747120115E+02  0.13824941790E+03  0.80495397870E+02 0.  0.
          5    1    5    5  501    0 -0.84240601731E+02  0.26704723972E+02  0.69625211749E+02  0.11260275917E+03  0.47000000000E+01 0. -1.
        -11    1    6    6    0    0 -0.93709400174E+00 -0.95336033613E+02  0.72775263849E+02  0.11994197130E+03  0.00000000000E+00 0.  1.
         12    1    6    6    0    0 -0.10993668942E+02  0.14089932653E+02  0.39718562659E+01  0.18307446604E+02  0.00000000000E+00 0. -1.
         -5    1    3    3    0  503  0.18223838231E+02  0.69118484296E+02 -0.10921987001E+03  0.13061601417E+03  0.47000000000E+01 0.  1.
         13    1    4    4    0    0  0.82669791382E+02  0.82551616064E+01 -0.37617326050E+02  0.91200358110E+02  0.00000000000E+00 0. -1.
        -14    1    4    4    0    0 -0.47222649378E+01 -0.22832268915E+02  0.81703440247E+01  0.24705602835E+02  0.00000000000E+00 0.  1.
</event>
<event>
12    1  0.8684423E-002  0.2707853E+03  0.7818608E-02  0.1101193E+00
         21   -1    0    0  503  502  0.00000000000E+00  0.00000000000E+00  0.19164338704E+03  0.19164338704E+03  0.00000000000E+00 0. -1.
         21   -1    0    0  501  503 -0.00000000000E+00 -0.00000000000E+00 -0.79492034375E+03  0.79492034375E+03  0.00000000000E+00 0. -1.
          6    2    1    2  501    0 -0.17123818010E+03  0.11486992951E+03 -0.65910272764E+03  0.71255953619E+03  0.17551943482E+03 0.  0.
         24    2    3    3    0    0 -0.83810831822E+02  0.13317272794E+03 -0.37740422825E+03  0.41700130467E+03  0.81834623479E+02 0.  0.
         -6    2    1    2    0  502  0.17123818010E+03 -0.11486992951E+03  0.55825770936E+02  0.27400419460E+03  0.17159302703E+03 0.  0.
        -24    2    5    5    0    0  0.12525377867E+03 -0.73311026127E+01  0.60984957499E+01  0.14682693105E+03  0.76017773554E+02 0.  0.
          5    1    3    3  501    0 -0.87427348283E+02 -0.18302798430E+02 -0.28169849939E+03  0.29555823152E+03  0.47000000000E+01 0. -1.
        -11    1    4    4    0    0 -0.94433344711E+02  0.11261140621E+03 -0.35730229527E+03  0.38634688508E+03  0.00000000000E+00 0.  1.
         12    1    4    4    0    0  0.10622512890E+02  0.20561321726E+02 -0.20101932978E+02  0.30654419594E+02  0.00000000000E+00 0. -1.
         -5    1    5    5    0  502  0.45984401439E+02 -0.10753882689E+03  0.49727275186E+02  0.12717726354E+03  0.47000000000E+01 0.  1.
         11    1    6    6    0    0  0.68214035207E+02 -0.41580700697E+02 -0.11858091348E+01  0.79896904902E+02  0.00000000000E+00 0. -1.
        -12    1    6    6    0    0  0.57039743459E+02  0.34249598084E+02  0.72843048847E+01  0.66930026150E+02  0.00000000000E+00 0.  1.
</event>
<event>
12    1  0.8684423E-002  0.1714730E+03  0.7818608E-02  0.1176397E+00
         21   -1    0    0  501  502  0.00000000000E+00  0.00000000000E+00  0.30589724867E+03  0.30589724867E+03  0.00000000000E+00 0. -1.
         21   -1    0    0  502  503 -0.00000000000E+00 -0.00000000000E+00 -0.22567672422E+03  0.22567672422E+03  0.00000000000E+00 0. -1.
         -6    2    1    2    0  503 -0.36224770189E+01 -0.45435257490E+01 -0.16138516553E+03  0.23547434016E+03  0.17137452336E+03 0.  0.
        -24    2    3    3    0    0 -0.59422661077E+02 -0.28833261743E+02 -0.61282565259E+02  0.11822984180E+03  0.76552812199E+02 0.  0.
          6    2    1    2  501    0  0.36224770189E+01  0.45435257490E+01  0.24160568997E+03  0.29609963273E+03  0.17107868689E+03 0.  0.
         24    2    5    5    0    0  0.53544825135E+02  0.21009485236E+02  0.21714842335E+03  0.23793077032E+03  0.78416624079E+02 0.  0.
          5    1    5    5  501    0 -0.49922348117E+02 -0.16465959487E+02  0.24457266623E+02  0.58168862409E+02  0.47000000000E+01 0. -1.
        -13    1    6    6    0    0  0.47617025198E+02  0.46670701399E+02  0.12003727026E+03  0.13731162263E+03  0.00000000000E+00 0.  1.
         14    1    6    6    0    0  0.59277999379E+01 -0.25661216163E+02  0.97111153085E+02  0.10061914768E+03  0.00000000000E+00 0. -1.
         -5    1    3    3    0  503  0.55800184059E+02  0.24289735994E+02 -0.10010260027E+03  0.11724449836E+03  0.47000000000E+01 0.  1.
         11    1    4    4    0    0 -0.96792782101E+01  0.89939946782E+01 -0.53673459076E+02  0.55275858891E+02  0.00000000000E+00 0. -1.
        -12    1    4    4    0    0 -0.49743382867E+02 -0.37827256421E+02 -0.76091061823E+01  0.62953982911E+02  0.00000000000E+00 0.  1.
</event>
<event>
12    1  0.8684423E-002  0.2202816E+03  0.7818608E-02  0.1133730E+00
         21   -1    0    0  503  502  0.00000000000E+00  0.00000000000E+00  0.97291658048E+03  0.97291658048E+03  0.00000000000E+00 0.  1.
         21   -1    0    0  501  503 -0.00000000000E+00 -0.00000000000E+00 -0.52605248715E+02  0.52605248715E+02  0.00000000000E+00 0. -1.
          6    2    1    2  501    0 -0.78853592241E+02 -0.11125295091E+03  0.34217137915E+03  0.40694623997E+03  0.17299965728E+03 0.  0.
         24    2    3    3    0    0 -0.96879001304E+02 -0.26903324293E+02  0.15453616015E+03  0.20038186673E+03  0.78499286416E+02 0.  0.
         -6    2    1    2    0  502  0.78853592241E+02  0.11125295091E+03  0.57813995261E+03  0.61857558923E+03  0.17261183820E+03 0.  0.
        -24    2    5    5    0    0  0.81133698453E+02  0.85852391149E+02  0.23402295982E+03  0.27348287408E+03  0.77928342732E+02 0.  0.
          5    1    3    3  501    0  0.18025409063E+02 -0.84349626614E+02  0.18763521900E+03  0.20656437323E+03  0.47000000000E+01 0. -1.
        -11    1    4    4    0    0 -0.44699549724E+02 -0.23322594002E+02  0.13574624549E+03  0.14480689314E+03  0.00000000000E+00 0.  1.
         12    1    4    4    0    0 -0.52179451580E+02 -0.35807302910E+01  0.18789914666E+02  0.55574973592E+02  0.00000000000E+00 0. -1.
         -5    1    5    5    0  502 -0.22801062122E+01  0.25400559758E+02  0.34411699279E+03  0.34509271515E+03  0.47000000000E+01 0.  1.
         11    1    6    6    0    0  0.63033100553E+02  0.46669253434E+02  0.20981785165E+03  0.22399714697E+03  0.00000000000E+00 0. -1.
        -12    1    6    6    0    0  0.18100597900E+02  0.39183137715E+02  0.24205108168E+02  0.49485727103E+02  0.00000000000E+00 0.  1.
</event>
<event>
12    1  0.8684423E-002  0.2355268E+03  0.7818608E-02  0.1123275E+00
         21   -1    0    0  503  502  0.00000000000E+00  0.00000000000E+00  0.18963937656E+04  0.18963937656E+04  0.00000000000E+00 0. -1.
         21   -1    0    0  501  503 -0.00000000000E+00 -0.00000000000E+00 -0.32774846993E+02  0.32774846993E+02  0.00000000000E+00 0.  1.
          6    2    1    2  501    0 -0.13663225250E+03  0.78575449657E+02  0.60558953001E+03  0.64977807552E+03  0.17501541320E+03 0.  0.
         24    2    3    3    0    0 -0.10451435105E+03 -0.18678366142E+02  0.34489507095E+03  0.36964675762E+03  0.80087355561E+02 0.  0.
         -6    2    1    2    0  502  0.13663225250E+03 -0.78575449657E+02  0.12580293886E+04  0.12793905370E+04  0.17134681224E+03 0.  0.
        -24    2    5    5    0    0  0.59767162209E+02 -0.77264812057E+02  0.10497369890E+04  0.10573144834E+04  0.80151144160E+02 0.  0.
          5    1    3    3  501    0 -0.32117901450E+02  0.97253815799E+02  0.26069445906E+03  0.28013131789E+03  0.47000000000E+01 0. -1.
        -13    1    4    4    0    0 -0.51593411224E+02 -0.89587308139E+01  0.59662534973E+02  0.79383606740E+02  0.00000000000E+00 0.  1.
         14    1    4    4    0    0 -0.52920939826E+02 -0.97196353281E+01  0.28523253597E+03  0.29026315088E+03  0.00000000000E+00 0. -1.
         -5    1    5    5    0  502  0.76865090291E+02 -0.13106375996E+01  0.20829239958E+03  0.22207605364E+03  0.47000000000E+01 0.  1.
         11    1    6    6    0    0 -0.29005865902E+01 -0.61536818992E+02  0.53734712464E+03  0.54086701309E+03  0.00000000000E+00 0. -1.
        -12    1    6    6    0    0  0.62667748799E+02 -0.15727993065E+02  0.51238986434E+03  0.51644747031E+03  0.00000000000E+00 0.  1.
</event>
<event>
12    1  0.8684423E-002  0.1705286E+03  0.7818608E-02  0.1177330E+00
         21   -1    0    0  503  502  0.00000000000E+00  0.00000000000E+00  0.19251560442E+03  0.19251560442E+03  0.00000000000E+00 0. -1.
         21   -1    0    0  501  503 -0.00000000000E+00 -0.00000000000E+00 -0.62352393567E+03  0.62352393567E+03  0.00000000000E+00 0. -1.
          6    2    1    2  501    0  0.45691137045E+01 -0.37131455344E+01 -0.57073987782E+03  0.59567105366E+03  0.17042691037E+03 0.  0.
         24    2    3    3    0    0 -0.56830057223E+02  0.20884800616E+02 -0.28419956491E+03  0.30155822145E+03  0.80635835257E+02 0.  0.
         -6    2    1    2    0  502 -0.45691137045E+01  0.37131455344E+01  0.13973154658E+03  0.22036848643E+03  0.17030179227E+03 0.  0.
        -24    2    5    5    0    0  0.44941124442E+02 -0.37135291775E+02  0.11333790123E+03  0.15080863431E+03  0.80616560114E+02 0.  0.
          5    1    3    3  501    0  0.61399170928E+02 -0.24597946150E+02 -0.28654031292E+03  0.29411283221E+03  0.47000000000E+01 0. -1.
        -11    1    4    4    0    0 -0.33195804237E+02 -0.26528946583E+02 -0.79850746097E+02  0.90453789738E+02  0.00000000000E+00 0.  1.
         12    1    4    4    0    0 -0.23634252987E+02  0.47413747199E+02 -0.20434881881E+03  0.21110443171E+03  0.00000000000E+00 0. -1.
         -5    1    5    5    0  502 -0.49510238147E+02  0.40848437309E+02  0.26393645345E+02  0.69559852117E+02  0.47000000000E+01 0.  1.
         13    1    6    6    0    0  0.42342703682E+01 -0.22559416501E+02  0.10409287314E+03  0.10659353900E+03  0.00000000000E+00 0. -1.
        -14    1    6    6    0    0  0.40706854074E+02 -0.14575875273E+02  0.92450280955E+01  0.44215095308E+02  0.00000000000E+00 0.  1.
</event>
<event>
12    1  0.8684423E-002  0.1767241E+03  0.7818608E-02  0.1171096E+00
         21   -1    0    0  501  502  0.00000000000E+00  0.00000000000E+00  0.25467980361E+03  0.25467980361E+03  0.00000000000E+00 0. -1.
         21   -1    0    0  502  503 -0.00000000000E+00 -0.00000000000E+00 -0.15184523715E+03  0.15184523715E+03  0.00000000000E+00 0. -1.
         -6    2    1    2    0  503 -0.18653911406E+02 -0.35853631192E+02  0.14097288569E+03  0.22606361588E+03  0.17204055524E+03 0.  0.
        -24    2    3    3    0    0 -0.14494556045E+02 -0.67925016730E+01  0.16775168729E+03  0.18605057175E+03  0.78854019705E+02 0.  0.
          6    2    1    2  501    0  0.18653911406E+02  0.35853631192E+02 -0.38138319237E+02  0.18046142488E+03  0.17169258340E+03 0.  0.
         24    2    5    5    0    0 -0.26385629857E+02 -0.31319428571E+02 -0.42419047216E+02  0.99336860984E+02  0.79945783595E+02 0.  0.
          5    1    5    5  501    0  0.45039541263E+02  0.67173059763E+02  0.42807279792E+01  0.81124563894E+02  0.47000000000E+01 0. -1.
        -13    1    6    6    0    0 -0.49350478350E+02 -0.69223125366E+01 -0.65647926372E+01  0.50264148521E+02  0.00000000000E+00 0.  1.
         14    1    6    6    0    0  0.22964848493E+02 -0.24397116034E+02 -0.35854254579E+02  0.49072712463E+02  0.00000000000E+00 0. -1.
         -5    1    3    3    0  503 -0.41593553606E+01 -0.29061129519E+02 -0.26778801601E+02  0.40013044137E+02  0.47000000000E+01 0.  1.
         11    1    4    4    0    0 -0.31907701914E+02 -0.22865452809E+02  0.39720714583E+02  0.55845013569E+02  0.00000000000E+00 0. -1.
        -12    1    4    4    0    0  0.17413145868E+02  0.16072951136E+02  0.12803097271E+03  0.13020555818E+03  0.00000000000E+00 0.  1.
</event>
<event>
12    1  0.8684423E-002  0.1745855E+03  0.7818608E-02  0.1174214E+00
         21   -1    0    0  501  502  0.00000000000E+00  0.00000000000E+00  0.64505561235E+02  0.64505561235E+02  0.00000000000E+00 0.  1.
         21   -1    0    0  502  503 -0.00000000000E+00 -0.00000000000E+00 -0.63017868045E+03  0.63017868045E+03  0.00000000000E+00 0.  1.
         -6    2    1    2    0  503  0.85534600035E+00  0.18184911470E+02 -0.46013938089E+03  0.49068062132E+03  0.16943376188E+03 0.  0.
        -24    2    3    3    0    0  0.34062129513E+02 -0.28880022719E+02 -0.38670010576E+03  0.39722894592E+03  0.79117503156E+02 0.  0.
          6    2    1    2  501    0 -0.85534600035E+00 -0.18184911470E+02 -0.10553373832E+03  0.20400362037E+03  0.17363376566E+03 0.  0.
         24    2    5    5    0    0 -0.13751612721E+02 -0.67387028079E+02 -0.24772997584E+02  0.10844448047E+03  0.80102344090E+02 0.  0.
          5    1    5    5  501    0  0.12896266721E+02  0.49202116609E+02 -0.80760740737E+02  0.95559139900E+02  0.47000000000E+01 0. -1.
        -11    1    6    6    0    0  0.20688975071E+02 -0.27182119975E+02 -0.40724139953E+02  0.53154086491E+02  0.00000000000E+00 0.  1.
         12    1    6    6    0    0 -0.34440587791E+02 -0.40204908104E+02  0.15951142369E+02  0.55290393976E+02  0.00000000000E+00 0. -1.
         -5    1    3    3    0  503 -0.33206783513E+02  0.47064934190E+02 -0.73439275131E+02  0.93451675391E+02  0.47000000000E+01 0.  1.
         11    1    4    4    0    0  0.25393011357E+02 -0.19696001497E+02 -0.45006924388E+02  0.55302447899E+02  0.00000000000E+00 0. -1.
        -12    1    4    4    0    0  0.86691181568E+01 -0.91840212220E+01 -0.34169318137E+03  0.34192649803E+03  0.00000000000E+00 0.  1.
</event>
<event>
12    1  0.8684423E-002  0.1809939E+03  0.7818608E-02  0.1166979E+00
         21   -1    0    0  503  502  0.00000000000E+00  0.00000000000E+00  0.87501453491E+02  0.87501453491E+02  0.00000000000E+00 0.  1.
         21   -1    0    0  501  503 -0.00000000000E+00 -0.00000000000E+00 -0.39109452160E+03  0.39109452160E+03  0.00000000000E+00 0. -1.
          6    2    1    2  501    0 -0.48265870584E+02  0.29115860135E+02 -0.20316946218E+03  0.27209668313E+03  0.17199257843E+03 0.  0.
         24    2    3    3    0    0 -0.84732705981E+02  0.18386902827E+02 -0.20157898709E+03  0.23376183971E+03  0.80577912695E+02 0.  0.
         -6    2    1    2    0  502  0.48265870584E+02 -0.29115860135E+02 -0.10042360593E+03  0.20649929196E+03  0.17140516147E+03 0.  0.
        -24    2    5    5    0    0  0.64570904633E+02 -0.78439874391E+02 -0.61708811685E+02  0.14154055266E+03  0.76834464849E+02 0.  0.
          5    1    3    3  501    0  0.36466835397E+02  0.10728957308E+02 -0.15904750935E+01  0.38334843417E+02  0.47000000000E+01 0. -1.
        -11    1    4    4    0    0 -0.28626888603E+02  0.27183262792E+02 -0.21525126460E+02  0.44963981098E+02  0.00000000000E+00 0.  1.
         12    1    4    4    0    0 -0.56105817378E+02 -0.87963599646E+01 -0.18005386062E+03  0.18879785862E+03  0.00000000000E+00 0. -1.
         -5    1    5    5    0  502 -0.16305034049E+02  0.49324014256E+02 -0.38714794245E+02  0.64958739297E+02  0.47000000000E+01 0.  1.
         11    1    6    6    0    0  0.56797762925E+02 -0.85796370662E+02 -0.28671798550E+02  0.10681327223E+03  0.00000000000E+00 0. -1.
        -12    1    6    6    0    0  0.77731417081E+01  0.73564962713E+01 -0.33037013135E+02  0.34727280433E+02  0.00000000000E+00 0.  1.
</event>
<event>
12    1  0.8684423E-002  0.1826795E+03  0.7818608E-02  0.1165334E+00
         21   -1    0    0  503  502  0.00000000000E+00  0.00000000000E+00  0.69483399247E+02  0.69483399247E+02  0.00000000000E+00 0. -1.
         21   -1    0    0  501  503 -0.00000000000E+00 -0.00000000000E+00 -0.10793126740E+04  0.10793126740E+04  0.00000000000E+00 0. -1.
          6    2    1    2  501    0  0.37097961110E+02 -0.48009865996E+02 -0.93296963312E+03  0.95060627623E+03  0.17186840935E+03 0.  0.
         24    2    3    3    0    0  0.22212833997E+02 -0.46042402479E+01 -0.86081014346E+03  0.86496342887E+03  0.81566054087E+02 0.  0.
         -6    2    1    2    0  502 -0.37097961110E+02  0.48009865996E+02 -0.76859641678E+02  0.19818979706E+03  0.17230956209E+03 0.  0.
        -24    2    5    5    0    0 -0.70111130564E+02  0.64443795762E+02 -0.95134198764E+02  0.15676525311E+03  0.80350826798E+02 0.  0.
          5    1    3    3  501    0  0.14885127114E+02 -0.43405625748E+02 -0.72159489659E+02  0.85642847359E+02  0.47000000000E+01 0. -1.
        -11    1    4    4    0    0 -0.23808625537E+02 -0.67258245882E+01 -0.56911683100E+03  0.56965432913E+03  0.00000000000E+00 0.  1.
         12    1    4    4    0    0  0.46021459534E+02  0.21215843403E+01 -0.29169331245E+03  0.29530909974E+03  0.00000000000E+00 0. -1.
         -5    1    5    5    0  502  0.33013169454E+02 -0.16433929766E+02  0.18274557085E+02  0.41424543952E+02  0.47000000000E+01 0.  1.
         11    1    6    6    0    0 -0.62623578150E+02  0.49348965416E+02 -0.23421988367E+02  0.83100075012E+02  0.00000000000E+00 0. -1.
        -12    1    6    6    0    0 -0.74875524143E+01  0.15094830346E+02 -0.71712210396E+02  0.73665178098E+02  0.00000000000E+00 0.  1.
</event>
<event>
12    1  0.8684423E-002  0.1961523E+03  0.7818608E-02  0.1153774E+00
         21   -1    0    0  501  502  0.00000000000E+00  0.00000000000E+00  0.23327310868E+04  0.23327310868E+04  0.00000000000E+00 0.  1.
         21   -1    0    0  502  503 -0.00000000000E+00 -0.00000000000E+00 -0.23926884330E+02  0.23926884330E+02  0.00000000000E+00 0.  1.
         -6    2    1    2    0  503 -0.85389004423E+02  0.91270969964E+01  0.47824191967E+03  0.51561642169E+03  0.17254093605E+03 0.  0.
        -24    2    3    3    0    0 -0.83164789274E+02  0.17538032262E+02  0.48804471790E+03  0.50169249200E+03  0.79270076971E+02 0.  0.
          6    2    1    2  501    0  0.85389004423E+02 -0.91270969964E+01  0.18305622828E+04  0.18410415494E+04  0.17635512348E+03 0.  0.
         24    2    5    5    0    0  0.12524085168E+02 -0.83049185574E+01  0.42259923996E+03  0.43118624040E+03  0.84294910349E+02 0.  0.
          5    1    5    5  501    0  0.72864919255E+02 -0.82217843899E+00  0.14079630428E+04  0.14098553090E+04  0.47000000000E+01 0. -1.
        -11    1    6    6    0    0 -0.13551460265E+02  0.32613762189E+02  0.13611588811E+03  0.14062302285E+03  0.00000000000E+00 0.  1.
         12    1    6    6    0    0  0.26075545433E+02 -0.40918680747E+02  0.28648335185E+03  0.29056321755E+03  0.00000000000E+00 0. -1.
         -5    1    3    3    0  503 -0.22242151488E+01 -0.84109352653E+01 -0.98027982293E+01  0.13923929696E+02  0.47000000000E+01 0.  1.
         11    1    4    4    0    0 -0.96583831503E+01  0.38563950843E+02  0.16338915647E+03  0.16815611532E+03  0.00000000000E+00 0. -1.
        -12    1    4    4    0    0 -0.73506406124E+02 -0.21025918582E+02  0.32465556144E+03  0.33353637667E+03  0.00000000000E+00 0.  1.
</event>
<event>
12    1  0.8684423E-002  0.1745528E+03  0.7818608E-02  0.1173548E+00
         21   -1    0    0  503  502  0.00000000000E+00  0.00000000000E+00  0.25985421115E+03  0.25985421115E+03  0.00000000000E+00 0. -1.
         21   -1    0    0  501  503 -0.00000000000E+00 -0.00000000000E+00 -0.11687200850E+03  0.11687200850E+03  0.00000000000E+00 0. -1.
          6    2    1    2  501    0  0.78247418824E+01  0.24190755191E+02  0.84585216303E+02  0.19266402246E+03  0.17122601295E+03 0.  0.
         24    2    3    3    0    0  0.72788209260E+02  0.14269964020E+02  0.35696269616E+02  0.11062200091E+03  0.73900258060E+02 0.  0.
         -6    2    1    2    0  502 -0.78247418824E+01 -0.24190755191E+02  0.58396986347E+02  0.18406219718E+03  0.17269124238E+03 0.  0.
        -24    2    5    5    0    0 -0.51760455795E+02 -0.18548876978E+02  0.89148407848E+02  0.12993348326E+03  0.76889959219E+02 0.  0.
          5    1    3    3  501    0 -0.64963467378E+02  0.99207911717E+01  0.48888946687E+02  0.82042021546E+02  0.47000000000E+01 0. -1.
        -13    1    4    4    0    0 -0.14990096752E-01 -0.19765456068E+02 -0.52150774316E+01  0.20441881296E+02  0.00000000000E+00 0.  1.
         14    1    4    4    0    0  0.72803199357E+02  0.34035420088E+02  0.40911347047E+02  0.90180119618E+02  0.00000000000E+00 0. -1.
         -5    1    5    5    0  502  0.43935713913E+02 -0.56418782133E+01 -0.30751421501E+02  0.54128713924E+02  0.47000000000E+01 0.  1.
         13    1    6    6    0    0  0.11756346767E+02 -0.26457539684E+02  0.17376283674E+02  0.33766082535E+02  0.00000000000E+00 0. -1.
        -14    1    6    6    0    0 -0.63516802562E+02  0.79086627057E+01  0.71772124174E+02  0.96167400724E+02  0.00000000000E+00 0.  1.
</event>
<event>
12    1  0.8684423E-002  0.1781467E+03  0.7818608E-02  0.1170109E+00
         21   -1    0    0  501  502  0.00000000000E+00  0.00000000000E+00  0.17845011503E+03  0.17845011503E+03  0.00000000000E+00 0. -1.
         21   -1    0    0  502  503 -0.00000000000E+00 -0.00000000000E+00 -0.31893855043E+03  0.31893855043E+03  0.00000000000E+00 0. -1.
         -6    2    1    2    0  503 -0.41350477947E+02  0.17494036243E+02 -0.23661214366E+03  0.29496332949E+03  0.17030019343E+03 0.  0.
        -24    2    3    3    0    0  0.33917793029E+02  0.14627989555E+02 -0.67892044966E+02  0.11013343866E+03  0.78457949111E+02 0.  0.
          6    2    1    2  501    0  0.41350477947E+02 -0.17494036243E+02  0.96123708271E+02  0.20242533597E+03  0.17239589909E+03 0.  0.
         24    2    5    5    0    0  0.21830535435E+02  0.44189467440E+02 -0.16623655617E+01  0.85079313383E+02  0.69328528013E+02 0.  0.
          5    1    5    5  501    0  0.19519942511E+02 -0.61683503684E+02  0.97786073833E+02  0.11734602259E+03  0.47000000000E+01 0. -1.
        -11    1    6    6    0    0  0.27795048548E+02  0.50692768222E+02  0.20408880815E+02  0.61309411104E+02  0.00000000000E+00 0.  1.
         12    1    6    6    0    0 -0.59645131130E+01 -0.65033007822E+01 -0.22071246376E+02  0.23769902279E+02  0.00000000000E+00 0. -1.
         -5    1    3    3    0  503 -0.75268270976E+02  0.28660466885E+01 -0.16872009870E+03  0.18482989083E+03  0.47000000000E+01 0.  1.
         11    1    4    4    0    0 -0.54493514335E+01  0.33285328213E+02 -0.57085768279E+01  0.34208132873E+02  0.00000000000E+00 0. -1.
        -12    1    4    4    0    0  0.39367144463E+02 -0.18657338658E+02 -0.62183468138E+02  0.75925305785E+02  0.00000000000E+00 0.  1.
</event>
<event>
12    1  0.8684423E-002  0.2312499E+03  0.7818608E-02  0.1125797E+00
         21   -1    0    0  501  502  0.00000000000E+00  0.00000000000E+00  0.28371945712E+03  0.28371945712E+03  0.00000000000E+00 0.  1.
         21   -1    0    0  502  503 -0.00000000000E+00 -0.00000000000E+00 -0.19905279672E+03  0.19905279672E+03  0.00000000000E+00 0.  1.
         -6    2    1    2    0  503 -0.27539370596E+01 -0.15436288141E+03  0.98389889089E+02  0.25131072117E+03  0.17216569046E+03 0.  0.
        -24    2    3    3    0    0  0.80203294819E+01 -0.12834460200E+03  0.13642771852E+03  0.20375021075E+03  0.79780721065E+02 0.  0.
          6    2    1    2  501    0  0.27539370596E+01  0.15436288141E+03 -0.13723228688E+02  0.23146153267E+03  0.17190296906E+03 0.  0.
         24    2    5    5    0    0 -0.14974237157E+02  0.51352253198E+02 -0.63901040655E+02  0.11542110652E+03  0.79858669833E+02 0.  0.
          5    1    5    5  501    0  0.17728174217E+02  0.10301062822E+03  0.50177811967E+02  0.11604042615E+03  0.47000000000E+01 0. -1.
        -13    1    6    6    0    0 -0.45023136457E+02  0.31136168633E+02 -0.19470972613E+02  0.58100452563E+02  0.00000000000E+00 0.  1.
         14    1    6    6    0    0  0.30048899300E+02  0.20216084565E+02 -0.44430068042E+02  0.57320653960E+02  0.00000000000E+00 0. -1.
         -5    1    3    3    0  503 -0.10774266542E+02 -0.26018279415E+02 -0.38037829433E+02  0.47560510418E+02  0.47000000000E+01 0.  1.
         11    1    4    4    0    0 -0.27670723540E+02 -0.18979683579E+02  0.15894805876E+02  0.37128724511E+02  0.00000000000E+00 0. -1.
        -12    1    4    4    0    0  0.35691053022E+02 -0.10936491842E+03  0.12053291265E+03  0.16662148624E+03  0.00000000000E+00 0.  1.
</event>
<event>
12    1  0.8684423E-002  0.2091296E+03  0.7818608E-02  0.1142679E+00
         21   -1    0    0  503  502  0.00000000000E+00  0.00000000000E+00  0.96931555812E+03  0.96931555812E+03  0.00000000000E+00 0. -1.
         21   -1    0    0  501  503 -0.00000000000E+00 -0.00000000000E+00 -0.65821442519E+02  0.65821442519E+02  0.00000000000E+00 0. -1.
          6    2    1    2  501    0 -0.84369850454E+02  0.77829112686E+02  0.15677515591E+03  0.25968590478E+03  0.17228661348E+03 0.  0.
         24    2    3    3    0    0 -0.13902886268E+02  0.45113808213E+02  0.15647514513E+03  0.18185233751E+03  0.79732400405E+02 0.  0.
         -6    2    1    2    0  502  0.84369850454E+02 -0.77829112686E+02  0.74671895970E+03  0.77545109586E+03  0.17481291386E+03 0.  0.
        -24    2    5    5    0    0  0.82711037149E+02  0.79118095074E+01  0.39805165880E+03  0.41636164445E+03  0.89488454552E+02 0.  0.
          5    1    3    3  501    0 -0.70466964186E+02  0.32715304472E+02  0.30001077342E+00  0.77833567275E+02  0.47000000000E+01 0. -1.
        -11    1    4    4    0    0  0.10478710947E+02 -0.20146321526E+02  0.44855081263E+02  0.50275799042E+02  0.00000000000E+00 0.  1.
         12    1    4    4    0    0 -0.24381597215E+02  0.65260129739E+02  0.11162006387E+03  0.13157653846E+03  0.00000000000E+00 0. -1.
         -5    1    5    5    0  502  0.16588133054E+01 -0.85740922193E+02  0.34866730090E+03  0.35908945141E+03  0.47000000000E+01 0.  1.
         13    1    6    6    0    0  0.22517537022E+02 -0.12920113792E+02  0.28829166525E+03  0.28945820607E+03  0.00000000000E+00 0. -1.
        -14    1    6    6    0    0  0.60193500127E+02  0.20831923299E+02  0.10975999356E+03  0.12690343837E+03  0.00000000000E+00 0.  1.
</event>
<event>
12    1  0.8684423E-002  0.1920869E+03  0.7818608E-02  0.1156639E+00
         21   -1    0    0  501  502  0.00000000000E+00  0.00000000000E+00  0.57568722689E+03  0.57568722689E+03  0.00000000000E+00 0.  1.
         21   -1    0    0  502  503 -0.00000000000E+00 -0.00000000000E+00 -0.20775010658E+03  0.20775010658E+03  0.00000000000E+00 0.  1.
         -6    2    1    2    0  503  0.57918270774E+00  0.83631879820E+02 -0.14181718233E+03  0.23876657191E+03  0.17292407548E+03 0.  0.
        -24    2    3    3    0    0  0.21149130564E+01  0.11979631594E+03 -0.14239547796E+03  0.20226110199E+03  0.79230367073E+02 0.  0.
          6    2    1    2  501    0 -0.57918270774E+00 -0.83631879820E+02  0.50975430264E+03  0.54467076156E+03  0.17269094552E+03 0.  0.
         24    2    5    5    0    0  0.49650546673E+02 -0.12388829244E+02  0.35547203937E+03  0.36740343595E+03  0.77500026453E+02 0.  0.
          5    1    5    5  501    0 -0.50229729381E+02 -0.71243050576E+02  0.15428226327E+03  0.17726732561E+03  0.47000000000E+01 0. -1.
        -11    1    6    6    0    0 -0.14503981895E+01 -0.30773549552E+02  0.20761537018E+03  0.20988867750E+03  0.00000000000E+00 0.  1.
         12    1    6    6    0    0  0.51100944862E+02  0.18384720308E+02  0.14785666919E+03  0.15751475845E+03  0.00000000000E+00 0. -1.
         -5    1    3    3    0  503 -0.15357303486E+01 -0.36164436124E+02  0.57829562451E+00  0.36505469915E+02  0.47000000000E+01 0.  1.
         13    1    4    4    0    0  0.82454534393E+01  0.12715680509E+02  0.83112300783E+01  0.17284460612E+02  0.00000000000E+00 0. -1.
        -14    1    4    4    0    0 -0.61305403829E+01  0.10708063543E+03 -0.15070670803E+03  0.18497664138E+03  0.00000000000E+00 0.  1.
</event>
<event>
12    1  0.8684423E-002  0.1761478E+03  0.7818608E-02  0.1171671E+00
         21   -1    0    0  503  502  0.00000000000E+00  0.00000000000E+00  0.37930916176E+03  0.37930916176E+03  0.00000000000E+00 0.  1.
         21   -1    0    0  501  503 -0.00000000000E+00 -0.00000000000E+00 -0.13441762986E+03  0.13441762986E+03  0.00000000000E+00 0.  1.
          6    2    1    2  501    0 -0.33072936679E+02 -0.19767924148E+02 -0.38434047398E+02  0.18029203625E+03  0.17188208856E+03 0.  0.
         24    2    3    3    0    0  0.23716170868E+01 -0.65011165558E+02 -0.39205255176E+02  0.12262096857E+03  0.96264083052E+02 0.  0.
         -6    2    1    2    0  502  0.33072936679E+02  0.19767924148E+02  0.28332557930E+03  0.33343475538E+03  0.17152481524E+03 0.  0.
        -24    2    5    5    0    0  0.51157486307E+02 -0.47279294597E+02  0.15847980759E+03  0.19049792601E+03  0.79505913599E+02 0.  0.
          5    1    3    3  501    0 -0.35444553765E+02  0.45243241409E+02  0.77120777735E+00  0.57671067671E+02  0.47000000000E+01 0. -1.
        -11    1    4    4    0    0 -0.36203118875E+02 -0.63780456872E+02 -0.95691338754E+01  0.73960670753E+02  0.00000000000E+00 0.  1.
         12    1    4    4    0    0  0.38574735962E+02 -0.12307086857E+01 -0.29636121300E+02  0.48660297822E+02  0.00000000000E+00 0. -1.
         -5    1    5    5    0  502 -0.18084549628E+02  0.67047218746E+02  0.12484577171E+03  0.14293682937E+03  0.47000000000E+01 0.  1.
         11    1    6    6    0    0  0.56019101464E+02 -0.50237652675E+02  0.73029535392E+02  0.10485835453E+03  0.00000000000E+00 0. -1.
        -12    1    6    6    0    0 -0.48616151572E+01  0.29583580782E+01  0.85450272196E+02  0.85639571478E+02  0.00000000000E+00 0.  1.
</event>
<event>
12    1  0.8684423E-002  0.2004643E+03  0.7818608E-02  0.1149585E+00
         21   -1    0    0  501  502  0.00000000000E+00  0.00000000000E+00  0.19985082906E+03  0.19985082906E+03  0.00000000000E+00 0.  1.
         21   -1    0    0  502  503 -0.00000000000E+00 -0.00000000000E+00 -0.30080817298E+03  0.30080817298E+03  0.00000000000E+00 0.  1.
         -6    2    1    2    0  503  0.10255908859E+03 -0.79415589999E+00 -0.19533294619E+03  0.27909025676E+03  0.17093102180E+03 0.  0.
        -24    2    3    3    0    0  0.91554022927E+02  0.21778776921E+02 -0.54420639919E+02  0.13588056147E+03  0.81519731950E+02 0.  0.
          6    2    1    2  501    0 -0.10255908859E+03  0.79415589999E+00  0.94375602277E+02  0.22156874528E+03  0.17224098595E+03 0.  0.
         24    2    5    5    0    0 -0.56941307947E+02 -0.49504308339E+02  0.62006897610E+01  0.11017833899E+03  0.80048914633E+02 0.  0.
          5    1    5    5  501    0 -0.45617780647E+02  0.50298464239E+02  0.88174912516E+02  0.11139040629E+03  0.47000000000E+01 0. -1.
        -11    1    6    6    0    0 -0.24681253270E+02 -0.41084571305E+02  0.40203191200E+02  0.62557196588E+02  0.00000000000E+00 0.  1.
         12    1    6    6    0    0 -0.32260054678E+02 -0.84197370340E+01 -0.34002501439E+02  0.47621142401E+02  0.00000000000E+00 0. -1.
         -5    1    3    3    0  503  0.11005065667E+02 -0.22572932821E+02 -0.14091230627E+03  0.14320969529E+03  0.47000000000E+01 0.  1.
         13    1    4    4    0    0  0.17860497514E+02  0.10155635167E+02 -0.57654484132E+02  0.61205995111E+02  0.00000000000E+00 0. -1.
        -14    1    4    4    0    0  0.73693525413E+02  0.11623141755E+02  0.32338442130E+01  0.74674566356E+02  0.00000000000E+00 0.  1.
</event>
<event>
12    1  0.8684423E-002  0.2289600E+03  0.7818608E-02  0.1127473E+00
         21   -1    0    0  503  502  0.00000000000E+00  0.00000000000E+00  0.10342149198E+03  0.10342149198E+03  0.00000000000E+00 0.  1.
         21   -1    0    0  501  503 -0.00000000000E+00 -0.00000000000E+00 -0.55847449211E+03  0.55847449211E+03  0.00000000000E+00 0.  1.
          6    2    1    2  501    0  0.12928293895E+03  0.77107640792E+02 -0.12598929248E+03  0.26133497410E+03  0.17251956497E+03 0.  0.
         24    2    3    3    0    0  0.14513284853E+03  0.20810476803E+02 -0.72857403349E+02  0.18217893864E+03  0.79902095062E+02 0.  0.
         -6    2    1    2    0  502 -0.12928293895E+03 -0.77107640792E+02 -0.32906370765E+03  0.40056100999E+03  0.17177465606E+03 0.  0.
        -24    2    5    5    0    0 -0.53373675175E+02  0.15701927214E+02 -0.84728643223E+02  0.12835236585E+03  0.78740631927E+02 0.  0.
          5    1    3    3  501    0 -0.15849909579E+02  0.56297163989E+02 -0.53131889127E+02  0.79156035456E+02  0.47000000000E+01 0. -1.
        -13    1    4    4    0    0  0.16058730511E+02 -0.18482974239E+02  0.69091734119E+01  0.25440908781E+02  0.00000000000E+00 0.  1.
         14    1    4    4    0    0  0.12907411802E+03  0.39293451043E+02 -0.79766576761E+02  0.15673802986E+03  0.00000000000E+00 0. -1.
         -5    1    5    5    0  502 -0.75909263774E+02 -0.92809568006E+02 -0.24433506443E+03  0.27220864415E+03  0.47000000000E+01 0.  1.
         11    1    6    6    0    0 -0.44895068260E+02  0.21531670388E+02 -0.73953720853E+01  0.50337575548E+02  0.00000000000E+00 0. -1.
        -12    1    6    6    0    0 -0.84786069156E+01 -0.58297431739E+01 -0.77333271137E+02  0.78014790300E+02  0.00000000000E+00 0.  1.
</event>
<event>
12    1  0.8684423E-002  0.1970917E+03  0.7818608E-02  0.1152360E+00
         21   -1    0    0  503  502  0.00000000000E+00  0.00000000000E+00  0.51785045197E+03  0.51785045197E+03  0.00000000000E+00 0. -1.
         21   -1    0    0  501  503 -0.00000000000E+00 -0.00000000000E+00 -0.12156588859E+03  0.12156588859E+03  0.00000000000E+00 0. -1.
          6    2    1    2  501    0  0.89500396609E+02  0.36389765368E+02 -0.34029317241E-01  0.19709168759E+03  0.17178648416E+03 0.  0.
         24    2    3    3    0    0  0.65708830230E+01  0.38566975854E+02 -0.47878057149E+02  0.10121058690E+03  0.80129185786E+02 0.  0.
         -6    2    1    2    0  502 -0.89500396609E+02 -0.36389765368E+02  0.39631859270E+03  0.44232465297E+03  0.17102086331E+03 0.  0.
        -24    2    5    5    0    0 -0.88435703915E+02  0.35726343406E+02  0.25363870975E+03  0.28238245805E+03  0.79435585186E+02 0.  0.
          5    1    3    3  501    0  0.82929513586E+02 -0.21772104863E+01  0.47844027832E+02  0.95881100684E+02  0.47000000000E+01 0. -1.
        -13    1    4    4    0    0 -0.11154566796E+02  0.22591919699E+02  0.18117734485E+02  0.31033393288E+02  0.00000000000E+00 0.  1.
         14    1    4    4    0    0  0.17725449819E+02  0.15975056155E+02 -0.65995791634E+02  0.70177193616E+02  0.00000000000E+00 0. -1.
         -5    1    5    5    0  502 -0.10646926937E+01 -0.72116108774E+02  0.14267988296E+03  0.15994219492E+03  0.47000000000E+01 0.  1.
         13    1    6    6    0    0 -0.85653511049E+02  0.18120870902E+02  0.24903150544E+03  0.26397268916E+03  0.00000000000E+00 0. -1.
        -14    1    6    6    0    0 -0.27821928663E+01  0.17605472504E+02  0.46072043008E+01  0.18409768894E+02  0.00000000000E+00 0.  1.
</event>
<event>
12    1  0.8684423E-002  0.2599196E+03  0.7818608E-02  0.1108035E+00
         21   -1    0    0  501  502  0.00000000000E+00  0.00000000000E+00  0.42338532156E+03  0.42338532156E+03  0.00000000000E+00 0. -1.
         21   -1    0    0  502  503 -0.00000000000E+00 -0.00000000000E+00 -0.22344626651E+03  0.22344626651E+03  0.00000000000E+00 0. -1.
         -6    2    1    2    0  503 -0.10227677045E+03  0.16672534214E+03 -0.78226144017E+02  0.26612951128E+03  0.16262751821E+03 0.  0.
        -24    2    3    3    0    0 -0.16105675796E+02  0.35836026292E+02  0.34610424099E+01  0.89346149549E+02  0.80169458346E+02 0.  0.
          6    2    1    2  501    0  0.10227677045E+03 -0.16672534214E+03  0.27816519907E+03  0.38070207680E+03  0.17117335022E+03 0.  0.
         24    2    5    5    0    0  0.72197077489E+02 -0.17039602509E+03  0.15642669646E+03  0.25516078934E+03  0.79940563452E+02 0.  0.
          5    1    5    5  501    0  0.30079692965E+02  0.36706829525E+01  0.12173850260E+03  0.12554128746E+03  0.47000000000E+01 0. -1.
        -11    1    6    6    0    0  0.12012557265E+02 -0.55281299436E+01 -0.73301831283E+01  0.15119303470E+02  0.00000000000E+00 0.  1.
         12    1    6    6    0    0  0.60184520224E+02 -0.16486789515E+03  0.16375687959E+03  0.24004148587E+03  0.00000000000E+00 0. -1.
         -5    1    3    3    0  503 -0.86171094657E+02  0.13088931585E+03 -0.81687186426E+02  0.17678336173E+03  0.47000000000E+01 0.  1.
         13    1    4    4    0    0 -0.48373686418E+02  0.27161833074E+02 -0.18738897720E+01  0.55509370169E+02  0.00000000000E+00 0. -1.
        -14    1    4    4    0    0  0.32268010622E+02  0.86741932175E+01  0.53349321819E+01  0.33836779381E+02  0.00000000000E+00 0.  1.
</event>
<event>
12    1  0.8684423E-002  0.2488799E+03  0.7818608E-02  0.1114196E+00
         21   -1    0    0  503  502  0.00000000000E+00  0.00000000000E+00  0.78474373842E+03  0.78474373842E+03  0.00000000000E+00 0. -1.
         21   -1    0    0  501  503 -0.00000000000E+00 -0.00000000000E+00 -0.81126052698E+02  0.81126052698E+02  0.00000000000E+00 0.  1.
          6    2    1    2  501    0  0.17656209962E+03 -0.21042302816E+02  0.42941803726E+03  0.49632756050E+03  0.17413857429E+03 0.  0.
         24    2    3    3    0    0  0.79702517588E+02 -0.29327092503E+02  0.35532407678E+03  0.37400658376E+03  0.80082179612E+02 0.  0.
         -6    2    1    2    0  502 -0.17656209962E+03  0.21042302816E+02  0.27419964846E+03  0.36954223062E+03  0.17250814319E+03 0.  0.
        -24    2    5    5    0    0 -0.41138115227E+02 -0.31590455952E+02  0.66956265730E+02  0.11639845225E+03  0.79844578608E+02 0.  0.
          5    1    3    3  501    0  0.96859582028E+02  0.82847896869E+01  0.74093960487E+02  0.12232097674E+03  0.47000000000E+01 0. -1.
        -13    1    4    4    0    0  0.43516063149E+02  0.84857519431E+01  0.63015516881E+02  0.77049406914E+02  0.00000000000E+00 0.  1.
         14    1    4    4    0    0  0.36186454439E+02 -0.37812844446E+02  0.29230855990E+03  0.29695717684E+03  0.00000000000E+00 0. -1.
         -5    1    5    5    0  502 -0.13542398439E+03  0.52632758769E+02  0.20724338273E+03  0.25314377837E+03  0.47000000000E+01 0.  1.
         11    1    6    6    0    0  0.14400933226E+02 -0.72087891957E+01  0.51281292116E+02  0.53750576188E+02  0.00000000000E+00 0. -1.
        -12    1    6    6    0    0 -0.55539048452E+02 -0.24381666757E+02  0.15674973614E+02  0.62647876058E+02  0.00000000000E+00 0.  1.
</event>
<event>
12    1  0.8684423E-002  0.2404710E+03  0.7818608E-02  0.1119641E+00
         21   -1    0    0  501  502  0.00000000000E+00  0.00000000000E+00  0.10987688075E+04  0.10987688075E+04  0.00000000000E+00 0.  1.
         21   -1    0    0  502  503 -0.00000000000E+00 -0.00000000000E+00 -0.49382961527E+03  0.49382961527E+03  0.00000000000E+00 0. -1.
         -6    2    1    2    0  503 -0.50101904549E+02 -0.16004127014E+03 -0.45044870027E+03  0.51016139427E+03  0.17098891088E+03 0.  0.
        -24    2    3    3    0    0 -0.63910694626E+02 -0.57237862804E+02 -0.33259940029E+03  0.35309525932E+03  0.81811681646E+02 0.  0.
          6    2    1    2  501    0  0.50101904549E+02  0.16004127014E+03  0.10553878925E+04  0.10824370285E+04  0.17234531631E+03 0.  0.
         24    2    5    5    0    0 -0.21021422246E+02  0.99191420951E+02  0.80408163793E+03  0.81422413667E+03  0.78312362356E+02 0.  0.
          5    1    5    5  501    0  0.71123326794E+02  0.60849849189E+02  0.25130625460E+03  0.26821289187E+03  0.47000000000E+01 0. -1.
        -11    1    6    6    0    0 -0.10702987472E+02 -0.86597121589E+01  0.36070673347E+02  0.38608781788E+02  0.00000000000E+00 0.  1.
         12    1    6    6    0    0 -0.10318434774E+02  0.10785113311E+03  0.76801096459E+03  0.77561535489E+03  0.00000000000E+00 0. -1.
         -5    1    3    3    0  503  0.13808790077E+02 -0.10280340734E+03 -0.11784929998E+03  0.15706613495E+03  0.47000000000E+01 0.  1.
         11    1    4    4    0    0  0.29248318334E+01  0.14524483578E+02 -0.93500820249E+02  0.94667410716E+02  0.00000000000E+00 0. -1.
        -12    1    4    4    0    0 -0.66835526459E+02 -0.71762346382E+02 -0.23909858004E+03  0.25842784860E+03  0.00000000000E+00 0.  1.
</event>
<event>
12    1  0.8684423E-002  0.1855157E+03  0.7818608E-02  0.1163239E+00
         21   -1    0    0  503  502  0.00000000000E+00  0.00000000000E+00  0.66174082198E+03  0.66174082198E+03  0.00000000000E+00 0.  1.
         21   -1    0    0  501  503 -0.00000000000E+00 -0.00000000000E+00 -0.10402153745E+03  0.10402153745E+03  0.00000000000E+00 0.  1.
          6    2    1    2  501    0 -0.35692895730E+01  0.62464139247E+02  0.71162962802E+01  0.18565215924E+03  0.17464699836E+03 0.  0.
         24    2    3    3    0    0 -0.16480822767E+02 -0.38652291383E+01 -0.51067606897E+02  0.96356306092E+02  0.79937974293E+02 0.  0.
         -6    2    1    2    0  502  0.35692895730E+01 -0.62464139247E+02  0.55060298825E+03  0.58011020019E+03  0.17160910574E+03 0.  0.
        -24    2    5    5    0    0 -0.46521705918E+02 -0.84252144325E+02  0.42284915007E+03  0.44108876960E+03  0.80592840897E+02 0.  0.
          5    1    3    3  501    0  0.12911533194E+02  0.66329368385E+02  0.58183903177E+02  0.89295853144E+02  0.47000000000E+01 0. -1.
        -13    1    4    4    0    0  0.26545671090E+02 -0.13404028269E+02 -0.11392288748E+01  0.29759678592E+02  0.00000000000E+00 0.  1.
         14    1    4    4    0    0 -0.43026493857E+02  0.95387991302E+01 -0.49928378022E+02  0.66596627500E+02  0.00000000000E+00 0. -1.
         -5    1    5    5    0  502  0.50090995491E+02  0.21788005078E+02  0.12775383818E+03  0.13902143059E+03  0.47000000000E+01 0.  1.
         11    1    6    6    0    0 -0.37645809034E+02 -0.10016512475E+03  0.37143561174E+03  0.38654194187E+03  0.00000000000E+00 0. -1.
        -12    1    6    6    0    0 -0.88758968840E+01  0.15912980427E+02  0.51413538331E+02  0.54546827729E+02  0.00000000000E+00 0.  1.
</event>
<event>
12    1  0.8684423E-002  0.2443658E+03  0.7818608E-02  0.1116991E+00
         21   -1    0    0  503  502  0.00000000000E+00  0.00000000000E+00  0.14560036743E+03  0.14560036743E+03  0.00000000000E+00 0.  1.
         21   -1    0    0  501  503 -0.00000000000E+00 -0.00000000000E+00 -0.46787985900E+03  0.46787985900E+03  0.00000000000E+00 0. -1.
          6    2    1    2  501    0 -0.15706830438E+01  0.17362319587E+03 -0.26973459330E+03  0.36396620802E+03  0.17195106446E+03 0.  0.
         24    2    3    3    0    0  0.51387650370E+02  0.15456175866E+03 -0.16152278726E+03  0.24190143656E+03  0.76789754228E+02 0.  0.
         -6    2    1    2    0  502  0.15706830438E+01 -0.17362319587E+03 -0.52544898271E+02  0.24951401840E+03  0.17131490845E+03 0.  0.
        -24    2    5    5    0    0 -0.45746617837E+02 -0.12885253859E+03  0.11787996732E+02  0.15783986667E+03  0.77966254884E+02 0.  0.
          5    1    3    3  501    0 -0.52958333414E+02  0.19061437211E+02 -0.10821180603E+03  0.12206477146E+03  0.47000000000E+01 0. -1.
        -11    1    4    4    0    0  0.14754452093E+02  0.47674125513E+02 -0.68791089207E+01  0.50376961396E+02  0.00000000000E+00 0.  1.
         12    1    4    4    0    0  0.36633198277E+02  0.10688763315E+03 -0.15464367834E+03  0.19152447517E+03  0.00000000000E+00 0. -1.
         -5    1    5    5    0  502  0.47317300881E+02 -0.44770657285E+02 -0.64332895002E+02  0.91674151732E+02  0.47000000000E+01 0.  1.
         11    1    6    6    0    0 -0.55679906641E+02 -0.57853927631E+02 -0.14284311774E+02  0.81555934847E+02  0.00000000000E+00 0. -1.
        -12    1    6    6    0    0  0.99332888036E+01 -0.70998610955E+02  0.26072308505E+02  0.76283931825E+02  0.00000000000E+00 0.  1.
</event>
<event>
12    1  0.8684423E-002  0.2091239E+03  0.7818608E-02  0.1142383E+00
         21   -1    0    0  503  502  0.00000000000E+00  0.00000000000E+00  0.74199518466E+03  0.74199518466E+03  0.00000000000E+00 0. -1.
         21   -1    0    0  501  503 -0.00000000000E+00 -0.00000000000E+00 -0.79294658889E+02  0.79294658889E+02  0.00000000000E+00 0. -1.
          6    2    1    2  501    0 -0.10805097464E+03  0.46947822529E+02  0.12277834879E+03  0.24250218989E+03  0.17278216925E+03 0.  0.
         24    2    3    3    0    0  0.13751519939E+02  0.32550605172E+02  0.52712528580E+02  0.10117124241E+03  0.78793168640E+02 0.  0.
         -6    2    1    2    0  502  0.10805097464E+03 -0.46947822529E+02  0.53992217698E+03  0.57878765366E+03  0.17204673687E+03 0.  0.
        -24    2    5    5    0    0  0.91358726955E+02  0.41616005325E+02  0.31114508407E+03  0.33285426638E+03  0.62469115691E+02 0.  0.
          5    1    3    3  501    0 -0.12180249458E+03  0.14397217358E+02  0.70065820212E+02  0.14133094748E+03  0.47000000000E+01 0. -1.
        -11    1    4    4    0    0 -0.18420975769E+02  0.15826435403E+02 -0.11926683446E+02  0.27056499845E+02  0.00000000000E+00 0.  1.
         12    1    4    4    0    0  0.32172495708E+02  0.16724169769E+02  0.64639212025E+02  0.74114742567E+02  0.00000000000E+00 0. -1.
         -5    1    5    5    0  502  0.16692247689E+02 -0.88563827855E+02  0.22877709291E+03  0.24593338728E+03  0.47000000000E+01 0.  1.
         11    1    6    6    0    0  0.17552851247E+02  0.40176998372E+01  0.15551796353E+03  0.15655695922E+03  0.00000000000E+00 0. -1.
        -12    1    6    6    0    0  0.73805875707E+02  0.37598305488E+02  0.15562712054E+03  0.17629730716E+03  0.00000000000E+00 0.  1.
</event>
<event>
12    1  0.8684423E-002  0.3311609E+03  0.7818608E-02  0.1070660E+00
         21   -1    0    0  503  502  0.00000000000E+00  0.00000000000E+00  0.98722457188E+03  0.98722457188E+03  0.00000000000E+00 0. -1.
         21   -1    0    0  501  503 -0.00000000000E+00 -0.00000000000E+00 -0.12211835635E+03  0.12211835635E+03  0.00000000000E+00 0.  1.
          6    2    1    2  501    0  0.24297545843E+03 -0.14523095128E+03  0.26481877134E+03  0.42376830843E+03  0.17123520365E+03 0.  0.
         24    2    3    3    0    0  0.67513415493E+02 -0.64298304497E+02  0.44554294173E+02  0.13072300182E+03  0.80069250290E+02 0.  0.
         -6    2    1    2    0  502 -0.24297545843E+03  0.14523095128E+03  0.60028744419E+03  0.68557461980E+03  0.17186751018E+03 0.  0.
        -24    2    5    5    0    0 -0.16238010137E+03  0.65294560771E+02  0.49017208632E+03  0.52735666840E+03  0.84886421233E+02 0.  0.
          5    1    3    3  501    0  0.17546204294E+03 -0.80932646783E+02  0.22026447717E+03  0.29304530662E+03  0.47000000000E+01 0. -1.
        -13    1    4    4    0    0  0.22076152837E+01  0.16733934627E+02  0.14883368952E+02  0.22503617592E+02  0.00000000000E+00 0.  1.
         14    1    4    4    0    0  0.65305800209E+02 -0.81032239124E+02  0.29670925221E+02  0.10821938422E+03  0.00000000000E+00 0. -1.
         -5    1    5    5    0  502 -0.80595357060E+02  0.79936390508E+02  0.11011535787E+03  0.15821795140E+03  0.47000000000E+01 0.  1.
         11    1    6    6    0    0 -0.59521539563E+02 -0.14621268288E+02  0.20243491397E+03  0.21151002235E+03  0.00000000000E+00 0. -1.
        -12    1    6    6    0    0 -0.10285856181E+03  0.79915829060E+02  0.28773717235E+03  0.31584664605E+03  0.00000000000E+00 0.  1.
</event>
<event>
12    1  0.8684423E-002  0.2197501E+03  0.7818608E-02  0.1137153E+00
         21   -1    0    0  501  502  0.00000000000E+00  0.00000000000E+00  0.75640534793E+02  0.75640534793E+02  0.00000000000E+00 0. -1.
         21   -1    0    0  502  503 -0.00000000000E+00 -0.00000000000E+00 -0.15966317608E+04  0.15966317608E+04  0.00000000000E+00 0. -1.
         -6    2    1    2    0  503  0.94451528782E+02 -0.40702581685E+02 -0.14337831438E+04  0.14505254946E+04  0.19419658983E+03 0.  0.
        -24    2    3    3    0    0  0.11792850175E+03  0.75205442103E-01 -0.13023102551E+04  0.13108071828E+04  0.91084206906E+02 0.  0.
          6    2    1    2  501    0 -0.94451528782E+02  0.40702581685E+02 -0.87208082193E+02  0.22174680101E+03  0.17603579952E+03 0.  0.
         24    2    5    5    0    0 -0.34437129271E+02  0.57169660289E+02 -0.11512433560E+03  0.15337794823E+03  0.76268580853E+02 0.  0.
          5    1    5    5  501    0 -0.60014399511E+02 -0.16467078604E+02  0.27916253408E+02  0.68368852782E+02  0.47000000000E+01 0. -1.
        -13    1    6    6    0    0  0.18849347921E+02  0.22197945916E+01 -0.47833551971E+02  0.51461384545E+02  0.00000000000E+00 0.  1.
         14    1    6    6    0    0 -0.53286477192E+02  0.54949865697E+02 -0.67290783630E+02  0.10191656368E+03  0.00000000000E+00 0. -1.
         -5    1    3    3    0  503 -0.23476972963E+02 -0.40777787127E+02 -0.13147288875E+03  0.13971831183E+03  0.47000000000E+01 0.  1.
         11    1    4    4    0    0  0.29312840874E+02 -0.39120045807E+02 -0.31744760095E+03  0.32118935221E+03  0.00000000000E+00 0. -1.
        -12    1    4    4    0    0  0.88615660872E+02  0.39195251249E+02 -0.98486265415E+03  0.98961783058E+03  0.00000000000E+00 0.  1.
</event>
<event>
12    1  0.8684423E-002  0.2092153E+03  0.7818608E-02  0.1143759E+00
         21   -1    0    0  501  502  0.00000000000E+00  0.00000000000E+00  0.80006308170E+03  0.80006308170E+03  0.00000000000E+00 0.  1.
         21   -1    0    0  502  503 -0.00000000000E+00 -0.00000000000E+00 -0.53015534700E+02  0.53015534700E+02  0.00000000000E+00 0.  1.
         -6    2    1    2    0  503  0.48946097460E+02  0.10645964230E+03  0.39912454781E+03  0.44709653178E+03  0.16390707177E+03 0.  0.
        -24    2    3    3    0    0  0.85754778123E+02  0.83578019916E+02  0.36274275111E+03  0.39031473236E+03  0.80150604672E+02 0.  0.
          6    2    1    2  501    0 -0.48946097460E+02 -0.10645964230E+03  0.34792299919E+03  0.40598208462E+03  0.17332531196E+03 0.  0.
         24    2    5    5    0    0 -0.95286834950E+02 -0.63068868548E+02  0.18921084267E+03  0.23497956468E+03  0.79733241102E+02 0.  0.
          5    1    5    5  501    0  0.46340737490E+02 -0.43390773751E+02  0.15871215652E+03  0.17100251994E+03  0.47000000000E+01 0. -1.
        -13    1    6    6    0    0 -0.89814553955E+02 -0.61362573356E+02  0.19716211166E+03  0.22517752504E+03  0.00000000000E+00 0.  1.
         14    1    6    6    0    0 -0.54722809951E+01 -0.17062951921E+01 -0.79512689840E+01  0.98020396361E+01  0.00000000000E+00 0. -1.
         -5    1    3    3    0  503 -0.36808680663E+02  0.22881622383E+02  0.36381796692E+02  0.56781799421E+02  0.47000000000E+01 0.  1.
         11    1    4    4    0    0 -0.28093300888E+01 -0.55948552212E+01  0.87638601130E+02  0.87861932306E+02  0.00000000000E+00 0. -1.
        -12    1    4    4    0    0  0.88564108212E+02  0.89172875137E+02  0.27510414998E+03  0.30245280006E+03  0.00000000000E+00 0.  1.
</event>
<event>
12    1  0.8684423E-002  0.1947776E+03  0.7818608E-02  0.1155867E+00
         21   -1    0    0  503  502  0.00000000000E+00  0.00000000000E+00  0.34963555073E+02  0.34963555073E+02  0.00000000000E+00 0. -1.
         21   -1    0    0  501  503 -0.00000000000E+00 -0.00000000000E+00 -0.14809063323E+04  0.14809063323E+04  0.00000000000E+00 0. -1.
          6    2    1    2  501    0  0.86657123850E+02  0.27330065400E+01 -0.11442882641E+04  0.11607471547E+04  0.17441731397E+03 0.  0.
         24    2    3    3    0    0 -0.15924714949E+02 -0.12099611426E+02 -0.68815640159E+03  0.69296365117E+03  0.78989819886E+02 0.  0.
         -6    2    1    2    0  502 -0.86657123850E+02 -0.27330065400E+01 -0.30165451318E+03  0.35512273269E+03  0.16613182572E+03 0.  0.
        -24    2    5    5    0    0 -0.93998612451E+02  0.70503509205E+01 -0.31366865824E+03  0.33734518450E+03  0.80797894501E+02 0.  0.
          5    1    3    3  501    0  0.10258183880E+03  0.14832617966E+02 -0.45613186248E+03  0.46778350354E+03  0.47000000000E+01 0. -1.
        -11    1    4    4    0    0 -0.10913452021E+02  0.29801590138E+02 -0.15957509985E+03  0.16270049385E+03  0.00000000000E+00 0.  1.
         12    1    4    4    0    0 -0.50112629285E+01 -0.41901201564E+02 -0.52858130174E+03  0.53026315731E+03  0.00000000000E+00 0. -1.
         -5    1    5    5    0  502  0.73414886009E+01 -0.97833574604E+01  0.12014145063E+02  0.17777548191E+02  0.47000000000E+01 0.  1.
         11    1    6    6    0    0 -0.38635167727E+02  0.43233510001E+02 -0.14269675308E+03  0.15402654288E+03  0.00000000000E+00 0. -1.
        -12    1    6    6    0    0 -0.55363444724E+02 -0.36183159081E+02 -0.17097190516E+03  0.18331864162E+03  0.00000000000E+00 0.  1.
</event>
<event>
12    1  0.8684423E-002  0.2102568E+03  0.7818608E-02  0.1141547E+00
         21   -1    0    0  503  502  0.00000000000E+00  0.00000000000E+00  0.23009414698E+03  0.23009414698E+03  0.00000000000E+00 0.  1.
         21   -1    0    0  501  503 -0.00000000000E+00 -0.00000000000E+00 -0.26834590535E+03  0.26834590535E+03  0.00000000000E+00 0.  1.
          6    2    1    2  501    0 -0.22230931520E+02  0.11761521762E+03 -0.15271237352E+03  0.25986337475E+03  0.17285933813E+03 0.  0.
         24    2    3    3    0    0  0.11951764083E+02  0.14560008007E+03 -0.11739552152E+03  0.20310970315E+03  0.78291858211E+02 0.  0.
         -6    2    1    2    0  502  0.22230931520E+02 -0.11761521762E+03  0.11446061515E+03  0.23857667759E+03  0.17172665761E+03 0.  0.
        -24    2    5    5    0    0 -0.10385223427E+02 -0.15886700352E+01  0.16908714582E+02  0.83449514869E+02  0.81040361332E+02 0.  0.
          5    1    3    3  501    0 -0.34182695603E+02 -0.27984862444E+02 -0.35316852000E+02  0.56753671598E+02  0.47000000000E+01 0. -1.
        -11    1    4    4    0    0 -0.29550647864E+02  0.60909608878E+02 -0.28328633830E+02  0.73387551653E+02  0.00000000000E+00 0.  1.
         12    1    4    4    0    0  0.41502411947E+02  0.84690471190E+02 -0.89066887685E+02  0.12972215150E+03  0.00000000000E+00 0. -1.
         -5    1    5    5    0  502  0.32616154947E+02 -0.11602654759E+03  0.97551900565E+02  0.15512716272E+03  0.47000000000E+01 0.  1.
         11    1    6    6    0    0 -0.32641120940E+02 -0.29833196615E+02  0.12758907441E+01  0.44239013253E+02  0.00000000000E+00 0. -1.
        -12    1    6    6    0    0  0.22255897512E+02  0.28244526579E+02  0.15632823838E+02  0.39210501615E+02  0.00000000000E+00 0.  1.
</event>
<event>
12    1  0.8684423E-002  0.2368121E+03  0.7818608E-02  0.1122071E+00
         21   -1    0    0  501  502  0.00000000000E+00  0.00000000000E+00  0.14711728710E+03  0.14711728710E+03  0.00000000000E+00 0. -1.
         21   -1    0    0  502  503 -0.00000000000E+00 -0.00000000000E+00 -0.11200688238E+04  0.11200688238E+04  0.00000000000E+00 0. -1.
         -6    2    1    2    0  503 -0.15914155009E+03  0.38252477486E+02 -0.10012494937E+04  0.10286892309E+04  0.17003440907E+03 0.  0.
        -24    2    3    3    0    0 -0.16316356792E+03  0.53167503391E+02 -0.64441817321E+03  0.67149276415E+03  0.78604179438E+02 0.  0.
          6    2    1    2  501    0  0.15914155009E+03 -0.38252477486E+02  0.28297957006E+02  0.23849687992E+03  0.17114526685E+03 0.  0.
         24    2    5    5    0    0  0.17325663864E+03 -0.26392183658E+02 -0.11291857155E+02  0.19457256229E+03  0.83764943533E+02 0.  0.
          5    1    5    5  501    0 -0.14115088555E+02 -0.11860293827E+02  0.39589814161E+02  0.43924317637E+02  0.47000000000E+01 0. -1.
        -11    1    6    6    0    0  0.13035101111E+02 -0.45795724124E+01 -0.28785546615E+02  0.31929516726E+02  0.00000000000E+00 0.  1.
         12    1    6    6    0    0  0.16022153753E+03 -0.21812611246E+02  0.17493689460E+02  0.16264304556E+03  0.00000000000E+00 0. -1.
         -5    1    3    3    0  503  0.40220178288E+01 -0.14915025905E+02 -0.35683132045E+03  0.35719646678E+03  0.47000000000E+01 0.  1.
         11    1    4    4    0    0 -0.12259088671E+03  0.37488465950E+02 -0.32906428091E+03  0.35315324089E+03  0.00000000000E+00 0. -1.
        -12    1    4    4    0    0 -0.40572681209E+02  0.15679037441E+02 -0.31535389230E+03  0.31833952326E+03  0.00000000000E+00 0.  1.
</event>
<event>
12    1  0.8684423E-002  0.3137469E+03  0.7818608E-02  0.1078852E+00
         21   -1    0    0  503  502  0.00000000000E+00  0.00000000000E+00  0.17444392570E+03  0.17444392570E+03  0.00000000000E+00 0. -1.
         21   -1    0    0  501  503 -0.00000000000E+00 -0.00000000000E+00 -0.85981918229E+03  0.85981918229E+03  0.00000000000E+00 0.  1.
          6    2    1    2  501    0 -0.32807283819E+02 -0.25845312474E+03 -0.64722850132E+03  0.71820569523E+03  0.17041230054E+03 0.  0.
         24    2    3    3    0    0 -0.66457541707E+02 -0.20954022103E+03 -0.39875383754E+03  0.46269334612E+03  0.82199759805E+02 0.  0.
         -6    2    1    2    0  502  0.32807283819E+02  0.25845312474E+03 -0.38146755270E+02  0.31605741275E+03  0.17482213149E+03 0.  0.
        -24    2    5    5    0    0 -0.26105953772E+02  0.20224701375E+03 -0.68731481791E+02  0.22895166109E+03  0.78163105971E+02 0.  0.
          5    1    3    3  501    0  0.33650257888E+02 -0.48912903709E+02 -0.24847466378E+03  0.25551234911E+03  0.47000000000E+01 0. -1.
        -13    1    4    4    0    0 -0.35436984340E+02 -0.34005121147E+02 -0.14097335404E+03  0.14928367182E+03  0.00000000000E+00 0.  1.
         14    1    4    4    0    0 -0.31020557367E+02 -0.17553509989E+03 -0.25778048350E+03  0.31340967430E+03  0.00000000000E+00 0. -1.
         -5    1    5    5    0  502  0.58913237591E+02  0.56206110994E+02  0.30584726521E+02  0.87105751663E+02  0.47000000000E+01 0.  1.
         13    1    6    6    0    0  0.19655296624E+02  0.13787320230E+03 -0.39867845409E+02  0.14486129813E+03  0.00000000000E+00 0. -1.
        -14    1    6    6    0    0 -0.45761250396E+02  0.64373811450E+02 -0.28863636381E+02  0.84090362965E+02  0.00000000000E+00 0.  1.
</event>
<event>
12    1  0.8684423E-002  0.2608237E+03  0.7818608E-02  0.1106730E+00
         21   -1    0    0  503  502  0.00000000000E+00  0.00000000000E+00  0.31215581781E+03  0.31215581781E+03  0.00000000000E+00 0.  1.
         21   -1    0    0  501  503 -0.00000000000E+00 -0.00000000000E+00 -0.21760805019E+03  0.21760805019E+03  0.00000000000E+00 0. -1.
          6    2    1    2  501    0 -0.16659688172E+03 -0.97153797517E+02  0.40965685675E+02  0.26402119380E+03  0.17560074601E+03 0.  0.
         24    2    3    3    0    0 -0.96699410532E+01 -0.55323905382E+02  0.23567988202E+02  0.10061808960E+03  0.80089372701E+02 0.  0.
         -6    2    1    2    0  502  0.16659688172E+03  0.97153797517E+02  0.53582081952E+02  0.26574267420E+03  0.17479916480E+03 0.  0.
        -24    2    5    5    0    0  0.16358519905E+03  0.29769487222E+02  0.67966872512E+02  0.19661433193E+03  0.79945982039E+02 0.  0.
          5    1    3    3  501    0 -0.15692694067E+03 -0.41829892135E+02  0.17397697473E+02  0.16340310420E+03  0.47000000000E+01 0. -1.
        -13    1    4    4    0    0 -0.22746399856E+02 -0.26742638039E+01  0.38101948201E+02  0.44455695361E+02  0.00000000000E+00 0.  1.
         14    1    4    4    0    0  0.13076458803E+02 -0.52649641578E+02 -0.14533959999E+02  0.56162394237E+02  0.00000000000E+00 0. -1.
         -5    1    5    5    0  502  0.30116826788E+01  0.67384310294E+02 -0.14384790560E+02  0.69128342276E+02  0.47000000000E+01 0.  1.
         11    1    6    6    0    0  0.42088944156E+02 -0.74370847621E+01 -0.14499871063E+02  0.45133531999E+02  0.00000000000E+00 0. -1.
        -12    1    6    6    0    0  0.12149625489E+03  0.37206571984E+02  0.82466743575E+02  0.15148079993E+03  0.00000000000E+00 0.  1.
</event>
<event>
12    1  0.8684423E-002  0.1944267E+03  0.7818608E-02  0.1154584E+00
         21   -1    0    0  503  502  0.00000000000E+00  0.00000000000E+00  0.58709554556E+03  0.58709554556E+03  0.00000000000E+00 0. -1.
         21   -1    0    0  501  503 -0.00000000000E+00 -0.00000000000E+00 -0.11859700195E+03  0.11859700195E+03  0.00000000000E+00 0. -1.
          6    2    1    2  501    0 -0.42484500806E+02 -0.80444101283E+02 -0.45746711541E+01  0.19422408061E+03  0.17153973194E+03 0.  0.
         24    2    3    3    0    0 -0.40621365083E+02 -0.28843021441E+01  0.53788010727E+02  0.97026928627E+02  0.69732777664E+02 0.  0.
         -6    2    1    2    0  502  0.42484500806E+02  0.80444101283E+02  0.47307321477E+03  0.51146846690E+03  0.17182997371E+03 0.  0.
        -24    2    5    5    0    0  0.53579321659E+02  0.46138529375E+02  0.13780178390E+03  0.17423117705E+03  0.79797642860E+02 0.  0.
          5    1    3    3  501    0 -0.18631357232E+01 -0.77559799139E+02 -0.58362681881E+02  0.97197151982E+02  0.47000000000E+01 0. -1.
        -11    1    4    4    0    0 -0.26799683902E+02  0.32801781103E+02  0.30960807330E+02  0.52466670289E+02  0.00000000000E+00 0.  1.
         12    1    4    4    0    0 -0.13821681181E+02 -0.35686083247E+02  0.22827203397E+02  0.44560258337E+02  0.00000000000E+00 0. -1.
         -5    1    5    5    0  502 -0.11094820853E+02  0.34305571908E+02  0.33527143087E+03  0.33723728986E+03  0.47000000000E+01 0.  1.
         11    1    6    6    0    0  0.73394783779E+00  0.73695474880E+01  0.96452606240E+02  0.96736519268E+02  0.00000000000E+00 0. -1.
        -12    1    6    6    0    0  0.52845373821E+02  0.38768981887E+02  0.41349177662E+02  0.77494657778E+02  0.00000000000E+00 0.  1.
</event>
<event>
12    1  0.8684423E-002  0.2027306E+03  0.7818608E-02  0.1147457E+00
         21   -1    0    0  503  502  0.00000000000E+00  0.00000000000E+00  0.63443704255E+03  0.63443704255E+03  0.00000000000E+00 0. -1.
         21   -1    0    0  501  503 -0.00000000000E+00 -0.00000000000E+00 -0.88804709250E+02  0.88804709250E+02  0.00000000000E+00 0. -1.
          6    2    1    2  501    0  0.32164062662E+02  0.10165209916E+03  0.46090702432E+03  0.50351903296E+03  0.17241941683E+03 0.  0.
         24    2    3    3    0    0  0.37201281861E+02  0.37392931603E+02  0.10682949218E+03  0.14359181399E+03  0.80149247905E+02 0.  0.
         -6    2    1    2    0  502 -0.32164062662E+02 -0.10165209916E+03  0.84725308988E+02  0.21972271884E+03  0.17242975092E+03 0.  0.
        -24    2    5    5    0    0  0.67314359730E+01  0.57166896397E+01  0.41446363688E+01  0.79879051050E+02  0.79281094942E+02 0.  0.
          5    1    3    3  501    0 -0.50372191992E+01  0.64259167556E+02  0.35407753213E+03  0.35992721897E+03  0.47000000000E+01 0. -1.
        -13    1    4    4    0    0  0.35116780026E+02  0.49745627941E+01  0.10525315721E+03  0.11106827458E+03  0.00000000000E+00 0.  1.
         14    1    4    4    0    0  0.20845018356E+01  0.32418368809E+02  0.15763349693E+01  0.32523539415E+02  0.00000000000E+00 0. -1.
         -5    1    5    5    0  502 -0.38895498635E+02 -0.10736878880E+03  0.80580672619E+02  0.13984366779E+03  0.47000000000E+01 0.  1.
         13    1    6    6    0    0  0.11661993380E+02 -0.34745595281E+02 -0.76602965362E+01  0.37442470859E+02  0.00000000000E+00 0. -1.
        -14    1    6    6    0    0 -0.49305574075E+01  0.40462284921E+02  0.11804932905E+02  0.42436580190E+02  0.00000000000E+00 0.  1.
</event>
<event>
12    1  0.8684423E-002  0.2042653E+03  0.7818608E-02  0.1146242E+00
         21   -1    0    0  503  502  0.00000000000E+00  0.00000000000E+00  0.19000722200E+03  0.19000722200E+03  0.00000000000E+00 0.  1.
         21   -1    0    0  501  503 -0.00000000000E+00 -0.00000000000E+00 -0.23300894445E+03  0.23300894445E+03  0.00000000000E+00 0.  1.
          6    2    1    2  501    0  0.48071301346E+02 -0.99668660449E+02 -0.72758395968E+02  0.21659484204E+03  0.17139092603E+03 0.  0.
         24    2    3    3    0    0 -0.23237589851E+02 -0.35194090743E+02 -0.20734891732E+01  0.97178033542E+02  0.87525203459E+02 0.  0.
         -6    2    1    2    0  502 -0.48071301346E+02  0.99668660449E+02  0.29756673515E+02  0.20642132441E+03  0.17169627737E+03 0.  0.
        -24    2    5    5    0    0 -0.97014512803E+02  0.68142963061E+02 -0.38125276467E+01  0.13905450164E+03  0.72569552496E+02 0.  0.
          5    1    3    3  501    0  0.71308891197E+02 -0.64474569706E+02 -0.70684906795E+02  0.11941680849E+03  0.47000000000E+01 0. -1.
        -13    1    4    4    0    0  0.87412146030E+01 -0.39204340051E+02 -0.33395083427E+02  0.52236201132E+02  0.00000000000E+00 0.  1.
         14    1    4    4    0    0 -0.31978804454E+02  0.40102493073E+01  0.31321594254E+02  0.44941832411E+02  0.00000000000E+00 0. -1.
         -5    1    5    5    0  502  0.48943211457E+02  0.31525697388E+02  0.33569201162E+02  0.67366822770E+02  0.47000000000E+01 0.  1.
         11    1    6    6    0    0 -0.50049506405E+01 -0.10524520265E+02 -0.13233354203E+02  0.17633397891E+02  0.00000000000E+00 0. -1.
        -12    1    6    6    0    0 -0.92009562162E+02  0.78667483325E+02  0.94208265561E+01  0.12142110375E+03  0.00000000000E+00 0.  1.
</event>
<event>
12    1  0.8684423E-002  0.2473913E+03  0.7818608E-02  0.1115915E+00
         21   -1    0    0  503  502  0.00000000000E+00  0.00000000000E+00  0.10090538509E+04  0.10090538509E+04  0.00000000000E+00 0. -1.
         21   -1    0    0  501  503 -0.00000000000E+00 -0.00000000000E+00 -0.66262334504E+02  0.66262334504E+02  0.00000000000E+00 0.  1.
          6    2    1    2  501    0  0.74476100023E+02 -0.15219942408E+03  0.30124848304E+03  0.38981160380E+03  0.18025283288E+03 0.  0.
         24    2    3    3    0    0  0.81763492013E+02 -0.28185969063E+02  0.18416542408E+03  0.21903989712E+03  0.81128636292E+02 0.  0.
         -6    2    1    2    0  502 -0.74476100023E+02  0.15219942408E+03  0.64154303335E+03  0.68550458160E+03  0.17212702746E+03 0.  0.
        -24    2    5    5    0    0  0.99144666403E+01  0.11303639354E+03  0.28854089673E+03  0.32041814093E+03  0.80848086152E+02 0.  0.
          5    1    3    3  501    0 -0.72873919900E+01 -0.12401345502E+03  0.11708305896E+03  0.17077170668E+03  0.47000000000E+01 0. -1.
        -13    1    4    4    0    0  0.43452505133E+02 -0.50140161680E+02  0.69115880082E+02  0.95807937537E+02  0.00000000000E+00 0.  1.
         14    1    4    4    0    0  0.38310986880E+02  0.21954192617E+02  0.11504954399E+03  0.12323195958E+03  0.00000000000E+00 0. -1.
         -5    1    5    5    0  502 -0.84390566663E+02  0.39163030545E+02  0.35300213662E+03  0.36508644067E+03  0.47000000000E+01 0.  1.
         11    1    6    6    0    0  0.82522906589E+01  0.51222395388E+02  0.22818429243E+03  0.23400834473E+03  0.00000000000E+00 0. -1.
        -12    1    6    6    0    0  0.16621759814E+01  0.61813998148E+02  0.60356604304E+02  0.86409796199E+02  0.00000000000E+00 0.  1.
</event>
<event>
12    1  0.8684423E-002  0.2476574E+03  0.7818608E-02  0.1115272E+00
         21   -1    0    0  501  502  0.00000000000E+00  0.00000000000E+00  0.70059434267E+02  0.70059434267E+02  0.00000000000E+00 0. -1.
         21   -1    0    0  502  503 -0.00000000000E+00 -0.00000000000E+00 -0.15687625273E+04  0.15687625273E+04  0.00000000000E+00 0. -1.
         -6    2    1    2    0  503 -0.12205741981E+03  0.12537352929E+03 -0.12956820458E+04  0.13185849706E+04  0.17104918928E+03 0.  0.
        -24    2    3    3    0    0 -0.10473175422E+03  0.14898911111E+02 -0.65408208994E+03  0.66729593078E+03  0.79181822181E+02 0.  0.
          6    2    1    2  501    0  0.12205741981E+03 -0.12537352929E+03 -0.20302104715E+03  0.32023699094E+03  0.17526451211E+03 0.  0.
         24    2    5    5    0    0  0.13006635529E+03 -0.13317078927E+03 -0.21950938403E+03  0.29977005264E+03  0.83821231744E+02 0.  0.
          5    1    5    5  501    0 -0.80089354790E+01  0.77972599748E+01  0.16488336875E+02  0.20466938304E+02  0.47000000000E+01 0. -1.
        -13    1    6    6    0    0  0.32443613366E+02 -0.38829798987E+01 -0.78365179677E+02  0.84904457874E+02  0.00000000000E+00 0.  1.
         14    1    6    6    0    0  0.97622741922E+02 -0.12928780937E+03 -0.14114420435E+03  0.21486559477E+03  0.00000000000E+00 0. -1.
         -5    1    3    3    0  503 -0.17325665587E+02  0.11047461818E+03 -0.64159995589E+03  0.65128903979E+03  0.47000000000E+01 0.  1.
         13    1    4    4    0    0 -0.26788963522E+02  0.14734133869E+02 -0.40848291130E+03  0.40962547783E+03  0.00000000000E+00 0. -1.
        -14    1    4    4    0    0 -0.77942790700E+02  0.16477724209E+00 -0.24559917865E+03  0.25767045295E+03  0.00000000000E+00 0.  1.
</event>
<event>
12    1  0.8684423E-002  0.2101209E+03  0.7818608E-02  0.1141786E+00
         21   -1    0    0  503  502  0.00000000000E+00  0.00000000000E+00  0.24171192314E+03  0.24171192314E+03  0.00000000000E+00 0.  1.
         21   -1    0    0  501  503 -0.00000000000E+00 -0.00000000000E+00 -0.35126197635E+03  0.35126197635E+03  0.00000000000E+00 0.  1.
          6    2    1    2  501    0 -0.79171562258E+02 -0.90001211917E+02 -0.26112969328E+03  0.33517089332E+03  0.17257594444E+03 0.  0.
         24    2    3    3    0    0 -0.47505268118E+02  0.10682799380E+02 -0.67375542736E+02  0.11448381810E+03  0.78715996761E+02 0.  0.
         -6    2    1    2    0  502  0.79171562258E+02  0.90001211917E+02  0.15157964007E+03  0.25780300617E+03  0.17063894131E+03 0.  0.
        -24    2    5    5    0    0  0.62662711984E+02  0.11005300850E+03  0.16952593015E+03  0.22588473536E+03  0.79035387792E+02 0.  0.
          5    1    3    3  501    0 -0.31666294139E+02 -0.10068401130E+03 -0.19375415055E+03  0.22068707522E+03  0.47000000000E+01 0. -1.
        -11    1    4    4    0    0 -0.52630796870E+02  0.74509627106E+00 -0.81160164046E+02  0.96734317466E+02  0.00000000000E+00 0.  1.
         12    1    4    4    0    0  0.51255287520E+01  0.99377031088E+01  0.13784621310E+02  0.17749500633E+02  0.00000000000E+00 0. -1.
         -5    1    5    5    0  502  0.16508850274E+02 -0.20051796583E+02 -0.17946290083E+02  0.31918270807E+02  0.47000000000E+01 0.  1.
         11    1    6    6    0    0  0.46143564271E+01 -0.12344131496E+02  0.21608041671E+02  0.25309629245E+02  0.00000000000E+00 0. -1.
        -12    1    6    6    0    0  0.58048355556E+02  0.12239714000E+03  0.14791788848E+03  0.20057510612E+03  0.00000000000E+00 0.  1.
</event>
<event>
12    1  0.8684423E-002  0.2611379E+03  0.7818608E-02  0.1106524E+00
         21   -1    0    0  501  502  0.00000000000E+00  0.00000000000E+00  0.24918509656E+04  0.24918509656E+04  0.00000000000E+00 0. -1.
         21   -1    0    0  502  503 -0.00000000000E+00 -0.00000000000E+00 -0.31050445329E+02  0.31050445329E+02  0.00000000000E+00 0. -1.
         -6    2    1    2    0  503  0.15736840709E+03  0.11818482160E+03  0.79419098166E+03  0.83602173420E+03  0.17164077924E+03 0.  0.
        -24    2    3    3    0    0  0.10465746310E+03  0.14892051268E+03  0.63943268662E+03  0.66960254598E+03  0.79767820543E+02 0.  0.
          6    2    1    2  501    0 -0.15736840709E+03 -0.11818482160E+03  0.16666095386E+04  0.16868796767E+04  0.17100649683E+03 0.  0.
         24    2    5    5    0    0 -0.41097233273E+02 -0.69796500387E+02  0.47102148990E+03  0.48466784527E+03  0.80505541645E+02 0.  0.
          5    1    5    5  501    0 -0.11627117382E+03 -0.48388321211E+02  0.11955880487E+04  0.12022118314E+04  0.47000000000E+01 0. -1.
        -13    1    6    6    0    0 -0.21899240903E+02 -0.83247562051E+02  0.30198799972E+03  0.31401669592E+03  0.00000000000E+00 0.  1.
         14    1    6    6    0    0 -0.19197992370E+02  0.13451061664E+02  0.16903349018E+03  0.17065114935E+03  0.00000000000E+00 0. -1.
         -5    1    3    3    0  503  0.52710943994E+02 -0.30735691077E+02  0.15475829505E+03  0.16641918822E+03  0.47000000000E+01 0.  1.
         11    1    4    4    0    0  0.37441520890E+02  0.11808186996E+03  0.36884395647E+03  0.38909004064E+03  0.00000000000E+00 0. -1.
        -12    1    4    4    0    0  0.67215942211E+02  0.30838642715E+02  0.27058873015E+03  0.28051250535E+03  0.00000000000E+00 0.  1.
</event>
<event>
12    1  0.8684423E-002  0.2412257E+03  0.7818608E-02  0.1118998E+00
         21   -1    0    0  501  502  0.00000000000E+00  0.00000000000E+00  0.13239854844E+04  0.13239854844E+04  0.00000000000E+00 0.  1.
         21   -1    0    0  502  503 -0.00000000000E+00 -0.00000000000E+00 -0.64724078602E+02  0.64724078602E+02  0.00000000000E+00 0.  1.
         -6    2    1    2    0  503 -0.11387741245E+03 -0.12319316473E+03  0.23616388526E+03  0.33758441579E+03  0.17333561719E+03 0.  0.
        -24    2    3    3    0    0 -0.68042339935E+02 -0.15274019455E+03  0.16987489157E+03  0.25161813445E+03  0.80590816755E+02 0.  0.
          6    2    1    2  501    0  0.11387741245E+03  0.12319316473E+03  0.10230975205E+04  0.10511251472E+04  0.17317886029E+03 0.  0.
         24    2    5    5    0    0  0.11385465680E+03  0.63604733091E+02  0.45506498730E+03  0.47995631881E+03  0.79154787352E+02 0.  0.
          5    1    5    5  501    0  0.22755647505E-01  0.59588431635E+02  0.56803253323E+03  0.57116882838E+03  0.47000000000E+01 0. -1.
        -11    1    6    6    0    0  0.77021353519E+01 -0.64177423027E+01  0.13765746341E+03  0.13802205453E+03  0.00000000000E+00 0.  1.
         12    1    6    6    0    0  0.10615252145E+03  0.70022475394E+02  0.31740752389E+03  0.34193426428E+03  0.00000000000E+00 0. -1.
         -5    1    3    3    0  503 -0.45835072512E+02  0.29547029822E+02  0.66288993691E+02  0.85966281344E+02  0.47000000000E+01 0.  1.
         11    1    4    4    0    0 -0.81974555217E+02 -0.12141401892E+03  0.15767680720E+03  0.21522817479E+03  0.00000000000E+00 0. -1.
        -12    1    4    4    0    0  0.13932215282E+02 -0.31326175628E+02  0.12198084367E+02  0.36389959664E+02  0.00000000000E+00 0.  1.
</event>
<event>
12    1  0.8684423E-002  0.1965122E+03  0.7818608E-02  0.1153456E+00
         21   -1    0    0  503  502  0.00000000000E+00  0.00000000000E+00  0.18823808138E+03  0.18823808138E+03  0.00000000000E+00 0.  1.
         21   -1    0    0  501  503 -0.00000000000E+00 -0.00000000000E+00 -0.20167468434E+03  0.20167468434E+03  0.00000000000E+00 0. -1.
          6    2    1    2  501    0  0.82030116364E+02 -0.30365727874E+02 -0.99391515935E+01  0.19336943234E+03  0.17216832812E+03 0.  0.
         24    2    3    3    0    0  0.59644802286E+02 -0.85851023618E+02  0.63331760815E+01  0.13118744959E+03  0.79007196603E+02 0.  0.
         -6    2    1    2    0  502 -0.82030116364E+02  0.30365727874E+02 -0.34974513592E+01  0.19654333338E+03  0.17597168042E+03 0.  0.
        -24    2    5    5    0    0 -0.46079021627E+02 -0.38700133212E+02 -0.44241684741E+02  0.10853903272E+03  0.78755434169E+02 0.  0.
          5    1    3    3  501    0  0.22385314079E+02  0.55485295744E+02 -0.16272327675E+02  0.62181982746E+02  0.47000000000E+01 0. -1.
        -11    1    4    4    0    0 -0.15941770778E+02 -0.38871640802E+02  0.85266294285E+00  0.42022274430E+02  0.00000000000E+00 0.  1.
         12    1    4    4    0    0  0.75586573064E+02 -0.46979382816E+02  0.54805131386E+01  0.89165175161E+02  0.00000000000E+00 0. -1.
         -5    1    5    5    0  502 -0.35951094737E+02  0.69065861086E+02  0.40744233382E+02  0.88004300657E+02  0.47000000000E+01 0.  1.
         11    1    6    6    0    0 -0.47255236878E+02  0.77538410029E+00 -0.49800450914E+02  0.68656707933E+02  0.00000000000E+00 0. -1.
        -12    1    6    6    0    0  0.11762152508E+01 -0.39475517312E+02  0.55587661731E+01  0.39882324791E+02  0.00000000000E+00 0.  1.
</event>
<event>
12    1  0.8684423E-002  0.2118238E+03  0.7818608E-02  0.1140214E+00
         21   -1    0    0  501  502  0.00000000000E+00  0.00000000000E+00  0.11276911782E+04  0.11276911782E+04  0.00000000000E+00 0. -1.
         21   -1    0    0  502  503 -0.00000000000E+00 -0.00000000000E+00 -0.63859909052E+02  0.63859909052E+02  0.00000000000E+00 0. -1.
         -6    2    1    2    0  503  0.12198156097E+03  0.33800703393E+01  0.16585955150E+03  0.26903291577E+03  0.17314269505E+03 0.  0.
        -24    2    3    3    0    0  0.12450266036E+03  0.26741122606E+02  0.72420316634E+02  0.17257009745E+03  0.91212587939E+02 0.  0.
          6    2    1    2  501    0 -0.12198156097E+03 -0.33800703393E+01  0.89797171764E+03  0.92251817148E+03  0.17261415045E+03 0.  0.
         24    2    5    5    0    0 -0.48048404628E+01 -0.61046414832E+01  0.53664548627E+03  0.54262799973E+03  0.79977590710E+02 0.  0.
          5    1    5    5  501    0 -0.11717672050E+03  0.27245711440E+01  0.36132623137E+03  0.37989017175E+03  0.47000000000E+01 0. -1.
        -11    1    6    6    0    0 -0.30682934599E+02 -0.30921243652E+02  0.25260081717E+03  0.25632935575E+03  0.00000000000E+00 0.  1.
         12    1    6    6    0    0  0.25878094136E+02  0.24816602169E+02  0.28404466910E+03  0.28629864398E+03  0.00000000000E+00 0. -1.
         -5    1    3    3    0  503 -0.25210993893E+01 -0.23361052267E+02  0.93439234868E+02  0.96462818318E+02  0.47000000000E+01 0.  1.
         11    1    4    4    0    0  0.52043955740E+02 -0.32527240197E+02  0.41079722006E+02  0.73852137708E+02  0.00000000000E+00 0. -1.
        -12    1    4    4    0    0  0.72458704616E+02  0.59268362803E+02  0.31340594628E+02  0.98717959743E+02  0.00000000000E+00 0.  1.
</event>
<event>
12    1  0.8684423E-002  0.2278686E+03  0.7818608E-02  0.1128281E+00
         21   -1    0    0  501  502  0.00000000000E+00  0.00000000000E+00  0.25392784352E+03  0.25392784352E+03  0.00000000000E+00 0.  1.
         21   -1    0    0  502  503 -0.00000000000E+00 -0.00000000000E+00 -0.20384871302E+03  0.20384871302E+03  0.00000000000E+00 0.  1.
         -6    2    1    2    0  503  0.99865688784E+02  0.11110620496E+03  0.27809702067E+02  0.22955926918E+03  0.17206491206E+03 0.  0.
        -24    2    3    3    0    0  0.45018795283E+02  0.32158225163E+02  0.74461021629E+02  0.12260413440E+03  0.80165370670E+02 0.  0.
          6    2    1    2  501    0 -0.99865688784E+02 -0.11110620496E+03  0.22269428430E+02  0.22821728736E+03  0.17108319097E+03 0.  0.
         24    2    5    5    0    0 -0.78874674323E+02 -0.12586549893E+02 -0.29017491993E+02  0.11508381164E+03  0.77605627195E+02 0.  0.
          5    1    5    5  501    0 -0.20991014461E+02 -0.98519655066E+02  0.51286920424E+02  0.11313347572E+03  0.47000000000E+01 0. -1.
        -13    1    6    6    0    0 -0.50890540640E+02 -0.35528003737E+02  0.88658041015E+01  0.62695204430E+02  0.00000000000E+00 0.  1.
         14    1    6    6    0    0 -0.27984133683E+02  0.22941453844E+02 -0.37883296095E+02  0.52388607211E+02  0.00000000000E+00 0. -1.
         -5    1    3    3    0  503  0.54846893501E+02  0.78947979796E+02 -0.46651319562E+02  0.10695513479E+03  0.47000000000E+01 0.  1.
         13    1    4    4    0    0  0.30691533560E+02 -0.18512346262E+02  0.56611323233E+02  0.67003873877E+02  0.00000000000E+00 0. -1.
        -14    1    4    4    0    0  0.14327261724E+02  0.50670571424E+02  0.17849698396E+02  0.55600260519E+02  0.00000000000E+00 0.  1.
</event>
<event>
12    1  0.8684423E-002  0.1844684E+03  0.7818608E-02  0.1166231E+00
         21   -1    0    0  501  502  0.00000000000E+00  0.00000000000E+00  0.63500348795E+02  0.63500348795E+02  0.00000000000E+00 0. -1.
         21   -1    0    0  502  503 -0.00000000000E+00 -0.00000000000E+00 -0.55960263426E+03  0.55960263426E+03  0.00000000000E+00 0. -1.
         -6    2    1    2    0  503  0.43816589038E+02  0.46613916359E+02 -0.15696616389E+03  0.24221262454E+03  0.17301973358E+03 0.  0.
        -24    2    3    3    0    0  0.33486258698E+02 -0.40616176294E+02 -0.96125056651E+02  0.13525686210E+03  0.79267830363E+02 0.  0.
          6    2    1    2  501    0 -0.43816589038E+02 -0.46613916359E+02 -0.33913612157E+03  0.38089035851E+03  0.16115646304E+03 0.  0.
         24    2    5    5    0    0 -0.11470063328E+02 -0.51018110425E+01 -0.67370851189E+02  0.10403659784E+03  0.78276377477E+02 0.  0.
          5    1    5    5  501    0 -0.32346525710E+02 -0.41512105316E+02 -0.27176527039E+03  0.27685376068E+03  0.47000000000E+01 0. -1.
        -13    1    6    6    0    0 -0.17169999426E+02 -0.39767767817E+02 -0.29663470747E+02  0.52499578419E+02  0.00000000000E+00 0.  1.
         14    1    6    6    0    0  0.56999360985E+01  0.34665956775E+02 -0.37707380442E+02  0.51537019418E+02  0.00000000000E+00 0. -1.
         -5    1    3    3    0  503  0.10330330340E+02  0.87230092653E+02 -0.60841107237E+02  0.10695576244E+03  0.47000000000E+01 0.  1.
         11    1    4    4    0    0  0.52900352990E+02 -0.13949105164E+02 -0.32617628060E+02  0.63694069909E+02  0.00000000000E+00 0. -1.
        -12    1    4    4    0    0 -0.19414094291E+02 -0.26667071130E+02 -0.63507428591E+02  0.71562792190E+02  0.00000000000E+00 0.  1.
</event>
<event>
12    1  0.8684423E-002  0.2254268E+03  0.7818608E-02  0.1130130E+00
         21   -1    0    0  501  502  0.00000000000E+00  0.00000000000E+00  0.60767976229E+02  0.60767976229E+02  0.00000000000E+00 0. -1.
         21   -1    0    0  502  503 -0.00000000000E+00 -0.00000000000E+00 -0.83294224402E+03  0.83294224402E+03  0.00000000000E+00 0.  1.
         -6    2    1    2    0  503 -0.85185848258E+02 -0.11677641054E+03 -0.40319911602E+03  0.46132162998E+03  0.17133230964E+03 0.  0.
        -24    2    3    3    0    0 -0.23334020663E+01 -0.10895928858E+03 -0.29663397057E+03  0.32602988795E+03  0.80163607766E+02 0.  0.
          6    2    1    2  501    0  0.85185848258E+02  0.11677641054E+03 -0.36897515177E+03  0.43238859027E+03  0.17298517730E+03 0.  0.
         24    2    5    5    0    0  0.53831551631E+02  0.11540493067E+03 -0.15200750994E+03  0.21311246190E+03  0.78067306611E+02 0.  0.
          5    1    5    5  501    0  0.31354296627E+02  0.13714798723E+01 -0.21696764183E+03  0.21927612837E+03  0.47000000000E+01 0. -1.
        -11    1    6    6    0    0  0.38910829536E+02  0.77321986621E+02 -0.14872294985E+03  0.17207922037E+03  0.00000000000E+00 0.  1.
         12    1    6    6    0    0  0.14920722095E+02  0.38082944051E+02 -0.32845600955E+01  0.41033241530E+02  0.00000000000E+00 0. -1.
         -5    1    3    3    0  503 -0.82852446192E+02 -0.78171219666E+01 -0.10656514545E+03  0.13529174202E+03  0.47000000000E+01 0.  1.
         11    1    4    4    0    0 -0.80047564101E+01 -0.71515476656E+02 -0.86544493459E+02  0.11255438185E+03  0.00000000000E+00 0. -1.
        -12    1    4    4    0    0  0.56713543438E+01 -0.37443811921E+02 -0.21008947711E+03  0.21347550610E+03  0.00000000000E+00 0.  1.
</event>
<event>
12    1  0.8684423E-002  0.2440656E+03  0.7818608E-02  0.1117230E+00
         21   -1    0    0  501  502  0.00000000000E+00  0.00000000000E+00  0.95502498646E+03  0.95502498646E+03  0.00000000000E+00 0.  1.
         21   -1    0    0  502  503 -0.00000000000E+00 -0.00000000000E+00 -0.62632736110E+02  0.62632736110E+02  0.00000000000E+00 0. -1.
         -6    2    1    2    0  503 -0.19847451448E+02  0.17103963221E+03  0.48824734227E+03  0.54553364265E+03  0.17196805200E+03 0.  0.
        -24    2    3    3    0    0  0.88853210013E+01  0.24370792908E+02  0.10922642244E+03  0.13808270290E+03  0.80396125548E+02 0.  0.
          6    2    1    2  501    0  0.19847451448E+02 -0.17103963221E+03  0.40414490808E+03  0.47212407993E+03  0.17297272329E+03 0.  0.
         24    2    5    5    0    0  0.50302988555E+02 -0.16009766441E+03  0.39781607010E+03  0.43881626418E+03  0.78360929503E+02 0.  0.
          5    1    5    5  501    0 -0.30455537107E+02 -0.10941967802E+02  0.63288379867E+01  0.33307815751E+02  0.47000000000E+01 0. -1.
        -13    1    6    6    0    0  0.23070138763E+02 -0.15592478860E+03  0.34162322189E+03  0.37623290226E+03  0.00000000000E+00 0.  1.
         14    1    6    6    0    0  0.27232849792E+02 -0.41728758100E+01  0.56192848202E+02  0.62583361921E+02  0.00000000000E+00 0. -1.
         -5    1    3    3    0  503 -0.28732772450E+02  0.14666883930E+03  0.37902091983E+03  0.40745093975E+03  0.47000000000E+01 0.  1.
         13    1    4    4    0    0  0.40243726675E+02 -0.42043538718E+01  0.66694909095E+02  0.78009262446E+02  0.00000000000E+00 0. -1.
        -14    1    4    4    0    0 -0.31358405674E+02  0.28575146780E+02  0.42531513349E+02  0.60073440451E+02  0.00000000000E+00 0.  1.
</event>
<event>
12    1  0.8684423E-002  0.2227183E+03  0.7818608E-02  0.1132606E+00
         21   -1    0    0  503  502  0.00000000000E+00  0.00000000000E+00  0.19389654902E+03  0.19389654902E+03  0.00000000000E+00 0. -1.
         21   -1    0    0  501  503 -0.00000000000E+00 -0.00000000000E+00 -0.25300274514E+03  0.25300274514E+03  0.00000000000E+00 0. -1.
          6    2    1    2  501    0 -0.13510673148E+03  0.22097097732E+02 -0.48162502180E+02  0.22786632348E+03  0.17567391423E+03 0.  0.
         24    2    3    3    0    0 -0.13663846729E+03  0.50060157526E+02  0.13419286676E+02  0.16005271389E+03  0.65274067230E+02 0.  0.
         -6    2    1    2    0  502  0.13510673148E+03 -0.22097097732E+02 -0.10943693939E+02  0.21903297068E+03  0.17062698259E+03 0.  0.
        -24    2    5    5    0    0  0.16214581731E+03 -0.38954145203E+02  0.34338273835E+00  0.18490438571E+03  0.79880050355E+02 0.  0.
          5    1    3    3  501    0  0.15317358114E+01 -0.27963059794E+02 -0.61581788856E+02  0.67813609596E+02  0.47000000000E+01 0. -1.
        -13    1    4    4    0    0 -0.51766178475E+02  0.93748439414E+01  0.35387671977E+02  0.63402778021E+02  0.00000000000E+00 0.  1.
         14    1    4    4    0    0 -0.84872288817E+02  0.40685313584E+02 -0.21968385301E+02  0.96649935868E+02  0.00000000000E+00 0. -1.
         -5    1    5    5    0  502 -0.27039085828E+02  0.16857047470E+02 -0.11287076678E+02  0.34128584966E+02  0.47000000000E+01 0.  1.
         13    1    6    6    0    0  0.71400704977E+02 -0.36787858106E+02 -0.34842581801E+02  0.87552342527E+02  0.00000000000E+00 0. -1.
        -14    1    6    6    0    0  0.90745112332E+02 -0.21662870962E+01  0.35185964540E+02  0.97352043187E+02  0.00000000000E+00 0.  1.
</event>
<event>
12    1  0.8684423E-002  0.1749339E+03  0.7818608E-02  0.1173493E+00
         21   -1    0    0  501  502  0.00000000000E+00  0.00000000000E+00  0.30867673199E+02  0.30867673199E+02  0.00000000000E+00 0. -1.
         21   -1    0    0  502  503 -0.00000000000E+00 -0.00000000000E+00 -0.10803493373E+04  0.10803493373E+04  0.00000000000E+00 0. -1.
         -6    2    1    2    0  503 -0.24101692380E+02 -0.25977194267E+02 -0.69375073780E+03  0.71480012797E+03  0.16850350307E+03 0.  0.
        -24    2    3    3    0    0  0.12834907035E+02 -0.43876059631E+00 -0.63799131007E+03  0.64305246075E+03  0.79489799361E+02 0.  0.
          6    2    1    2  501    0  0.24101692380E+02  0.25977194267E+02 -0.35573092628E+03  0.39641688251E+03  0.17130717040E+03 0.  0.
         24    2    5    5    0    0 -0.27364594609E+02  0.65995787160E+02 -0.24918539071E+03  0.27141965205E+03  0.80442548524E+02 0.  0.
          5    1    5    5  501    0  0.51466286989E+02 -0.40018592893E+02 -0.10654553556E+03  0.12499723046E+03  0.47000000000E+01 0. -1.
        -13    1    6    6    0    0 -0.26336742280E+02  0.16702374916E+01 -0.15580022982E+03  0.15801938267E+03  0.00000000000E+00 0.  1.
         14    1    6    6    0    0 -0.10278523284E+01  0.64325549668E+02 -0.93385160894E+02  0.11340026938E+03  0.00000000000E+00 0. -1.
         -5    1    3    3    0  503 -0.36936599415E+02 -0.25538433671E+02 -0.55759427738E+02  0.71747667226E+02  0.47000000000E+01 0.  1.
         11    1    4    4    0    0 -0.19872442308E+02  0.26555610772E+02 -0.39483507778E+03  0.39622576023E+03  0.00000000000E+00 0. -1.
        -12    1    4    4    0    0  0.32707349344E+02 -0.26994371368E+02 -0.24315623229E+03  0.24682670052E+03  0.00000000000E+00 0.  1.
</event>
<event>
12    1  0.8684423E-002  0.3149678E+03  0.7818608E-02  0.1078111E+00
         21   -1    0    0  501  502  0.00000000000E+00  0.00000000000E+00  0.20241398675E+03  0.20241398675E+03  0.00000000000E+00 0.  1.
         21   -1    0    0  502  503 -0.00000000000E+00 -0.00000000000E+00 -0.76352890264E+03  0.76352890264E+03  0.00000000000E+00 0. -1.
         -6    2    1    2    0  503  0.25573970785E+03 -0.59406077053E+02 -0.57072121172E+03  0.65186458203E+03  0.17399095274E+03 0.  0.
        -24    2    3    3    0    0  0.11655335772E+03 -0.91941911016E+02 -0.22927575354E+03  0.28167745169E+03  0.68824526401E+02 0.  0.
          6    2    1    2  501    0 -0.25573970785E+03  0.59406077053E+02  0.96062958297E+01  0.31407830737E+03  0.17210758866E+03 0.  0.
         24    2    5    5    0    0 -0.27516137589E+03  0.63943608909E+02  0.62530505941E+01  0.29331476628E+03  0.78688522494E+02 0.  0.
          5    1    5    5  501    0  0.19421668041E+02 -0.45375318566E+01  0.33532452356E+01  0.20763541086E+02  0.47000000000E+01 0. -1.
        -11    1    6    6    0    0 -0.20158650072E+03  0.35243892523E+02  0.38100612632E+02  0.20816076940E+03  0.00000000000E+00 0.  1.
         12    1    6    6    0    0 -0.73574875170E+02  0.28699716387E+02 -0.31847562038E+02  0.85153996880E+02  0.00000000000E+00 0. -1.
         -5    1    3    3    0  503  0.13918635013E+03  0.32535833963E+02 -0.34144545818E+03  0.37018713033E+03  0.47000000000E+01 0.  1.
         11    1    4    4    0    0  0.55911930556E+02 -0.41376109457E+01 -0.93018760929E+02  0.10860825792E+03  0.00000000000E+00 0. -1.
        -12    1    4    4    0    0  0.60641427160E+02 -0.87804300071E+02 -0.13625699261E+03  0.17306919378E+03  0.00000000000E+00 0.  1.
</event>
<event>
12    1  0.8684423E-002  0.1956954E+03  0.7818608E-02  0.1153681E+00
         21   -1    0    0  503  502  0.00000000000E+00  0.00000000000E+00  0.56646916283E+03  0.56646916283E+03  0.00000000000E+00 0.  1.
         21   -1    0    0  501  503 -0.00000000000E+00 -0.00000000000E+00 -0.70634429054E+02  0.70634429054E+02  0.00000000000E+00 0.  1.
          6    2    1    2  501    0  0.47894234301E+02  0.79051537321E+02  0.31747924494E+03  0.37232562830E+03  0.17114408926E+03 0.  0.
         24    2    3    3    0    0  0.13284158097E+02  0.11723680137E+03  0.23713847130E+03  0.27676045852E+03  0.80254348034E+02 0.  0.
         -6    2    1    2    0  502 -0.47894234301E+02 -0.79051537321E+02  0.17835548883E+03  0.26477796358E+03  0.17249256903E+03 0.  0.
        -24    2    5    5    0    0 -0.69024147219E+02  0.71694236328E+01  0.11469873943E+03  0.15543995980E+03  0.78676850086E+02 0.  0.
          5    1    3    3  501    0  0.34610076205E+02 -0.38185264051E+02  0.80340773641E+02  0.95565169778E+02  0.47000000000E+01 0. -1.
        -13    1    4    4    0    0  0.27775013601E+02  0.53375120559E+02  0.18021107018E+03  0.18999048579E+03  0.00000000000E+00 0.  1.
         14    1    4    4    0    0 -0.14490855504E+02  0.63861680813E+02  0.56927401118E+02  0.86769972730E+02  0.00000000000E+00 0. -1.
         -5    1    5    5    0  502  0.21129912917E+02 -0.86220960954E+02  0.63656749400E+02  0.10933800379E+03  0.47000000000E+01 0.  1.
         13    1    6    6    0    0 -0.21998586150E+02  0.16951657011E+01 -0.83552814603E+01  0.23592840177E+02  0.00000000000E+00 0. -1.
        -14    1    6    6    0    0 -0.47025561069E+02  0.54742579317E+01  0.12305402089E+03  0.13184711962E+03  0.00000000000E+00 0.  1.
</event>
<event>
12    1  0.8684423E-002  0.2745576E+03  0.7818608E-02  0.1098721E+00
         21   -1    0    0  501  502  0.00000000000E+00  0.00000000000E+00  0.11378720271E+04  0.11378720271E+04  0.00000000000E+00 0.  1.
         21   -1    0    0  502  503 -0.00000000000E+00 -0.00000000000E+00 -0.88112150900E+02  0.88112150900E+02  0.00000000000E+00 0.  1.
         -6    2    1    2    0  503 -0.13498070552E+03 -0.16623383035E+03  0.21915231391E+03  0.35117515682E+03  0.17158897652E+03 0.  0.
        -24    2    3    3    0    0 -0.58533887751E+02 -0.10299407319E+03  0.20607794309E+03  0.25099326223E+03  0.80594689203E+02 0.  0.
          6    2    1    2  501    0  0.13498070552E+03  0.16623383035E+03  0.83060756232E+03  0.87480902120E+03  0.17183836528E+03 0.  0.
         24    2    5    5    0    0  0.85440326924E+02  0.12468453706E+03  0.34614852476E+03  0.38603172840E+03  0.79720830990E+02 0.  0.
          5    1    5    5  501    0  0.49540378591E+02  0.41549293292E+02  0.48445903756E+03  0.48877729280E+03  0.47000000000E+01 0. -1.
        -11    1    6    6    0    0  0.43819727100E+02  0.84691800426E+02  0.29090402865E+03  0.30613399587E+03  0.00000000000E+00 0.  1.
         12    1    6    6    0    0  0.41620599825E+02  0.39992736634E+02  0.55244496102E+02  0.79897732526E+02  0.00000000000E+00 0. -1.
         -5    1    3    3    0  503 -0.76446817764E+02 -0.63239757160E+02  0.13074370816E+02  0.10018189459E+03  0.47000000000E+01 0.  1.
         11    1    4    4    0    0  0.18469934140E+01  0.12421444665E+02  0.12898499546E+02  0.18002082179E+02  0.00000000000E+00 0. -1.
        -12    1    4    4    0    0 -0.60380881165E+02 -0.11541551786E+03  0.19317944354E+03  0.23299118005E+03  0.00000000000E+00 0.  1.
</event>
<event>
12    1  0.8684423E-002  0.2055697E+03  0.7818608E-02  0.1145572E+00
         21   -1    0    0  501  502  0.00000000000E+00  0.00000000000E+00  0.35071740552E+03  0.35071740552E+03  0.00000000000E+00 0.  1.
         21   -1    0    0  502  503 -0.00000000000E+00 -0.00000000000E+00 -0.19085514555E+03  0.19085514555E+03  0.00000000000E+00 0.  1.
         -6    2    1    2    0  503 -0.98174433645E+02 -0.53812836921E+02 -0.86243432296E+02  0.22090617839E+03  0.16978683459E+03 0.  0.
        -24    2    3    3    0    0 -0.34455176282E+02  0.29782385800E+01 -0.10143078611E+03  0.13408385562E+03  0.80586890315E+02 0.  0.
          6    2    1    2  501    0  0.98174433645E+02  0.53812836921E+02  0.24610569227E+03  0.32066637268E+03  0.17240901937E+03 0.  0.
         24    2    5    5    0    0  0.54674436691E+02 -0.29621959142E+02  0.17707586727E+03  0.20387244446E+03  0.79632633700E+02 0.  0.
          5    1    5    5  501    0  0.43499996954E+02  0.83434796062E+02  0.69029824999E+02  0.11679392822E+03  0.47000000000E+01 0. -1.
        -13    1    6    6    0    0  0.54114738369E+02  0.14271451161E+02  0.11436895422E+03  0.12732767537E+03  0.00000000000E+00 0.  1.
         14    1    6    6    0    0  0.55969832274E+00 -0.43893410302E+02  0.62706913048E+02  0.76544769085E+02  0.00000000000E+00 0. -1.
         -5    1    3    3    0  503 -0.63719257363E+02 -0.56791075501E+02  0.15187353813E+02  0.86822322770E+02  0.47000000000E+01 0.  1.
         13    1    4    4    0    0 -0.45357281704E+02  0.17746018536E+02 -0.23607410933E+02  0.54124985251E+02  0.00000000000E+00 0. -1.
        -14    1    4    4    0    0  0.10902105422E+02 -0.14767779956E+02 -0.77823375177E+02  0.79958870374E+02  0.00000000000E+00 0.  1.
</event>
<event>
12    1  0.8684423E-002  0.2472778E+03  0.7818608E-02  0.1115199E+00
         21   -1    0    0  501  502  0.00000000000E+00  0.00000000000E+00  0.42386713482E+02  0.42386713482E+02  0.00000000000E+00 0.  1.
         21   -1    0    0  502  503 -0.00000000000E+00 -0.00000000000E+00 -0.17808687616E+04  0.17808687616E+04  0.00000000000E+00 0. -1.
         -6    2    1    2    0  503  0.17945933035E+03 -0.44723161357E+01 -0.46991438228E+03  0.53100454167E+03  0.17006070605E+03 0.  0.
        -24    2    3    3    0    0  0.46514616792E+02 -0.47515554267E+02 -0.16856270517E+03  0.19879686490E+03  0.81764726175E+02 0.  0.
          6    2    1    2  501    0 -0.17945933035E+03  0.44723161357E+01 -0.12685676659E+04  0.12922509335E+04  0.16859092272E+03 0.  0.
         24    2    5    5    0    0 -0.10804348313E+03  0.46670674724E+02 -0.51291946916E+03  0.53204884722E+03  0.78345694577E+02 0.  0.
          5    1    5    5  501    0 -0.71415847217E+02 -0.42198358589E+02 -0.75564819672E+03  0.76020208623E+03  0.47000000000E+01 0. -1.
        -11    1    6    6    0    0 -0.99061044562E+02  0.74981861286E+01 -0.32338829532E+03  0.33830356619E+03  0.00000000000E+00 0.  1.
         12    1    6    6    0    0 -0.89824385694E+01  0.39172488596E+02 -0.18953117384E+03  0.19374528104E+03  0.00000000000E+00 0. -1.
         -5    1    3    3    0  503  0.13294471356E+03  0.43043238131E+02 -0.30135167711E+03  0.33220767677E+03  0.47000000000E+01 0.  1.
         11    1    4    4    0    0 -0.18959362166E+00  0.20100735534E+02 -0.55469074449E+02  0.58999099442E+02  0.00000000000E+00 0. -1.
        -12    1    4    4    0    0  0.46704210413E+02 -0.67616289801E+02 -0.11309363072E+03  0.13979776545E+03  0.00000000000E+00 0.  1.
</event>
<event>
12    1  0.8684423E-002  0.1961403E+03  0.7818608E-02  0.1153513E+00
         21   -1    0    0  503  502  0.00000000000E+00  0.00000000000E+00  0.23942159903E+02  0.23942159903E+02  0.00000000000E+00 0. -1.
         21   -1    0    0  501  503 -0.00000000000E+00 -0.00000000000E+00 -0.17690539602E+04  0.17690539602E+04  0.00000000000E+00 0. -1.
          6    2    1    2  501    0  0.36825058140E+02  0.77912579666E+02 -0.11541918833E+04  0.11703747497E+04  0.17375757923E+03 0.  0.
         24    2    3    3    0    0 -0.33443100329E+02  0.56057947792E+02 -0.89762162943E+03  0.90341852822E+03  0.78609878764E+02 0.  0.
         -6    2    1    2    0  502 -0.36825058140E+02 -0.77912579666E+02 -0.59091991706E+03  0.62262137044E+03  0.17619468657E+03 0.  0.
        -24    2    5    5    0    0 -0.89308262365E+02 -0.45066089924E+02 -0.46442519121E+03  0.48170868726E+03  0.79659167461E+02 0.  0.
          5    1    3    3  501    0  0.70268158468E+02  0.21854631874E+02 -0.25657025384E+03  0.26695622147E+03  0.47000000000E+01 0. -1.
        -13    1    4    4    0    0 -0.39472209381E+01 -0.14131507379E+02 -0.37431934884E+03  0.37460680048E+03  0.00000000000E+00 0.  1.
         14    1    4    4    0    0 -0.29495879391E+02  0.70189455171E+02 -0.52330228059E+03  0.52881172773E+03  0.00000000000E+00 0. -1.
         -5    1    5    5    0  502  0.52483204226E+02 -0.32846489742E+02 -0.12649472585E+03  0.14091268318E+03  0.47000000000E+01 0.  1.
         11    1    6    6    0    0 -0.76304958816E+02 -0.30324780432E+02 -0.19519626477E+03  0.21176312433E+03  0.00000000000E+00 0. -1.
        -12    1    6    6    0    0 -0.13003303550E+02 -0.14741309492E+02 -0.26922892645E+03  0.26994556293E+03  0.00000000000E+00 0.  1.
</event>
<event>
12    1  0.8684423E-002  0.2506078E+03  0.7818608E-02  0.1113005E+00
         21   -1    0    0  503  502  0.00000000000E+00  0.00000000000E+00  0.10036252913E+04  0.10036252913E+04  0.00000000000E+00 0. -1.
         21   -1    0    0  501  503 -0.00000000000E+00 -0.00000000000E+00 -0.63217878717E+02  0.63217878717E+02  0.00000000000E+00 0. -1.
          6    2    1    2  501    0  0.69444108011E+02 -0.16715358884E+03  0.52867573332E+03  0.58483981166E+03  0.17255946192E+03 0.  0.
         24    2    3    3    0    0  0.49364802602E+02 -0.12596888895E+03  0.51287104311E+03  0.53614447058E+03  0.78160998899E+02 0.  0.
         -6    2    1    2    0  502 -0.69444108011E+02  0.16715358884E+03  0.41173167924E+03  0.48200335834E+03  0.17332471075E+03 0.  0.
        -24    2    5    5    0    0 -0.12597538654E+02  0.28237755202E+02  0.23435160130E+03  0.24959224988E+03  0.80122090400E+02 0.  0.
          5    1    3    3  501    0  0.20079305410E+02 -0.41184699888E+02  0.15804690212E+02  0.48695341084E+02  0.47000000000E+01 0. -1.
        -13    1    4    4    0    0  0.51946662158E+02 -0.83106162283E+02  0.22967179935E+03  0.24970828047E+03  0.00000000000E+00 0.  1.
         14    1    4    4    0    0 -0.25818595559E+01 -0.42862726669E+02  0.28319924376E+03  0.28643619010E+03  0.00000000000E+00 0. -1.
         -5    1    5    5    0  502 -0.56846569358E+02  0.13891583364E+03  0.17738007794E+03  0.23241110846E+03  0.47000000000E+01 0.  1.
         11    1    6    6    0    0  0.27137237792E+02  0.98561909383E+01  0.16550447928E+03  0.16800388935E+03  0.00000000000E+00 0. -1.
        -12    1    6    6    0    0 -0.39734776445E+02  0.18381564263E+02  0.68847122022E+02  0.81588360534E+02  0.00000000000E+00 0.  1.
</event>
<event>
12    1  0.8684423E-002  0.2646805E+03  0.7818608E-02  0.1104426E+00
         21   -1    0    0  501  502  0.00000000000E+00  0.00000000000E+00  0.11584253798E+03  0.11584253798E+03  0.00000000000E+00 0. -1.
         21   -1    0    0  502  503 -0.00000000000E+00 -0.00000000000E+00 -0.66266720128E+03  0.66266720128E+03  0.00000000000E+00 0. -1.
         -6    2    1    2    0  503 -0.12571555092E+03  0.15712402291E+03 -0.15757549889E+03  0.30803543022E+03  0.17194019338E+03 0.  0.
        -24    2    3    3    0    0 -0.90275912707E+02  0.41341155877E+02 -0.13356380998E+03  0.18450287799E+03  0.79644140178E+02 0.  0.
          6    2    1    2  501    0  0.12571555092E+03 -0.15712402291E+03 -0.38924916441E+03  0.47047430905E+03  0.17128574127E+03 0.  0.
         24    2    5    5    0    0  0.13417792868E+03 -0.10629628267E+03 -0.20495309177E+03  0.27905277576E+03  0.81006577391E+02 0.  0.
          5    1    5    5  501    0 -0.84623777558E+01 -0.50827740240E+02 -0.18429607264E+03  0.19142153329E+03  0.47000000000E+01 0. -1.
        -13    1    6    6    0    0  0.61705261748E+02 -0.89635844866E+02 -0.85707786240E+02  0.13852057116E+03  0.00000000000E+00 0.  1.
         14    1    6    6    0    0  0.72472666928E+02 -0.16660437807E+02 -0.11924530553E+03  0.14053220460E+03  0.00000000000E+00 0. -1.
         -5    1    3    3    0  503 -0.35439638213E+02  0.11578286704E+03 -0.24011688901E+02  0.12353255223E+03  0.47000000000E+01 0.  1.
         13    1    4    4    0    0 -0.88949260176E+02  0.24375885390E+02 -0.62453779492E+02  0.11138504948E+03  0.00000000000E+00 0. -1.
        -14    1    4    4    0    0 -0.13266525310E+01  0.16965270487E+02 -0.71110030493E+02  0.73117828512E+02  0.00000000000E+00 0.  1.
</event>
<event>
12    1  0.8684423E-002  0.2377978E+03  0.7818608E-02  0.1121309E+00
         21   -1    0    0  501  502  0.00000000000E+00  0.00000000000E+00  0.74411287639E+03  0.74411287639E+03  0.00000000000E+00 0.  1.
         21   -1    0    0  502  503 -0.00000000000E+00 -0.00000000000E+00 -0.11611112130E+03  0.11611112130E+03  0.00000000000E+00 0.  1.
         -6    2    1    2    0  503  0.14585692089E+03 -0.77572728942E+02  0.56716480775E+03  0.61499894005E+03  0.17104387582E+03 0.  0.
        -24    2    3    3    0    0  0.10454097911E+03 -0.73863761894E+02  0.22146461033E+03  0.26678710800E+03  0.75789944775E+02 0.  0.
          6    2    1    2  501    0 -0.14585692089E+03  0.77572728942E+02  0.60836947327E+02  0.24522505764E+03  0.17071152594E+03 0.  0.
         24    2    5    5    0    0 -0.47264476557E+02 -0.20733568890E+02  0.38946006998E+02  0.10420767736E+03  0.81722927855E+02 0.  0.
          5    1    5    5  501    0 -0.98592444332E+02  0.98306297832E+02  0.21890940329E+02  0.14101738028E+03  0.47000000000E+01 0. -1.
        -11    1    6    6    0    0 -0.52062654532E+02  0.17071952126E+02  0.85328072049E+01  0.55450701936E+02  0.00000000000E+00 0.  1.
         12    1    6    6    0    0  0.47981779751E+01 -0.37805521016E+02  0.30413199793E+02  0.48756975428E+02  0.00000000000E+00 0. -1.
         -5    1    3    3    0  503  0.41315941778E+02 -0.37089670487E+01  0.34570019742E+03  0.34821183205E+03  0.47000000000E+01 0.  1.
         13    1    4    4    0    0  0.94511360969E+02 -0.32633777769E+02  0.18727229459E+03  0.21229289466E+03  0.00000000000E+00 0. -1.
        -14    1    4    4    0    0  0.10029618142E+02 -0.41229984125E+02  0.34192315744E+02  0.54494213335E+02  0.00000000000E+00 0.  1.
</event>
<event>
12    1  0.8684423E-002  0.3745634E+03  0.7818608E-02  0.1052971E+00
         21   -1    0    0  503  502  0.00000000000E+00  0.00000000000E+00  0.48526396069E+03  0.48526396069E+03  0.00000000000E+00 0. -1.
         21   -1    0    0  501  503 -0.00000000000E+00 -0.00000000000E+00 -0.34740374282E+03  0.34740374282E+03  0.00000000000E+00 0. -1.
          6    2    1    2  501    0 -0.12522144319E+03 -0.30806743944E+03  0.23957898448E+03  0.44462996284E+03  0.17237098647E+03 0.  0.
         24    2    3    3    0    0 -0.13996409350E+03 -0.24998294191E+03  0.14680450226E+03  0.33408427481E+03  0.89327051187E+02 0.  0.
         -6    2    1    2    0  502  0.12522144319E+03  0.30806743944E+03 -0.10171876661E+03  0.38803774067E+03  0.17216452488E+03 0.  0.
        -24    2    5    5    0    0  0.15574133538E+03  0.21885265013E+03 -0.75050176783E+02  0.28993551779E+03  0.79235278909E+02 0.  0.
          5    1    3    3  501    0  0.14742650311E+02 -0.58084497522E+02  0.92774482228E+02  0.11054568804E+03  0.47000000000E+01 0. -1.
        -13    1    4    4    0    0 -0.24372340841E+02 -0.13134743684E+03  0.52919675735E+02  0.14368942982E+03  0.00000000000E+00 0.  1.
         14    1    4    4    0    0 -0.11559175266E+03 -0.11863550508E+03  0.93884826522E+02  0.19039484499E+03  0.00000000000E+00 0. -1.
         -5    1    5    5    0  502 -0.30519892196E+02  0.89214789308E+02 -0.26668589832E+02  0.98102222883E+02  0.47000000000E+01 0.  1.
         11    1    6    6    0    0  0.12423677858E+03  0.20951321129E+03 -0.50101856077E+02  0.24867802243E+03  0.00000000000E+00 0. -1.
        -12    1    6    6    0    0  0.31504556807E+02  0.93394388413E+01 -0.24948320706E+02  0.41257495362E+02  0.00000000000E+00 0.  1.
</event>
<event>
12    1  0.8684423E-002  0.2136614E+03  0.7818608E-02  0.1138899E+00
         21   -1    0    0  503  502  0.00000000000E+00  0.00000000000E+00  0.97335133717E+02  0.97335133717E+02  0.00000000000E+00 0.  1.
         21   -1    0    0  501  503 -0.00000000000E+00 -0.00000000000E+00 -0.47045448966E+03  0.47045448966E+03  0.00000000000E+00 0. -1.
          6    2    1    2  501    0 -0.51312258598E+02 -0.11435559365E+03 -0.21132074432E+03  0.29977844220E+03  0.17175711847E+03 0.  0.
         24    2    3    3    0    0 -0.70586716868E+02 -0.27627784850E+02 -0.63263289267E+02  0.12704651823E+03  0.79954955645E+02 0.  0.
         -6    2    1    2    0  502  0.51312258598E+02  0.11435559365E+03 -0.16179861162E+03  0.26801118118E+03  0.17303483127E+03 0.  0.
        -24    2    5    5    0    0 -0.53393879265E+01  0.66238383356E+01 -0.21640428106E+02  0.82318029548E+02  0.78965597334E+02 0.  0.
          5    1    3    3  501    0  0.19274458270E+02 -0.86727808795E+02 -0.14805745506E+03  0.17273192397E+03  0.47000000000E+01 0. -1.
        -13    1    4    4    0    0 -0.32142170254E+02  0.24992640346E+02 -0.42003396224E+02  0.58498174967E+02  0.00000000000E+00 0.  1.
         14    1    4    4    0    0 -0.38444546614E+02 -0.52620425197E+02 -0.21259893043E+02  0.68548343265E+02  0.00000000000E+00 0. -1.
         -5    1    5    5    0  502  0.56651646525E+02  0.10773175531E+03 -0.14015818351E+03  0.18569315163E+03  0.47000000000E+01 0.  1.
         13    1    6    6    0    0  0.18998817649E+01  0.37289441175E+02 -0.31974929604E+02  0.49157991182E+02  0.00000000000E+00 0. -1.
        -14    1    6    6    0    0 -0.72392696915E+01 -0.30665602840E+02  0.10334501498E+02  0.33160038365E+02  0.00000000000E+00 0.  1.
</event>
<event>
12    1  0.8684423E-002  0.2870214E+03  0.7818608E-02  0.1091933E+00
         21   -1    0    0  501  502  0.00000000000E+00  0.00000000000E+00  0.35690881079E+03  0.35690881079E+03  0.00000000000E+00 0.  1.
         21   -1    0    0  502  503 -0.00000000000E+00 -0.00000000000E+00 -0.23070582078E+03  0.23070582078E+03  0.00000000000E+00 0. -1.
         -6    2    1    2    0  503  0.63243692664E+02  0.22041632477E+03  0.62581027520E+02  0.29376462668E+03  0.17262140653E+03 0.  0.
        -24    2    3    3    0    0  0.60980443192E+02  0.14495239464E+03 -0.24867159668E+02  0.17813935915E+03  0.79908976237E+02 0.  0.
          6    2    1    2  501    0 -0.63243692664E+02 -0.22041632477E+03  0.63621962487E+02  0.29385000489E+03  0.17238605041E+03 0.  0.
         24    2    5    5    0    0 -0.31953311085E+02 -0.12665660905E+03  0.10584492833E+03  0.18626356933E+03  0.80175168851E+02 0.  0.
          5    1    5    5  501    0 -0.31290381580E+02 -0.93759715724E+02 -0.42222965846E+02  0.10758643556E+03  0.47000000000E+01 0. -1.
        -13    1    6    6    0    0 -0.45599980642E+01 -0.11524245163E+03  0.10591488815E+03  0.15658729122E+03  0.00000000000E+00 0.  1.
         14    1    6    6    0    0 -0.27393313021E+02 -0.11414157421E+02 -0.69959821309E-01  0.29676278106E+02  0.00000000000E+00 0. -1.
         -5    1    3    3    0  503  0.22632494721E+01  0.75463930130E+02  0.87448187189E+02  0.11562526753E+03  0.47000000000E+01 0.  1.
         13    1    4    4    0    0  0.29675284011E+02  0.12426803848E+03 -0.45126976533E+02  0.13549764529E+03  0.00000000000E+00 0. -1.
        -14    1    4    4    0    0  0.31305159181E+02  0.20684356164E+02  0.20259816865E+02  0.42641713857E+02  0.00000000000E+00 0.  1.
</event>
<event>
12    1  0.8684423E-002  0.2001632E+03  0.7818608E-02  0.1149682E+00
         21   -1    0    0  503  502  0.00000000000E+00  0.00000000000E+00  0.96914873912E+02  0.96914873912E+02  0.00000000000E+00 0. -1.
         21   -1    0    0  501  503 -0.00000000000E+00 -0.00000000000E+00 -0.45308741881E+03  0.45308741881E+03  0.00000000000E+00 0. -1.
          6    2    1    2  501    0 -0.10014103247E+03  0.11739343658E+02 -0.26042988228E+03  0.32846465741E+03  0.17291405094E+03 0.  0.
         24    2    3    3    0    0 -0.12039580323E+02 -0.26624639976E+02 -0.52010518508E+02  0.98912087608E+02  0.78896667175E+02 0.  0.
         -6    2    1    2    0  502  0.10014103247E+03 -0.11739343658E+02 -0.95742662622E+02  0.22153763531E+03  0.17247094781E+03 0.  0.
        -24    2    5    5    0    0 -0.12490397372E+02  0.16766740105E+02 -0.52624718750E+02  0.97522785861E+02  0.79398987010E+02 0.  0.
          5    1    3    3  501    0 -0.88101452148E+02  0.38363983634E+02 -0.20841936377E+03  0.22955256981E+03  0.47000000000E+01 0. -1.
        -11    1    4    4    0    0 -0.21015086283E+02 -0.52603020988E+02 -0.34615048067E+02  0.66384585720E+02  0.00000000000E+00 0.  1.
         12    1    4    4    0    0  0.89755059593E+01  0.25978381012E+02 -0.17395470441E+02  0.32527501888E+02  0.00000000000E+00 0. -1.
         -5    1    5    5    0  502  0.11263142984E+03 -0.28506083764E+02 -0.43117943872E+02  0.12401484945E+03  0.47000000000E+01 0.  1.
         13    1    6    6    0    0  0.62150002322E+01 -0.16410982877E+02  0.12867684945E+02  0.21760604374E+02  0.00000000000E+00 0. -1.
        -14    1    6    6    0    0 -0.18705397604E+02  0.33177722982E+02 -0.65492403695E+02  0.75762181487E+02  0.00000000000E+00 0.  1.
</event>
<event>
12    1  0.8684423E-002  0.2000065E+03  0.7818608E-02  0.1149994E+00
         21   -1    0    0  503  502  0.00000000000E+00  0.00000000000E+00  0.16022480882E+04  0.16022480882E+04  0.00000000000E+00 0.  1.
         21   -1    0    0  501  503 -0.00000000000E+00 -0.00000000000E+00 -0.43255398476E+02  0.43255398476E+02  0.00000000000E+00 0.  1.
          6    2    1    2  501    0  0.96744757087E+02 -0.28227508923E+02  0.24365315874E+03  0.31522921338E+03  0.17276068685E+03 0.  0.
         24    2    3    3    0    0  0.82159259617E+02  0.12259991129E+02  0.24582047796E+03  0.27188452893E+03  0.81197526840E+02 0.  0.
         -6    2    1    2    0  502 -0.96744757087E+02  0.28227508923E+02  0.13153395310E+04  0.13302742733E+04  0.17133365153E+03 0.  0.
        -24    2    5    5    0    0 -0.13547998204E+02 -0.39925026904E+02  0.64311409342E+03  0.64948385200E+03  0.80349118359E+02 0.  0.
          5    1    3    3  501    0  0.14585497470E+02 -0.40487500051E+02 -0.21673192233E+01  0.43344684443E+02  0.47000000000E+01 0. -1.
        -11    1    4    4    0    0  0.34051549665E+02  0.33948616472E+02  0.51208247541E+02  0.70244581365E+02  0.00000000000E+00 0.  1.
         12    1    4    4    0    0  0.48107709952E+02 -0.21688625343E+02  0.19461223042E+03  0.20163994757E+03  0.00000000000E+00 0. -1.
         -5    1    5    5    0  502 -0.83196758883E+02  0.68152535827E+02  0.67222543761E+03  0.68079042135E+03  0.47000000000E+01 0.  1.
         11    1    6    6    0    0  0.13732822435E+02 -0.47369406065E+02  0.22159007381E+03  0.22701236057E+03  0.00000000000E+00 0. -1.
        -12    1    6    6    0    0 -0.27280820639E+02  0.74443791606E+01  0.42152401962E+03  0.42247149143E+03  0.00000000000E+00 0.  1.
</event>
<event>
12    1  0.8684423E-002  0.2125440E+03  0.7818608E-02  0.1139888E+00
         21   -1    0    0  501  502  0.00000000000E+00  0.00000000000E+00  0.58911918783E+02  0.58911918783E+02  0.00000000000E+00 0.  1.
         21   -1    0    0  502  503 -0.00000000000E+00 -0.00000000000E+00 -0.17837371155E+04  0.17837371155E+04  0.00000000000E+00 0.  1.
         -6    2    1    2    0  503  0.11244070593E+03 -0.51466191359E+02 -0.15586510803E+04  0.15728550206E+04  0.17084508888E+03 0.  0.
        -24    2    3    3    0    0  0.91209870116E+02  0.21368314021E+02 -0.11861874567E+04  0.11927144486E+04  0.82165857705E+02 0.  0.
          6    2    1    2  501    0 -0.11244070593E+03  0.51466191359E+02 -0.16617411640E+03  0.26979401370E+03  0.17286784450E+03 0.  0.
         24    2    5    5    0    0  0.11742045067E+02  0.11034692519E+02 -0.75013307522E+02  0.11045649514E+03  0.79460688097E+02 0.  0.
          5    1    5    5  501    0 -0.12418275100E+03  0.40431498840E+02 -0.91160808878E+02  0.15933751856E+03  0.47000000000E+01 0. -1.
        -13    1    6    6    0    0 -0.31661585300E+02  0.71467132684E+01 -0.51674394018E+02  0.61022737495E+02  0.00000000000E+00 0.  1.
         14    1    6    6    0    0  0.43403630368E+02  0.38879792502E+01 -0.23338913504E+02  0.49433757649E+02  0.00000000000E+00 0. -1.
         -5    1    3    3    0  503  0.21230835816E+02 -0.72834505380E+02 -0.37246362361E+03  0.38014057200E+03  0.47000000000E+01 0.  1.
         13    1    4    4    0    0 -0.30232030136E+01 -0.70822306529E+01 -0.43941566358E+03  0.43948313181E+03  0.00000000000E+00 0. -1.
        -14    1    4    4    0    0  0.94233073130E+02  0.28450544674E+02 -0.74677179315E+03  0.75323131680E+03  0.00000000000E+00 0.  1.
</event>
<event>
12    1  0.8684423E-002  0.2118487E+03  0.7818608E-02  0.1140340E+00
         21   -1    0    0  503  502  0.00000000000E+00  0.00000000000E+00  0.79216733196E+03  0.79216733196E+03  0.00000000000E+00 0.  1.
         21   -1    0    0  501  503 -0.00000000000E+00 -0.00000000000E+00 -0.10782008357E+03  0.10782008357E+03  0.00000000000E+00 0.  1.
          6    2    1    2  501    0  0.10996682165E+03 -0.53547621400E+02  0.30745994332E+02  0.21291065722E+03  0.17153886490E+03 0.  0.
         24    2    3    3    0    0  0.11960453831E+03 -0.74970450943E+02 -0.12869464646E+02  0.16314901065E+03  0.80784667208E+02 0.  0.
         -6    2    1    2    0  502 -0.10996682165E+03  0.53547621400E+02  0.65360125406E+03  0.68707675830E+03  0.17297347449E+03 0.  0.
        -24    2    5    5    0    0 -0.99832987699E+02 -0.22083099396E+02  0.48261263872E+03  0.49977513767E+03  0.80037119299E+02 0.  0.
          5    1    3    3  501    0 -0.96377166622E+01  0.21422829543E+02  0.43615458978E+02  0.49761646576E+02  0.47000000000E+01 0. -1.
        -11    1    4    4    0    0  0.68407182231E+02 -0.12797604683E+02 -0.37334107661E+02  0.78975672592E+02  0.00000000000E+00 0.  1.
         12    1    4    4    0    0  0.51197356080E+02 -0.62172846260E+02  0.24464643015E+02  0.84173338056E+02  0.00000000000E+00 0. -1.
         -5    1    5    5    0  502 -0.10133833950E+02  0.75630720796E+02  0.17098861534E+03  0.18730162064E+03  0.47000000000E+01 0.  1.
         11    1    6    6    0    0 -0.96613237893E+02 -0.23825792063E+02  0.48519570259E+03  0.49529451432E+03  0.00000000000E+00 0. -1.
        -12    1    6    6    0    0 -0.32197498068E+01  0.17426926669E+01 -0.25830638751E+01  0.44806233419E+01  0.00000000000E+00 0.  1.
</event>
<event>
12    1  0.8684423E-002  0.1836584E+03  0.7818608E-02  0.1164389E+00
         21   -1    0    0  501  502  0.00000000000E+00  0.00000000000E+00  0.26064121102E+03  0.26064121102E+03  0.00000000000E+00 0.  1.
         21   -1    0    0  502  503 -0.00000000000E+00 -0.00000000000E+00 -0.26158842583E+03  0.26158842583E+03  0.00000000000E+00 0.  1.
         -6    2    1    2    0  503  0.41614369926E+02 -0.46138502001E+02 -0.18625073031E+03  0.26133157524E+03  0.17246547633E+03 0.  0.
        -24    2    3    3    0    0  0.94553039015E+02 -0.30395243295E+02 -0.12506702668E+03  0.17877318094E+03  0.80336424238E+02 0.  0.
          6    2    1    2  501    0 -0.41614369926E+02  0.46138502001E+02  0.18530351549E+03  0.26089806161E+03  0.17282907321E+03 0.  0.
         24    2    5    5    0    0  0.21954405964E+02  0.51298165347E+02  0.16774829428E+03  0.19458149365E+03  0.81295570170E+02 0.  0.
          5    1    5    5  501    0 -0.63568775890E+02 -0.51596633467E+01  0.17555221211E+02  0.66316567958E+02  0.47000000000E+01 0. -1.
        -11    1    6    6    0    0 -0.21999177041E+02 -0.63157308412E+01  0.64501955643E+02  0.68442344556E+02  0.00000000000E+00 0.  1.
         12    1    6    6    0    0  0.43953583006E+02  0.57613896189E+02  0.10324633864E+03  0.12613914910E+03  0.00000000000E+00 0. -1.
         -5    1    3    3    0  503 -0.52938669089E+02 -0.15743258706E+02 -0.61183703626E+02  0.82558394297E+02  0.47000000000E+01 0.  1.
         13    1    4    4    0    0  0.19913371065E+01 -0.22150625412E+02 -0.63547469380E+02  0.67326788830E+02  0.00000000000E+00 0. -1.
        -14    1    4    4    0    0  0.92561701908E+02 -0.82446178834E+01 -0.61519557302E+02  0.11144639211E+03  0.00000000000E+00 0.  1.
</event>
<event>
12    1  0.8684423E-002  0.1897249E+03  0.7818608E-02  0.1158820E+00
         21   -1    0    0  501  502  0.00000000000E+00  0.00000000000E+00  0.23250550682E+03  0.23250550682E+03  0.00000000000E+00 0.  1.
         21   -1    0    0  502  503 -0.00000000000E+00 -0.00000000000E+00 -0.25643204542E+03  0.25643204542E+03  0.00000000000E+00 0.  1.
         -6    2    1    2    0  503  0.76289748677E+02  0.23828403025E+02 -0.16614819782E+03  0.25182464955E+03  0.17152991558E+03 0.  0.
        -24    2    3    3    0    0  0.28845999928E+02  0.77244524130E+02 -0.83831571632E+02  0.14272694913E+03  0.80897721763E+02 0.  0.
          6    2    1    2  501    0 -0.76289748677E+02 -0.23828403025E+02  0.14222165922E+03  0.23711290270E+03  0.17206861926E+03 0.  0.
         24    2    5    5    0    0  0.13378464401E+02  0.21920213141E+01  0.20357969674E+02  0.83521562617E+02  0.79859978873E+02 0.  0.
          5    1    5    5  501    0 -0.89668213078E+02 -0.26020424339E+02  0.12186368954E+03  0.15359134008E+03  0.47000000000E+01 0. -1.
        -11    1    6    6    0    0 -0.32725906417E+02  0.77683762534E+01  0.14808314662E+02  0.36750766027E+02  0.00000000000E+00 0.  1.
         12    1    6    6    0    0  0.46104370818E+02 -0.55763549393E+01  0.55496550116E+01  0.46770796590E+02  0.00000000000E+00 0. -1.
         -5    1    3    3    0  503  0.47443748749E+02 -0.53416121105E+02 -0.82316626184E+02  0.10909770041E+03  0.47000000000E+01 0.  1.
         13    1    4    4    0    0 -0.25728757844E+02  0.45099342157E+02 -0.42476407051E+02  0.67083267655E+02  0.00000000000E+00 0. -1.
        -14    1    4    4    0    0  0.54574757772E+02  0.32145181972E+02 -0.41355164580E+02  0.75643681477E+02  0.00000000000E+00 0.  1.
</event>
<event>
12    1  0.8684423E-002  0.2598851E+03  0.7818608E-02  0.1107378E+00
         21   -1    0    0  503  502  0.00000000000E+00  0.00000000000E+00  0.88408717585E+03  0.88408717585E+03  0.00000000000E+00 0.  1.
         21   -1    0    0  501  503 -0.00000000000E+00 -0.00000000000E+00 -0.90104660868E+02  0.90104660868E+02  0.00000000000E+00 0. -1.
          6    2    1    2  501    0 -0.44742461114E+02 -0.18898230489E+03  0.20547874915E+03  0.33130317785E+03  0.17269649653E+03 0.  0.
         24    2    3    3    0    0 -0.24571563855E+02 -0.21241585034E+03  0.18701527398E+03  0.29498533012E+03  0.79481929114E+02 0.  0.
         -6    2    1    2    0  502  0.44742461114E+02  0.18898230489E+03  0.58850376584E+03  0.64288865888E+03  0.17103492601E+03 0.  0.
        -24    2    5    5    0    0  0.44850944893E+02  0.12558261116E+03  0.54296685835E+03  0.56468870442E+03  0.79232090378E+02 0.  0.
          5    1    3    3  501    0 -0.20170897260E+02  0.23433545450E+02  0.18463475165E+02  0.36317847731E+02  0.47000000000E+01 0. -1.
        -11    1    4    4    0    0 -0.45787752271E+02 -0.71824807883E+02  0.81908433309E+02  0.11817069321E+03  0.00000000000E+00 0.  1.
         12    1    4    4    0    0  0.21216188416E+02 -0.14059104246E+03  0.10510684067E+03  0.17681463691E+03  0.00000000000E+00 0. -1.
         -5    1    5    5    0  502 -0.10848377868E+00  0.63399693728E+02  0.45536907486E+02  0.78199954456E+02  0.47000000000E+01 0.  1.
         11    1    6    6    0    0 -0.10091637777E+02  0.41521657026E+02  0.77376929692E+02  0.88391619534E+02  0.00000000000E+00 0. -1.
        -12    1    6    6    0    0  0.54942582670E+02  0.84060954135E+02  0.46558992866E+03  0.47629708489E+03  0.00000000000E+00 0.  1.
</event>
<event>
12    1  0.8684423E-002  0.2168122E+03  0.7818608E-02  0.1136598E+00
         21   -1    0    0  503  502  0.00000000000E+00  0.00000000000E+00  0.36410826055E+02  0.36410826055E+02  0.00000000000E+00 0.  1.
         21   -1    0    0  501  503 -0.00000000000E+00 -0.00000000000E+00 -0.13605426537E+04  0.13605426537E+04  0.00000000000E+00 0.  1.
          6    2    1    2  501    0  0.76040632413E+02  0.10726120893E+03 -0.82836159173E+03  0.85584752345E+03  0.17030828524E+03 0.  0.
         24    2    3    3    0    0 -0.82237260926E+01  0.42513814999E+02 -0.56040085931E+03  0.56754602978E+03  0.78640439103E+02 0.  0.
         -6    2    1    2    0  502 -0.76040632413E+02 -0.10726120893E+03 -0.49577023597E+03  0.54110595636E+03  0.17239601044E+03 0.  0.
        -24    2    5    5    0    0  0.11035808381E+01  0.22452901167E+01 -0.15328664739E+03  0.17332884802E+03  0.80869240564E+02 0.  0.
          5    1    3    3  501    0  0.84264358506E+02  0.64747393933E+02 -0.26796073241E+03  0.28830149367E+03  0.47000000000E+01 0. -1.
        -11    1    4    4    0    0  0.86948421759E+01  0.58659231930E+02 -0.28215873450E+03  0.28832283508E+03  0.00000000000E+00 0.  1.
         12    1    4    4    0    0 -0.16918568268E+02 -0.16145416931E+02 -0.27824212481E+03  0.27922319470E+03  0.00000000000E+00 0. -1.
         -5    1    5    5    0  502 -0.77144213251E+02 -0.10950649905E+03 -0.34248358857E+03  0.36777710833E+03  0.47000000000E+01 0.  1.
         13    1    6    6    0    0  0.21936227354E+02 -0.11125741343E+02 -0.14522733461E+03  0.14729548163E+03  0.00000000000E+00 0. -1.
        -14    1    6    6    0    0 -0.20832646516E+02  0.13371031460E+02 -0.80593127838E+01  0.26033366392E+02  0.00000000000E+00 0.  1.
</event>
<event>
12    1  0.8684423E-002  0.1739685E+03  0.7818608E-02  0.1173872E+00
         21   -1    0    0  503  502  0.00000000000E+00  0.00000000000E+00  0.80133697912E+03  0.80133697912E+03  0.00000000000E+00 0.  1.
         21   -1    0    0  501  503 -0.00000000000E+00 -0.00000000000E+00 -0.47897765166E+02  0.47897765166E+02  0.00000000000E+00 0.  1.
          6    2    1    2  501    0 -0.13194010029E+02  0.37892928290E+01  0.18095778588E+03  0.25101946163E+03  0.17342609148E+03 0.  0.
         24    2    3    3    0    0 -0.66688576350E+01  0.63710366637E+02  0.15317002805E+03  0.18448103525E+03  0.80428293499E+02 0.  0.
         -6    2    1    2    0  502  0.13194010029E+02 -0.37892928290E+01  0.57248142808E+03  0.59821528266E+03  0.17302629359E+03 0.  0.
        -24    2    5    5    0    0  0.34636986570E+02 -0.36713820881E+02  0.17981540092E+03  0.20356033884E+03  0.80966707117E+02 0.  0.
          5    1    3    3  501    0 -0.65251523939E+01 -0.59921073808E+02  0.27787757833E+02  0.66538426382E+02  0.47000000000E+01 0. -1.
        -13    1    4    4    0    0  0.13680781230E+02  0.94145343665E+01 -0.38923736430E+01  0.17057192178E+02  0.00000000000E+00 0.  1.
         14    1    4    4    0    0 -0.20349638866E+02  0.54295832270E+02  0.15706240169E+03  0.16742384307E+03  0.00000000000E+00 0. -1.
         -5    1    5    5    0  502 -0.21442976541E+02  0.32924528052E+02  0.39266602716E+03  0.39465494382E+03  0.47000000000E+01 0.  1.
         13    1    6    6    0    0 -0.65593065122E+01 -0.35500841273E+02  0.14555631931E+03  0.14996658402E+03  0.00000000000E+00 0. -1.
        -14    1    6    6    0    0  0.41196293082E+02 -0.12129796087E+01  0.34259081607E+02  0.53593754821E+02  0.00000000000E+00 0.  1.
</event>
<event>
12    1  0.8684423E-002  0.2493673E+03  0.7818608E-02  0.1114590E+00
         21   -1    0    0  503  502  0.00000000000E+00  0.00000000000E+00  0.47568065114E+03  0.47568065114E+03  0.00000000000E+00 0. -1.
         21   -1    0    0  501  503 -0.00000000000E+00 -0.00000000000E+00 -0.16494914860E+03  0.16494914860E+03  0.00000000000E+00 0. -1.
          6    2    1    2  501    0  0.67999353562E+02 -0.16009510111E+03  0.48123343441E+01  0.24941368589E+03  0.17868876479E+03 0.  0.
         24    2    3    3    0    0  0.30600400519E+02 -0.11055714325E+03 -0.70639038958E+02  0.15159911289E+03  0.69520865703E+02 0.  0.
         -6    2    1    2    0  502 -0.67999353562E+02  0.16009510111E+03  0.30591916819E+03  0.39121611385E+03  0.17090686583E+03 0.  0.
        -24    2    5    5    0    0 -0.89913896360E+02  0.15297570244E+03  0.31164844118E+03  0.36701182513E+03  0.78018296549E+02 0.  0.
          5    1    3    3  501    0  0.37398953044E+02 -0.49537957856E+02  0.75451373302E+02  0.97814572997E+02  0.47000000000E+01 0. -1.
        -11    1    4    4    0    0  0.10442444863E+02 -0.50378204355E+01 -0.37386329250E+02  0.39142839757E+02  0.00000000000E+00 0.  1.
         12    1    4    4    0    0  0.20157955656E+02 -0.10551932282E+03 -0.33252709708E+02  0.11245627313E+03  0.00000000000E+00 0. -1.
         -5    1    5    5    0  502  0.21914542798E+02  0.71193986671E+01 -0.57292729979E+01  0.24204288721E+02  0.47000000000E+01 0.  1.
         13    1    6    6    0    0  0.30490059681E+01  0.33212154363E+02  0.10860609567E+03  0.11361174082E+03  0.00000000000E+00 0. -1.
        -14    1    6    6    0    0 -0.92962902328E+02  0.11976354808E+03  0.20304234551E+03  0.25340008431E+03  0.00000000000E+00 0.  1.
</event>
<event>
12    1  0.8684423E-002  0.1805911E+03  0.7818608E-02  0.1169115E+00
         21   -1    0    0  503  502  0.00000000000E+00  0.00000000000E+00  0.86671482150E+03  0.86671482150E+03  0.00000000000E+00 0. -1.
         21   -1    0    0  501  503 -0.00000000000E+00 -0.00000000000E+00 -0.78087339006E+02  0.78087339006E+02  0.00000000000E+00 0. -1.
          6    2    1    2  501    0 -0.42596883923E+02 -0.36242507932E+02  0.43828658015E+02  0.17842207718E+03  0.16366267889E+03 0.  0.
         24    2    3    3    0    0 -0.35934215027E+02  0.33473250633E+02  0.54633577604E+02  0.10740437209E+03  0.78352696345E+02 0.  0.
         -6    2    1    2    0  502  0.42596883923E+02  0.36242507932E+02  0.74479882448E+03  0.76638008332E+03  0.17171234454E+03 0.  0.
        -24    2    5    5    0    0  0.62820062706E+02  0.40536633130E+02  0.26025802385E+03  0.28137565660E+03  0.76475108649E+02 0.  0.
          5    1    3    3  501    0 -0.66626688966E+01 -0.69715758565E+02 -0.10804919589E+02  0.71017705092E+02  0.47000000000E+01 0. -1.
        -13    1    4    4    0    0 -0.28513282597E+02 -0.12402423384E+02 -0.53231773801E+01  0.31546213841E+02  0.00000000000E+00 0.  1.
         14    1    4    4    0    0 -0.74209324293E+01  0.45875674017E+02  0.59956754984E+02  0.75858158249E+02  0.00000000000E+00 0. -1.
         -5    1    5    5    0  502 -0.20223178782E+02 -0.42941251984E+01  0.48454080063E+03  0.48500442672E+03  0.47000000000E+01 0.  1.
         13    1    6    6    0    0  0.78096527420E+02  0.28592273070E+02  0.23656905854E+03  0.25076184943E+03  0.00000000000E+00 0. -1.
        -14    1    6    6    0    0 -0.15276464715E+02  0.11944360060E+02  0.23688965317E+02  0.30613807167E+02  0.00000000000E+00 0.  1.
</event>
<event>
12    1  0.8684423E-002  0.1952069E+03  0.7818608E-02  0.1155822E+00
         21   -1    0    0  503  502  0.00000000000E+00  0.00000000000E+00  0.68946561270E+02  0.68946561270E+02  0.00000000000E+00 0.  1.
         21   -1    0    0  501  503 -0.00000000000E+00 -0.00000000000E+00 -0.52987482907E+03  0.52987482907E+03  0.00000000000E+00 0.  1.
          6    2    1    2  501    0  0.16114294196E+02  0.91130319358E+02 -0.24335508999E+03  0.30651366038E+03  0.16175450100E+03 0.  0.
         24    2    3    3    0    0  0.35873255635E+02  0.87862003477E+02 -0.92232180372E+02  0.15399703094E+03  0.78750798830E+02 0.  0.
         -6    2    1    2    0  502 -0.16114294196E+02 -0.91130319358E+02 -0.21757317781E+03  0.29230772996E+03  0.17187587296E+03 0.  0.
        -24    2    5    5    0    0  0.55479337847E+02 -0.32142464405E+02 -0.12109470306E+03  0.15838461294E+03  0.79439685055E+02 0.  0.
          5    1    3    3  501    0 -0.19758961439E+02  0.32683158806E+01 -0.15112290962E+03  0.15251662945E+03  0.47000000000E+01 0. -1.
        -11    1    4    4    0    0 -0.31302006579E+01  0.83841911478E+01 -0.58619207604E+02  0.59298434360E+02  0.00000000000E+00 0.  1.
         12    1    4    4    0    0  0.39003456293E+02  0.79477812329E+02 -0.33612972768E+02  0.94698596577E+02  0.00000000000E+00 0. -1.
         -5    1    5    5    0  502 -0.71593632044E+02 -0.58987854952E+02 -0.96478474747E+02  0.13392311701E+03  0.47000000000E+01 0.  1.
         13    1    6    6    0    0 -0.13239834088E+02 -0.75521964581E+01 -0.63801997631E+02  0.65597437295E+02  0.00000000000E+00 0. -1.
        -14    1    6    6    0    0  0.68719171936E+02 -0.24590267947E+02 -0.57292705432E+02  0.92787175649E+02  0.00000000000E+00 0.  1.
</event>
<event>
12    1  0.8684423E-002  0.1728749E+03  0.7818608E-02  0.1174985E+00
         21   -1    0    0  503  502  0.00000000000E+00  0.00000000000E+00  0.45899502355E+03  0.45899502355E+03  0.00000000000E+00 0.  1.
         21   -1    0    0  501  503 -0.00000000000E+00 -0.00000000000E+00 -0.74001683442E+02  0.74001683442E+02  0.00000000000E+00 0.  1.
          6    2    1    2  501    0 -0.11844234833E+02 -0.99079309841E+01  0.28545060555E+03  0.33351111214E+03  0.17178230617E+03 0.  0.
         24    2    3    3    0    0 -0.60735305192E+02 -0.33439239602E+02  0.20170340935E+03  0.23361245290E+03  0.95307674213E+02 0.  0.
         -6    2    1    2    0  502  0.11844234833E+02  0.99079309841E+01  0.99542734555E+02  0.19948559485E+03  0.17218389459E+03 0.  0.
        -24    2    5    5    0    0  0.98533779135E+01  0.86874041705E-01  0.13842909810E+03  0.15905471630E+03  0.77709014746E+02 0.  0.
          5    1    3    3  501    0  0.48891070359E+02  0.23531308617E+02  0.83747196197E+02  0.99898659235E+02  0.47000000000E+01 0. -1.
        -13    1    4    4    0    0  0.25866576738E+02 -0.29071516245E+01  0.45135503812E+02  0.52103215132E+02  0.00000000000E+00 0.  1.
         14    1    4    4    0    0 -0.86601881930E+02 -0.30532087977E+02  0.15656790554E+03  0.18150923777E+03  0.00000000000E+00 0. -1.
         -5    1    5    5    0  502  0.19908569197E+01  0.98210569424E+01 -0.38886363546E+02  0.40430878553E+02  0.47000000000E+01 0.  1.
         13    1    6    6    0    0 -0.18535964866E+02  0.29348821073E+02  0.85245056923E+02  0.92041593976E+02  0.00000000000E+00 0. -1.
        -14    1    6    6    0    0  0.28389342780E+02 -0.29261947032E+02  0.53184041178E+02  0.67013122324E+02  0.00000000000E+00 0.  1.
</event>
<event>
12    1  0.8684423E-002  0.1769456E+03  0.7818608E-02  0.1170921E+00
         21   -1    0    0  503  502  0.00000000000E+00  0.00000000000E+00  0.11651941295E+03  0.11651941295E+03  0.00000000000E+00 0. -1.
         21   -1    0    0  501  503 -0.00000000000E+00 -0.00000000000E+00 -0.34048604787E+03  0.34048604787E+03  0.00000000000E+00 0. -1.
          6    2    1    2  501    0  0.34919758617E+02 -0.48596957478E+01 -0.63637033941E+01  0.17654014831E+03  0.17286677257E+03 0.  0.
         24    2    3    3    0    0  0.63517071219E+01 -0.57813354320E+02 -0.50930167606E+02  0.10151693021E+03  0.65795721938E+02 0.  0.
         -6    2    1    2    0  502 -0.34919758617E+02  0.48596957478E+01 -0.21760293153E+03  0.28046531251E+03  0.17339766298E+03 0.  0.
        -24    2    5    5    0    0  0.30520778119E+02  0.48126448615E+02 -0.12199175097E+03  0.15669914750E+03  0.80155864231E+02 0.  0.
          5    1    3    3  501    0  0.28568051495E+02  0.52953658572E+02  0.44566464212E+02  0.75023218104E+02  0.47000000000E+01 0. -1.
        -11    1    4    4    0    0 -0.18948683447E+02 -0.58624382555E+01 -0.37148344581E+02  0.42111997006E+02  0.00000000000E+00 0.  1.
         12    1    4    4    0    0  0.25300390569E+02 -0.51950916064E+02 -0.13781823025E+02  0.59404933202E+02  0.00000000000E+00 0. -1.
         -5    1    5    5    0  502 -0.65440536736E+02 -0.43266752867E+02 -0.95611180555E+02  0.12376616500E+03  0.47000000000E+01 0.  1.
         11    1    6    6    0    0  0.14769397651E+02  0.30087406255E+02 -0.12774568164E+03  0.13206947528E+03  0.00000000000E+00 0. -1.
        -12    1    6    6    0    0  0.15751380468E+02  0.18039042360E+02  0.57539306700E+01  0.24629672228E+02  0.00000000000E+00 0.  1.
</event>
<event>
12    1  0.8684423E-002  0.1887998E+03  0.7818608E-02  0.1159795E+00
         21   -1    0    0  503  502  0.00000000000E+00  0.00000000000E+00  0.13309660663E+04  0.13309660663E+04  0.00000000000E+00 0.  1.
         21   -1    0    0  501  503 -0.00000000000E+00 -0.00000000000E+00 -0.11505058552E+03  0.11505058552E+03  0.00000000000E+00 0.  1.
          6    2    1    2  501    0  0.13316132789E+02  0.74490176386E+02 -0.26286674452E+02  0.18954876850E+03  0.17178952417E+03 0.  0.
         24    2    3    3    0    0  0.50219113662E+02  0.22400382648E+02 -0.62983856348E+02  0.11576564192E+03  0.80068602892E+02 0.  0.
         -6    2    1    2    0  502 -0.13316132789E+02 -0.74490176386E+02  0.12422021553E+04  0.12564678833E+04  0.17297179415E+03 0.  0.
        -24    2    5    5    0    0  0.54083491765E+02 -0.19986810515E+02  0.56663951439E+03  0.57535093448E+03  0.81387111208E+02 0.  0.
          5    1    3    3  501    0 -0.36902980873E+02  0.52089793738E+02  0.36697181895E+02  0.73783126581E+02  0.47000000000E+01 0. -1.
        -11    1    4    4    0    0  0.25802079926E+02 -0.24657500821E+02 -0.49566937455E+02  0.61078809451E+02  0.00000000000E+00 0.  1.
         12    1    4    4    0    0  0.24417033736E+02  0.47057883468E+02 -0.13416918892E+02  0.54686832469E+02  0.00000000000E+00 0. -1.
         -5    1    5    5    0  502 -0.67399624554E+02 -0.54503365871E+02  0.67556264088E+03  0.68111694886E+03  0.47000000000E+01 0.  1.
         11    1    6    6    0    0  0.38540945279E+02  0.23074623225E+02  0.40076908364E+03  0.40327868912E+03  0.00000000000E+00 0. -1.
        -12    1    6    6    0    0  0.15542546486E+02 -0.43061433740E+02  0.16587043075E+03  0.17207224536E+03  0.00000000000E+00 0.  1.
</event>
<event>
12    1  0.8684423E-002  0.2551028E+03  0.7818608E-02  0.1111113E+00
         21   -1    0    0  503  502  0.00000000000E+00  0.00000000000E+00  0.17058105201E+03  0.17058105201E+03  0.00000000000E+00 0.  1.
         21   -1    0    0  501  503 -0.00000000000E+00 -0.00000000000E+00 -0.42135376007E+03  0.42135376007E+03  0.00000000000E+00 0.  1.
          6    2    1    2  501    0 -0.18130330035E+03  0.46987528661E+02 -0.22800783963E+03  0.34214764195E+03  0.17320138392E+03 0.  0.
         24    2    3    3    0    0 -0.76672011584E+02  0.74681072866E+02 -0.72516307909E+02  0.15263683641E+03  0.81138948176E+02 0.  0.
         -6    2    1    2    0  502  0.18130330035E+03 -0.46987528661E+02 -0.22764868419E+02  0.24978717013E+03  0.16369690456E+03 0.  0.
        -24    2    5    5    0    0  0.15373195679E+03  0.20852617719E+02 -0.80427569199E+01  0.17494537022E+03  0.80454026750E+02 0.  0.
          5    1    3    3  501    0 -0.10463128876E+03 -0.27693544204E+02 -0.15549153172E+03  0.18951080554E+03  0.47000000000E+01 0. -1.
        -13    1    4    4    0    0 -0.10833447813E+02  0.46915304259E+02 -0.64852916622E+02  0.80773201990E+02  0.00000000000E+00 0.  1.
         14    1    4    4    0    0 -0.65838563771E+02  0.27765768606E+02 -0.76633912869E+01  0.71863634418E+02  0.00000000000E+00 0. -1.
         -5    1    5    5    0  502  0.27571343560E+02 -0.67840146380E+02 -0.14722111499E+02  0.74841799909E+02  0.47000000000E+01 0.  1.
         13    1    6    6    0    0  0.54825194944E+02  0.44588568134E+02 -0.17467619945E+02  0.72794643728E+02  0.00000000000E+00 0. -1.
        -14    1    6    6    0    0  0.98906761843E+02 -0.23735950415E+02  0.94248630252E+01  0.10215072649E+03  0.00000000000E+00 0.  1.
</event>
<event>
12    1  0.8684423E-002  0.2261847E+03  0.7818608E-02  0.1129717E+00
         21   -1    0    0  501  502  0.00000000000E+00  0.00000000000E+00  0.16549052583E+04  0.16549052583E+04  0.00000000000E+00 0.  1.
         21   -1    0    0  502  503 -0.00000000000E+00 -0.00000000000E+00 -0.42225640100E+02  0.42225640100E+02  0.00000000000E+00 0. -1.
         -6    2    1    2    0  503  0.10708244165E+03 -0.98098829026E+02  0.35925468717E+03  0.42346155604E+03  0.17077976937E+03 0.  0.
        -24    2    3    3    0    0  0.10239783617E+03 -0.13294300829E+03  0.27320484148E+03  0.33038777724E+03  0.79724761755E+02 0.  0.
          6    2    1    2  501    0 -0.10708244165E+03  0.98098829026E+02  0.12534249310E+04  0.12736693423E+04  0.17340561229E+03 0.  0.
         24    2    5    5    0    0 -0.13653853740E+03  0.62900317177E+02  0.11086098185E+04  0.11216821599E+04  0.80968611685E+02 0.  0.
          5    1    5    5  501    0  0.29456095754E+02  0.35198511850E+02  0.14481511255E+03  0.15198718247E+03  0.47000000000E+01 0. -1.
        -13    1    6    6    0    0 -0.54772256764E+02 -0.15959386993E+02  0.38898777550E+03  0.39314907050E+03  0.00000000000E+00 0.  1.
         14    1    6    6    0    0 -0.81766280638E+02  0.78859704170E+02  0.71962204296E+03  0.72853308937E+03  0.00000000000E+00 0. -1.
         -5    1    3    3    0  503  0.46846054729E+01  0.34844179260E+02  0.86049845693E+02  0.93073778802E+02  0.47000000000E+01 0.  1.
         11    1    4    4    0    0  0.96649666345E+02 -0.77771359414E+02  0.14582186704E+03  0.19145119288E+03  0.00000000000E+00 0. -1.
        -12    1    4    4    0    0  0.57481698298E+01 -0.55171648873E+02  0.12738297444E+03  0.13893658436E+03  0.00000000000E+00 0.  1.
</event>
<event>
12    1  0.8684423E-002  0.2372617E+03  0.7818608E-02  0.1121983E+00
         21   -1    0    0  503  502  0.00000000000E+00  0.00000000000E+00  0.58116774183E+03  0.58116774183E+03  0.00000000000E+00 0.  1.
         21   -1    0    0  501  503 -0.00000000000E+00 -0.00000000000E+00 -0.44137149521E+03  0.44137149521E+03  0.00000000000E+00 0.  1.
          6    2    1    2  501    0  0.15431936024E+03 -0.50193061493E+02 -0.38241947959E+03  0.44895195559E+03  0.17023334483E+03 0.  0.
         24    2    3    3    0    0  0.84644240883E+02 -0.66515668036E+02 -0.34099076521E+03  0.36612998920E+03  0.78660570961E+02 0.  0.
         -6    2    1    2    0  502 -0.15431936024E+03  0.50193061493E+02  0.52221572621E+03  0.57358728145E+03  0.17308753963E+03 0.  0.
        -24    2    5    5    0    0 -0.12419091435E+03  0.15271270714E+02  0.49973117910E+03  0.52206156378E+03  0.84619324575E+02 0.  0.
          5    1    3    3  501    0  0.69675119360E+02  0.16322606543E+02 -0.41428714380E+02  0.82821966394E+02  0.47000000000E+01 0. -1.
        -11    1    4    4    0    0  0.42182678898E+02 -0.78502295178E+02 -0.23431257645E+03  0.25068779833E+03  0.00000000000E+00 0.  1.
         12    1    4    4    0    0  0.42461561985E+02  0.11986627142E+02 -0.10667818876E+03  0.11544219087E+03  0.00000000000E+00 0. -1.
         -5    1    5    5    0  502 -0.30128445894E+02  0.34921790779E+02  0.22484547110E+02  0.51525717675E+02  0.47000000000E+01 0.  1.
         11    1    6    6    0    0 -0.94352407334E+01 -0.93062572351E+01  0.59524533500E+01  0.14527969311E+02  0.00000000000E+00 0. -1.
        -12    1    6    6    0    0 -0.11475567362E+03  0.24577527949E+02  0.49377872575E+03  0.50753359447E+03  0.00000000000E+00 0.  1.
</event>
<event>
12    1  0.8684423E-002  0.2090171E+03  0.7818608E-02  0.1142384E+00
         21   -1    0    0  501  502  0.00000000000E+00  0.00000000000E+00  0.76269560987E+03  0.76269560987E+03  0.00000000000E+00 0. -1.
         21   -1    0    0  502  503 -0.00000000000E+00 -0.00000000000E+00 -0.62850378591E+02  0.62850378591E+02  0.00000000000E+00 0. -1.
         -6    2    1    2    0  503  0.11420605431E+03 -0.29805267106E+02  0.22635036449E+03  0.30796939749E+03  0.17227677005E+03 0.  0.
        -24    2    3    3    0    0  0.89843606516E+02 -0.23023662180E+02  0.24535063602E+03  0.27599097748E+03  0.85861064536E+02 0.  0.
          6    2    1    2  501    0 -0.11420605431E+03  0.29805267106E+02  0.47349486679E+03  0.51757659097E+03  0.17250148362E+03 0.  0.
         24    2    5    5    0    0 -0.47696861982E+02 -0.42193376149E+01  0.97416607941E+02  0.13412112658E+03  0.78776187005E+02 0.  0.
          5    1    5    5  501    0 -0.66509192330E+02  0.34024604721E+02  0.37607825885E+03  0.38345546439E+03  0.47000000000E+01 0. -1.
        -11    1    6    6    0    0 -0.62225520967E+02 -0.24737875652E+02  0.73324280242E+02  0.99299687937E+02  0.00000000000E+00 0.  1.
         12    1    6    6    0    0  0.14528658985E+02  0.20518538037E+02  0.24092327699E+02  0.34821438641E+02  0.00000000000E+00 0. -1.
         -5    1    3    3    0  503  0.24362447796E+02 -0.67816049264E+01 -0.19000271534E+02  0.31978420011E+02  0.47000000000E+01 0.  1.
         11    1    4    4    0    0  0.34408195743E+02 -0.44598855743E+02  0.64631861280E+02  0.85733653604E+02  0.00000000000E+00 0. -1.
        -12    1    4    4    0    0  0.55435410774E+02  0.21575193563E+02  0.18071877474E+03  0.19025732388E+03  0.00000000000E+00 0.  1.
</event>
<event>
12    1  0.8684423E-002  0.2096870E+03  0.7818608E-02  0.1142207E+00
         21   -1    0    0  503  502  0.00000000000E+00  0.00000000000E+00  0.45308175141E+02  0.45308175141E+02  0.00000000000E+00 0. -1.
         21   -1    0    0  501  503 -0.00000000000E+00 -0.00000000000E+00 -0.97633551625E+03  0.97633551625E+03  0.00000000000E+00 0. -1.
          6    2    1    2  501    0  0.10094871029E+03 -0.50686196932E+02 -0.53097062980E+03  0.57087515564E+03  0.17666041135E+03 0.  0.
         24    2    3    3    0    0  0.13615685617E+03 -0.28570699892E+02 -0.35202122118E+03  0.38709896134E+03  0.81065969006E+02 0.  0.
         -6    2    1    2    0  502 -0.10094871029E+03  0.50686196932E+02 -0.40005671131E+03  0.45076853576E+03  0.17431915528E+03 0.  0.
        -24    2    5    5    0    0 -0.13012566713E+03  0.21462535474E+02 -0.23275594246E+03  0.27838247351E+03  0.76994435741E+02 0.  0.
          5    1    3    3  501    0 -0.35208145875E+02 -0.22115497040E+02 -0.17894940862E+03  0.18377619430E+03  0.47000000000E+01 0. -1.
        -11    1    4    4    0    0  0.28337403255E+02  0.25436873827E+02 -0.11541692841E+03  0.12153645682E+03  0.00000000000E+00 0.  1.
         12    1    4    4    0    0  0.10781945291E+03 -0.54007573719E+02 -0.23660429277E+03  0.26556250451E+03  0.00000000000E+00 0. -1.
         -5    1    5    5    0  502  0.29176956832E+02  0.29223661458E+02 -0.16730076885E+03  0.17238606225E+03  0.47000000000E+01 0.  1.
         13    1    6    6    0    0 -0.40260748628E+02  0.39595844585E+02 -0.12323103611E+03  0.13555311523E+03  0.00000000000E+00 0. -1.
        -14    1    6    6    0    0 -0.89864918498E+02 -0.18133309111E+02 -0.10952490635E+03  0.14282935828E+03  0.00000000000E+00 0.  1.
</event>
<event>
12    1  0.8684423E-002  0.1882402E+03  0.7818608E-02  0.1162088E+00
         21   -1    0    0  503  502  0.00000000000E+00  0.00000000000E+00  0.26365040590E+04  0.26365040590E+04  0.00000000000E+00 0.  1.
         21   -1    0    0  501  503 -0.00000000000E+00 -0.00000000000E+00 -0.25750888709E+02  0.25750888709E+02  0.00000000000E+00 0.  1.
          6    2    1    2  501    0  0.37133031710E+02 -0.62982709514E+02  0.37785267985E+03  0.42214572737E+03  0.17346089971E+03 0.  0.
         24    2    3    3    0    0 -0.89457982040E+01  0.34244727441E+01  0.26350926961E+03  0.28203977501E+03  0.10008768755E+03 0.  0.
         -6    2    1    2    0  502 -0.37133031710E+02  0.62982709514E+02  0.22329004904E+04  0.22401092203E+04  0.16400925304E+03 0.  0.
        -24    2    5    5    0    0  0.30032764821E+01 -0.21436098733E+02  0.12615688389E+04  0.12642789453E+04  0.79854807051E+02 0.  0.
          5    1    3    3  501    0  0.46078829914E+02 -0.66407182258E+02  0.11434341023E+03  0.14010595236E+03  0.47000000000E+01 0. -1.
        -13    1    4    4    0    0  0.27119769956E+00 -0.46499431429E+02  0.90666429020E+02  0.10189539746E+03  0.00000000000E+00 0.  1.
         14    1    4    4    0    0 -0.92169959035E+01  0.49923904173E+02  0.17284284059E+03  0.18014437756E+03  0.00000000000E+00 0. -1.
         -5    1    5    5    0  502 -0.40136308192E+02  0.84418808247E+02  0.97133165149E+03  0.97583027500E+03  0.47000000000E+01 0.  1.
         11    1    6    6    0    0 -0.10629309596E+02 -0.27005531877E+02  0.15994684428E+03  0.16255852475E+03  0.00000000000E+00 0. -1.
        -12    1    6    6    0    0  0.13632586078E+02  0.55694331443E+01  0.11016219946E+04  0.11017204205E+04  0.00000000000E+00 0.  1.
</event>
<event>
12    1  0.8684423E-002  0.1855275E+03  0.7818608E-02  0.1162647E+00
         21   -1    0    0  503  502  0.00000000000E+00  0.00000000000E+00  0.15896980334E+03  0.15896980334E+03  0.00000000000E+00 0.  1.
         21   -1    0    0  501  503 -0.00000000000E+00 -0.00000000000E+00 -0.46945012407E+03  0.46945012407E+03  0.00000000000E+00 0.  1.
          6    2    1    2  501    0  0.40418548706E+02 -0.48075158436E+02 -0.38600310607E+03  0.42810979397E+03  0.17416864775E+03 0.  0.
         24    2    3    3    0    0 -0.45520205479E+02 -0.18739845667E+02 -0.20265967901E+03  0.22345659391E+03  0.80241092627E+02 0.  0.
         -6    2    1    2    0  502 -0.40418548706E+02  0.48075158436E+02  0.75522785341E+02  0.20031013344E+03  0.17457255946E+03 0.  0.
        -24    2    5    5    0    0 -0.60181124618E+02 -0.13947129880E+02  0.87806777523E+02  0.13389996766E+03  0.80018004032E+02 0.  0.
          5    1    3    3  501    0  0.85938754185E+02 -0.29335312768E+02 -0.18334342706E+03  0.20465320005E+03  0.47000000000E+01 0. -1.
        -11    1    4    4    0    0 -0.27987973927E+02  0.30493888087E+02 -0.78441785727E+02  0.88692263716E+02  0.00000000000E+00 0.  1.
         12    1    4    4    0    0 -0.17532231553E+02 -0.49233733754E+02 -0.12421789328E+03  0.13476433020E+03  0.00000000000E+00 0. -1.
         -5    1    5    5    0  502  0.19762575912E+02  0.62022288316E+02 -0.12283992182E+02  0.66410165777E+02  0.47000000000E+01 0.  1.
         11    1    6    6    0    0 -0.26061381839E+02  0.31735607241E+02  0.21177265223E+02  0.46204122680E+02  0.00000000000E+00 0. -1.
        -12    1    6    6    0    0 -0.34119742779E+02 -0.45682737121E+02  0.66629512300E+02  0.87695844984E+02  0.00000000000E+00 0.  1.
</event>
<event>
12    1  0.8684423E-002  0.2052812E+03  0.7818608E-02  0.1145562E+00
         21   -1    0    0  501  502  0.00000000000E+00  0.00000000000E+00  0.29015381332E+02  0.29015381332E+02  0.00000000000E+00 0.  1.
         21   -1    0    0  502  503 -0.00000000000E+00 -0.00000000000E+00 -0.17137466767E+04  0.17137466767E+04  0.00000000000E+00 0. -1.
         -6    2    1    2    0  503  0.46931266149E+02 -0.10320972123E+03 -0.11889671832E+04  0.12065584720E+04  0.17113034014E+03 0.  0.
        -24    2    3    3    0    0 -0.35386436604E+02 -0.21629208520E+02 -0.53669325838E+03  0.54405190807E+03  0.78948100226E+02 0.  0.
          6    2    1    2  501    0 -0.46931266149E+02  0.10320972123E+03 -0.49576411219E+03  0.53620358606E+03  0.16993363548E+03 0.  0.
         24    2    5    5    0    0  0.35792647236E+02  0.63854174536E+02 -0.21874821601E+03  0.24439542710E+03  0.80745734105E+02 0.  0.
          5    1    5    5  501    0 -0.82723913385E+02  0.39355546690E+02 -0.27701589618E+03  0.29180815896E+03  0.47000000000E+01 0. -1.
        -13    1    6    6    0    0 -0.57563627572E+01  0.60027647156E+02 -0.84488354594E+02  0.10380142676E+03  0.00000000000E+00 0.  1.
         14    1    6    6    0    0  0.41549009993E+02  0.38265273801E+01 -0.13425986142E+03  0.14059400034E+03  0.00000000000E+00 0. -1.
         -5    1    3    3    0  503  0.82317702753E+02 -0.81580512706E+02 -0.65227392481E+03  0.66250656391E+03  0.47000000000E+01 0.  1.
         11    1    4    4    0    0  0.15364759258E+02  0.72582610805E+01 -0.29172083771E+03  0.29221534069E+03  0.00000000000E+00 0. -1.
        -12    1    4    4    0    0 -0.50751195861E+02 -0.28887469601E+02 -0.24497242068E+03  0.25183656739E+03  0.00000000000E+00 0.  1.
</event>
<event>
12    1  0.8684423E-002  0.1980250E+03  0.7818608E-02  0.1152343E+00
         21   -1    0    0  501  502  0.00000000000E+00  0.00000000000E+00  0.11578328469E+03  0.11578328469E+03  0.00000000000E+00 0. -1.
         21   -1    0    0  502  503 -0.00000000000E+00 -0.00000000000E+00 -0.34526451342E+03  0.34526451342E+03  0.00000000000E+00 0.  1.
         -6    2    1    2    0  503  0.94400825949E+02 -0.29302866464E+02 -0.15974692893E+03  0.25110311077E+03  0.16662387888E+03 0.  0.
        -24    2    3    3    0    0  0.21784863951E+02  0.28639718588E+02 -0.12302736381E+03  0.15109892305E+03  0.80002115738E+02 0.  0.
          6    2    1    2  501    0 -0.94400825949E+02  0.29302866464E+02 -0.69734299804E+02  0.20994468734E+03  0.17159174004E+03 0.  0.
         24    2    5    5    0    0  0.62061895621E+01  0.39640724390E+02 -0.22049575586E+02  0.98031480792E+02  0.86683814081E+02 0.  0.
          5    1    5    5  501    0 -0.10060701551E+03 -0.10337857926E+02 -0.47684724218E+02  0.11191320655E+03  0.47000000000E+01 0. -1.
        -13    1    6    6    0    0 -0.95235947395E+01  0.66463621772E+01 -0.50433246035E+02  0.51753118675E+02  0.00000000000E+00 0.  1.
         14    1    6    6    0    0  0.15729784302E+02  0.32994362213E+02  0.28383670450E+02  0.46278362116E+02  0.00000000000E+00 0. -1.
         -5    1    3    3    0  503  0.72615961997E+02 -0.57942585051E+02 -0.36719565118E+02  0.10000418772E+03  0.47000000000E+01 0.  1.
         11    1    4    4    0    0  0.25643086974E+02 -0.51117397325E+01 -0.29557431436E+01  0.26314144679E+02  0.00000000000E+00 0. -1.
        -12    1    4    4    0    0 -0.38582230228E+01  0.33751458320E+02 -0.12007162066E+03  0.12478477837E+03  0.00000000000E+00 0.  1.
</event>
<event>
12    1  0.8684423E-002  0.1992415E+03  0.7818608E-02  0.1150879E+00
         21   -1    0    0  501  502  0.00000000000E+00  0.00000000000E+00  0.33121610058E+03  0.33121610058E+03  0.00000000000E+00 0. -1.
         21   -1    0    0  502  503 -0.00000000000E+00 -0.00000000000E+00 -0.17599812078E+03  0.17599812078E+03  0.00000000000E+00 0. -1.
         -6    2    1    2    0  503  0.98338713408E+02  0.17129991137E+02 -0.67097017934E+02  0.21023598645E+03  0.17243323645E+03 0.  0.
        -24    2    3    3    0    0  0.22628114687E+02  0.64861460743E+02 -0.16385917566E+02  0.10725980644E+03  0.80728725484E+02 0.  0.
          6    2    1    2  501    0 -0.98338713408E+02 -0.17129991137E+02  0.22231499774E+03  0.29697823491E+03  0.16972971053E+03 0.  0.
         24    2    5    5    0    0 -0.10965770569E+03 -0.28656430777E+02  0.93022591585E+02  0.16659574112E+03  0.79088146851E+02 0.  0.
          5    1    5    5  501    0  0.11318992280E+02  0.11526439640E+02  0.12929240616E+03  0.13038249379E+03  0.47000000000E+01 0. -1.
        -13    1    6    6    0    0 -0.12589626365E+02  0.18655726687E+02 -0.22131006412E+01  0.22614876623E+02  0.00000000000E+00 0.  1.
         14    1    6    6    0    0 -0.97068079323E+02 -0.47312157464E+02  0.95235692226E+02  0.14398086450E+03  0.00000000000E+00 0. -1.
         -5    1    3    3    0  503  0.75710598721E+02 -0.47731469606E+02 -0.50711100368E+02  0.10297618001E+03  0.47000000000E+01 0.  1.
         11    1    4    4    0    0  0.12698434374E+02  0.44540880368E+02 -0.49094183969E+02  0.67493549019E+02  0.00000000000E+00 0. -1.
        -12    1    4    4    0    0  0.99296803127E+01  0.20320580375E+02  0.32708266403E+02  0.39766257417E+02  0.00000000000E+00 0.  1.
</event>
<event>
12    1  0.8684423E-002  0.2608697E+03  0.7818608E-02  0.1106740E+00
         21   -1    0    0  501  502  0.00000000000E+00  0.00000000000E+00  0.10940725002E+04  0.10940725002E+04  0.00000000000E+00 0.  1.
         21   -1    0    0  502  503 -0.00000000000E+00 -0.00000000000E+00 -0.62167145797E+02  0.62167145797E+02  0.00000000000E+00 0.  1.
         -6    2    1    2    0  503  0.12177761238E+02 -0.19506509555E+03  0.54543182881E+03  0.60460637757E+03  0.17278397652E+03 0.  0.
        -24    2    3    3    0    0  0.78018219521E+01 -0.24486398067E+02  0.12327244897E+03  0.14924182814E+03  0.80103523502E+02 0.  0.
          6    2    1    2  501    0 -0.12177761238E+02  0.19506509555E+03  0.48647352563E+03  0.55163326847E+03  0.17159278064E+03 0.  0.
         24    2    5    5    0    0  0.25005443329E+02  0.20099521611E+03  0.44403227817E+03  0.49470255165E+03  0.80880167264E+02 0.  0.
          5    1    5    5  501    0 -0.37183204567E+02 -0.59301205514E+01  0.42441247460E+02  0.56930716820E+02  0.47000000000E+01 0. -1.
        -11    1    6    6    0    0  0.27987648468E+02  0.14646062791E+03  0.39145111806E+03  0.41888900896E+03  0.00000000000E+00 0.  1.
         12    1    6    6    0    0 -0.29822051384E+01  0.54534588192E+02  0.52581160113E+02  0.75813542692E+02  0.00000000000E+00 0. -1.
         -5    1    3    3    0  503  0.43759392860E+01 -0.17057869749E+03  0.42215937984E+03  0.45536454942E+03  0.47000000000E+01 0.  1.
         13    1    4    4    0    0 -0.29075668156E+02 -0.20094803242E+02  0.98371925276E+02  0.10452861464E+03  0.00000000000E+00 0. -1.
        -14    1    4    4    0    0  0.36877490108E+02 -0.43915948247E+01  0.24900523692E+02  0.44713213505E+02  0.00000000000E+00 0.  1.
</event>
<event>
12    1  0.8684423E-002  0.2384457E+03  0.7818608E-02  0.1121018E+00
         21   -1    0    0  501  502  0.00000000000E+00  0.00000000000E+00  0.52602599022E+03  0.52602599022E+03  0.00000000000E+00 0.  1.
         21   -1    0    0  502  503 -0.00000000000E+00 -0.00000000000E+00 -0.14954902951E+03  0.14954902951E+03  0.00000000000E+00 0.  1.
         -6    2    1    2    0  503 -0.15158241593E+03 -0.62915673035E+02  0.36747478651E+03  0.43805718052E+03  0.17297619477E+03 0.  0.
        -24    2    3    3    0    0 -0.33335849469E+02  0.24449090060E+02  0.11608373566E+03  0.14679372117E+03  0.79774219046E+02 0.  0.
          6    2    1    2  501    0  0.15158241593E+03  0.62915673035E+02  0.90021742009E+01  0.23751783922E+03  0.17145866579E+03 0.  0.
         24    2    5    5    0    0  0.13235866867E+03  0.46241832183E+02  0.66234903117E+02  0.17470665640E+03  0.80487447371E+02 0.  0.
          5    1    5    5  501    0  0.19223747259E+02  0.16673840853E+02 -0.57232728916E+02  0.62811182815E+02  0.47000000000E+01 0. -1.
        -13    1    6    6    0    0  0.56135382832E+02  0.53818109303E+02  0.59297039728E+02  0.97794217698E+02  0.00000000000E+00 0.  1.
         14    1    6    6    0    0  0.76223285837E+02 -0.75762771203E+01  0.69378633897E+01  0.76912438703E+02  0.00000000000E+00 0. -1.
         -5    1    3    3    0  503 -0.11824656646E+03 -0.87364763095E+02  0.25139105085E+03  0.29126345936E+03  0.47000000000E+01 0.  1.
         13    1    4    4    0    0  0.20053985354E+01  0.10421908337E+02  0.10722917594E+03  0.10775311583E+03  0.00000000000E+00 0. -1.
        -14    1    4    4    0    0 -0.35341248004E+02  0.14027181723E+02  0.88545597176E+01  0.39040605341E+02  0.00000000000E+00 0.  1.
</event>
<event>
12    1  0.8684423E-002  0.2301409E+03  0.7818608E-02  0.1126593E+00
         21   -1    0    0  501  502  0.00000000000E+00  0.00000000000E+00  0.13905509234E+04  0.13905509234E+04  0.00000000000E+00 0.  1.
         21   -1    0    0  502  503 -0.00000000000E+00 -0.00000000000E+00 -0.61236475327E+02  0.61236475327E+02  0.00000000000E+00 0. -1.
         -6    2    1    2    0  503 -0.75809985621E+02  0.13287929591E+03  0.21762232771E+03  0.31652346387E+03  0.17153298361E+03 0.  0.
        -24    2    3    3    0    0 -0.49040989859E+02  0.77560125116E+02  0.44338049138E+02  0.13260413104E+03  0.84837499214E+02 0.  0.
          6    2    1    2  501    0  0.75809985621E+02 -0.13287929591E+03  0.11116921204E+04  0.11352639349E+04  0.17193245793E+03 0.  0.
         24    2    5    5    0    0  0.47197857290E+02 -0.12350235970E+03  0.10809554017E+04  0.10919809510E+04  0.80481962146E+02 0.  0.
          5    1    5    5  501    0  0.28612128332E+02 -0.93769362134E+01  0.30736718704E+02  0.43282983921E+02  0.47000000000E+01 0. -1.
        -13    1    6    6    0    0  0.11998070538E+02 -0.19388053083E+02  0.51202594824E+03  0.51253333743E+03  0.00000000000E+00 0.  1.
         14    1    6    6    0    0  0.35199786751E+02 -0.10411430662E+03  0.56892945344E+03  0.57944761353E+03  0.00000000000E+00 0. -1.
         -5    1    3    3    0  503 -0.26768995762E+02  0.55319170797E+02  0.17328427857E+03  0.18391933284E+03  0.47000000000E+01 0.  1.
         11    1    4    4    0    0  0.13237738656E+02  0.40822719962E+02 -0.75918060775E+01  0.43581735961E+02  0.00000000000E+00 0. -1.
        -12    1    4    4    0    0 -0.62278728514E+02  0.36737405154E+02  0.51929855216E+02  0.89022395079E+02  0.00000000000E+00 0.  1.
</event>
<event>
12    1  0.8684423E-002  0.1776823E+03  0.7818608E-02  0.1170338E+00
         21   -1    0    0  501  502  0.00000000000E+00  0.00000000000E+00  0.60490148198E+02  0.60490148198E+02  0.00000000000E+00 0.  1.
         21   -1    0    0  502  503 -0.00000000000E+00 -0.00000000000E+00 -0.65589276153E+03  0.65589276153E+03  0.00000000000E+00 0.  1.
         -6    2    1    2    0  503  0.14850925148E+02 -0.41323814469E+02 -0.46226396313E+03  0.49523627922E+03  0.17217082513E+03 0.  0.
        -24    2    3    3    0    0  0.15842795272E+02  0.27584031550E+02 -0.37196768700E+03  0.38154906564E+03  0.78789950853E+02 0.  0.
          6    2    1    2  501    0 -0.14850925148E+02  0.41323814469E+02 -0.13313865019E+03  0.22114663050E+03  0.17103135498E+03 0.  0.
         24    2    5    5    0    0  0.30413301716E+02  0.80262429316E+02 -0.80310496150E+02  0.14128443782E+03  0.78386797986E+02 0.  0.
          5    1    5    5  501    0 -0.45264226864E+02 -0.38938614847E+02 -0.52828154045E+02  0.79862192680E+02  0.47000000000E+01 0. -1.
        -11    1    6    6    0    0 -0.11457154269E+02  0.72677683723E+02 -0.47874935384E+02  0.87779960887E+02  0.00000000000E+00 0.  1.
         12    1    6    6    0    0  0.41870455986E+02  0.75847455931E+01 -0.32435560766E+02  0.53504476938E+02  0.00000000000E+00 0. -1.
         -5    1    3    3    0  503 -0.99187012463E+00 -0.68907846019E+02 -0.90296276130E+02  0.11368721358E+03  0.47000000000E+01 0.  1.
         13    1    4    4    0    0 -0.16684655739E+02  0.41261928426E+02 -0.13976390951E+03  0.14667949712E+03  0.00000000000E+00 0. -1.
        -14    1    4    4    0    0  0.32527451012E+02 -0.13677896875E+02 -0.23220377749E+03  0.23486956851E+03  0.00000000000E+00 0.  1.
</event>
<event>
12    1  0.8684423E-002  0.2651544E+03  0.7818608E-02  0.1104607E+00
         21   -1    0    0  503  502  0.00000000000E+00  0.00000000000E+00  0.20519569359E+04  0.20519569359E+04  0.00000000000E+00 0. -1.
         21   -1    0    0  501  503 -0.00000000000E+00 -0.00000000000E+00 -0.12164573689E+03  0.12164573689E+03  0.00000000000E+00 0.  1.
          6    2    1    2  501    0  0.18149075250E+03  0.87045722866E+02  0.39847241175E+02  0.26463414623E+03  0.16711546190E+03 0.  0.
         24    2    3    3    0    0  0.15653938500E+03  0.11261957420E+03  0.65811796266E+02  0.22021747443E+03  0.83527216933E+02 0.  0.
         -6    2    1    2    0  502 -0.18149075250E+03 -0.87045722866E+02  0.18904639578E+04  0.19089685266E+04  0.17260071956E+03 0.  0.
        -24    2    5    5    0    0 -0.13921807025E+03 -0.61494408268E+02  0.87646273796E+03  0.89375405993E+03  0.86291107731E+02 0.  0.
          5    1    3    3  501    0  0.24951367502E+02 -0.25573851332E+02 -0.25964555091E+02  0.44416671794E+02  0.47000000000E+01 0. -1.
        -11    1    4    4    0    0 -0.75151985980E+01  0.78997972488E+01 -0.63787979675E+01  0.12632263061E+02  0.00000000000E+00 0.  1.
         12    1    4    4    0    0  0.16405458360E+03  0.10471977695E+03  0.72190594233E+02  0.20758521137E+03  0.00000000000E+00 0. -1.
         -5    1    5    5    0  502 -0.42272682256E+02 -0.25551314598E+02  0.10140012199E+04  0.10152144666E+04  0.47000000000E+01 0.  1.
         13    1    6    6    0    0 -0.10365044510E+03 -0.21654497219E+02  0.73420948418E+03  0.74180583624E+03  0.00000000000E+00 0. -1.
        -14    1    6    6    0    0 -0.35567625145E+02 -0.39839911049E+02  0.14225325378E+03  0.15194822368E+03  0.00000000000E+00 0.  1.
</event>
<event>
12    1  0.8684423E-002  0.2460832E+03  0.7818608E-02  0.1116356E+00
         21   -1    0    0  501  502  0.00000000000E+00  0.00000000000E+00  0.75344474703E+03  0.75344474703E+03  0.00000000000E+00 0.  1.
         21   -1    0    0  502  503 -0.00000000000E+00 -0.00000000000E+00 -0.14788577086E+03  0.14788577086E+03  0.00000000000E+00 0. -1.
         -6    2    1    2    0  503 -0.16109617015E+03  0.71900228223E+02 -0.30653983292E+01  0.24610231018E+03  0.17156727996E+03 0.  0.
        -24    2    3    3    0    0 -0.14882288936E+03  0.11573835511E+02 -0.41757880024E+02  0.17323870322E+03  0.77367445894E+02 0.  0.
          6    2    1    2  501    0  0.16109617015E+03 -0.71900228223E+02  0.60862437450E+03  0.65522820771E+03  0.16666960155E+03 0.  0.
         24    2    5    5    0    0  0.51760868982E+02 -0.77246697459E+02  0.22540997350E+03  0.25665806338E+03  0.80109085112E+02 0.  0.
          5    1    5    5  501    0  0.10933530117E+03  0.53464692363E+01  0.38321440100E+03  0.39857014433E+03  0.47000000000E+01 0. -1.
        -11    1    6    6    0    0  0.40925731369E+02 -0.57238572695E+02  0.22292831687E+03  0.23376955352E+03  0.00000000000E+00 0.  1.
         12    1    6    6    0    0  0.10835137613E+02 -0.20008124764E+02  0.24816566291E+01  0.22888509853E+02  0.00000000000E+00 0. -1.
         -5    1    3    3    0  503 -0.12273280790E+02  0.60326392712E+02  0.38692481695E+02  0.72863606956E+02  0.47000000000E+01 0.  1.
         11    1    4    4    0    0 -0.86621361863E+02  0.25371202313E+02  0.10455086357E+02  0.90864003150E+02  0.00000000000E+00 0. -1.
        -12    1    4    4    0    0 -0.62201527496E+02 -0.13797366802E+02 -0.52212966381E+02  0.82374700071E+02  0.00000000000E+00 0.  1.
</event>
<event>
12    1  0.8684423E-002  0.1754359E+03  0.7818608E-02  0.1172436E+00
         21   -1    0    0  501  502  0.00000000000E+00  0.00000000000E+00  0.48440606746E+03  0.48440606746E+03  0.00000000000E+00 0.  1.
         21   -1    0    0  502  503 -0.00000000000E+00 -0.00000000000E+00 -0.68471269537E+02  0.68471269537E+02  0.00000000000E+00 0.  1.
         -6    2    1    2    0  503 -0.14784411822E+02 -0.25636401133E+02  0.28338687414E+03  0.33299845466E+03  0.17234861901E+03 0.  0.
        -24    2    3    3    0    0 -0.30441820835E+02 -0.76137739450E+02  0.23392670443E+03  0.26044545323E+03  0.79915400510E+02 0.  0.
          6    2    1    2  501    0  0.14784411822E+02  0.25636401133E+02  0.13254792378E+03  0.21987888233E+03  0.17292185201E+03 0.  0.
         24    2    5    5    0    0  0.30474747246E+02 -0.11057672213E+02  0.13811259690E+03  0.17931168830E+03  0.10966590083E+03 0.  0.
          5    1    5    5  501    0 -0.15690335423E+02  0.36694073347E+02 -0.55646731227E+01  0.40567194030E+02  0.47000000000E+01 0. -1.
        -13    1    6    6    0    0 -0.31196432140E+02 -0.16156243717E+02  0.10150509878E+03  0.10741287943E+03  0.00000000000E+00 0.  1.
         14    1    6    6    0    0  0.61671179386E+02  0.50985715036E+01  0.36607498120E+02  0.71898808869E+02  0.00000000000E+00 0. -1.
         -5    1    3    3    0  503  0.15657409012E+02  0.50501338317E+02  0.49460169705E+02  0.72553001426E+02  0.47000000000E+01 0.  1.
         11    1    4    4    0    0  0.26392207697E+02 -0.34943551113E+02  0.78097910360E+02  0.89537053749E+02  0.00000000000E+00 0. -1.
        -12    1    4    4    0    0 -0.56834028532E+02 -0.41194188338E+02  0.15582879407E+03  0.17090839949E+03  0.00000000000E+00 0.  1.
</event>
<event>
12    1  0.8684423E-002  0.1801776E+03  0.7818608E-02  0.1167795E+00
         21   -1    0    0  501  502  0.00000000000E+00  0.00000000000E+00  0.44717190172E+02  0.44717190172E+02  0.00000000000E+00 0.  1.
         21   -1    0    0  502  503 -0.00000000000E+00 -0.00000000000E+00 -0.85456795802E+03  0.85456795802E+03  0.00000000000E+00 0.  1.
         -6    2    1    2    0  503 -0.23208049698E+02 -0.45017914893E+02 -0.58181583707E+03  0.60907604847E+03  0.17291251638E+03 0.  0.
        -24    2    3    3    0    0 -0.18994927670E+02  0.10797017307E+02 -0.13353350201E+03  0.15728826756E+03  0.80193641225E+02 0.  0.
          6    2    1    2  501    0  0.23208049698E+02  0.45017914893E+02 -0.22803493078E+03  0.29020909973E+03  0.17220965616E+03 0.  0.
         24    2    5    5    0    0  0.19094774774E+01  0.62224920003E+02 -0.51818703989E+02  0.11181639027E+03  0.77085279239E+02 0.  0.
          5    1    5    5  501    0  0.21298572221E+02 -0.17207005109E+02 -0.17621622679E+03  0.17839270946E+03  0.47000000000E+01 0. -1.
        -11    1    6    6    0    0 -0.64242838539E+01  0.78412886011E+02 -0.32085111740E+02  0.84966502287E+02  0.00000000000E+00 0.  1.
         12    1    6    6    0    0  0.83337613313E+01 -0.16187966008E+02 -0.19733592249E+02  0.26849887978E+02  0.00000000000E+00 0. -1.
         -5    1    3    3    0  503 -0.42131220287E+01 -0.55814932200E+02 -0.44828233505E+03  0.45178778091E+03  0.47000000000E+01 0.  1.
         13    1    4    4    0    0  0.42169765465E+01  0.41890209327E+02 -0.51334270564E+02  0.66391112832E+02  0.00000000000E+00 0. -1.
        -14    1    4    4    0    0 -0.23211904216E+02 -0.31093192020E+02 -0.82199231449E+02  0.90897154730E+02  0.00000000000E+00 0.  1.
</event>
<event>
12    1  0.8684423E-002  0.2094720E+03  0.7818608E-02  0.1142151E+00
         21   -1    0    0  503  502  0.00000000000E+00  0.00000000000E+00  0.35583410490E+03  0.35583410490E+03  0.00000000000E+00 0. -1.
         21   -1    0    0  501  503 -0.00000000000E+00 -0.00000000000E+00 -0.12490319239E+03  0.12490319239E+03  0.00000000000E+00 0. -1.
          6    2    1    2  501    0 -0.98560691511E+02  0.64585402458E+02  0.84208278965E+02  0.22499120417E+03  0.17217585076E+03 0.  0.
         24    2    3    3    0    0 -0.11744936584E+03  0.90254703756E+02  0.51189119540E+02  0.17886041254E+03  0.86200093548E+02 0.  0.
         -6    2    1    2    0  502  0.98560691511E+02 -0.64585402458E+02  0.14672263355E+03  0.25574609312E+03  0.17318501329E+03 0.  0.
        -24    2    5    5    0    0  0.53785343450E+01 -0.81284578237E+02  0.75521227650E+02  0.13719860438E+03  0.80522605064E+02 0.  0.
          5    1    3    3  501    0  0.18888674331E+02 -0.25669301298E+02  0.33019159425E+02  0.46130791628E+02  0.47000000000E+01 0. -1.
        -13    1    4    4    0    0 -0.94251731886E+02  0.71194677122E+02  0.75535649048E+02  0.14020593886E+03  0.00000000000E+00 0.  1.
         14    1    4    4    0    0 -0.23197633956E+02  0.19060026634E+02 -0.24346529509E+02  0.38654473681E+02  0.00000000000E+00 0. -1.
         -5    1    5    5    0  502  0.93182157166E+02  0.16699175779E+02  0.71201405900E+02  0.11854748875E+03  0.47000000000E+01 0.  1.
         13    1    6    6    0    0 -0.19353592075E+02  0.24819397109E+01 -0.30109531252E+01  0.19743033953E+02  0.00000000000E+00 0. -1.
        -14    1    6    6    0    0  0.24732126420E+02 -0.83766517948E+02  0.78532180775E+02  0.11745557042E+03  0.00000000000E+00 0.  1.
</event>
<event>
12    1  0.8684423E-002  0.2294282E+03  0.7818608E-02  0.1128109E+00
         21   -1    0    0  503  502  0.00000000000E+00  0.00000000000E+00  0.55494105800E+02  0.55494105800E+02  0.00000000000E+00 0. -1.
         21   -1    0    0  501  503 -0.00000000000E+00 -0.00000000000E+00 -0.13039275641E+04  0.13039275641E+04  0.00000000000E+00 0. -1.
          6    2    1    2  501    0 -0.69945450417E+02 -0.13324984986E+03 -0.99688607333E+03  0.10229463075E+04  0.17317452547E+03 0.  0.
         24    2    3    3    0    0 -0.55429218269E+02 -0.15863321430E+02 -0.28235474219E+03  0.29867603250E+03  0.78480116875E+02 0.  0.
         -6    2    1    2    0  502  0.69945450417E+02  0.13324984986E+03 -0.25154738501E+03  0.33647536246E+03  0.16520197975E+03 0.  0.
        -24    2    5    5    0    0  0.59956040838E+02  0.14808574117E+03 -0.14997920764E+03  0.23323740127E+03  0.79886225718E+02 0.  0.
          5    1    3    3  501    0 -0.14516232148E+02 -0.11738652843E+03 -0.71453133114E+03  0.72427027499E+03  0.47000000000E+01 0. -1.
        -13    1    4    4    0    0 -0.33923422165E+02  0.30877925738E+02 -0.13824574400E+03  0.14565757997E+03  0.00000000000E+00 0.  1.
         14    1    4    4    0    0 -0.21505796104E+02 -0.46741247168E+02 -0.14410899820E+03  0.15301845253E+03  0.00000000000E+00 0. -1.
         -5    1    5    5    0  502  0.99894095788E+01 -0.14835891309E+02 -0.10156817737E+03  0.10323796118E+03  0.47000000000E+01 0.  1.
         13    1    6    6    0    0  0.16293419187E+02  0.53110407326E+02 -0.68108013792E+01  0.55969437112E+02  0.00000000000E+00 0. -1.
        -14    1    6    6    0    0  0.43662621651E+02  0.94975333839E+02 -0.14316840626E+03  0.17726796416E+03  0.00000000000E+00 0.  1.
</event>
<event>
12    1  0.8684423E-002  0.1889005E+03  0.7818608E-02  0.1159581E+00
         21   -1    0    0  503  502  0.00000000000E+00  0.00000000000E+00  0.64128290090E+03  0.64128290090E+03  0.00000000000E+00 0.  1.
         21   -1    0    0  501  503 -0.00000000000E+00 -0.00000000000E+00 -0.23353048929E+03  0.23353048929E+03  0.00000000000E+00 0.  1.
          6    2    1    2  501    0 -0.32505218452E+02 -0.69128135427E+02 -0.17798170871E+03  0.25953974170E+03  0.17276602835E+03 0.  0.
         24    2    3    3    0    0  0.50042646819E+02 -0.35133786703E+02 -0.95337077550E+02  0.13779414274E+03  0.78481959392E+02 0.  0.
         -6    2    1    2    0  502  0.32505218452E+02  0.69128135427E+02  0.58573412032E+03  0.61527364848E+03  0.17216827374E+03 0.  0.
        -24    2    5    5    0    0 -0.45819200648E+02  0.24821315179E+02  0.34782477053E+03  0.36087090152E+03  0.80809898732E+02 0.  0.
          5    1    3    3  501    0 -0.82547865271E+02 -0.33994348724E+02 -0.82644631156E+02  0.12174559895E+03  0.47000000000E+01 0. -1.
        -13    1    4    4    0    0  0.15135000483E+01 -0.48989178250E+02 -0.46088089536E+02  0.67278096473E+02  0.00000000000E+00 0.  1.
         14    1    4    4    0    0  0.48529146770E+02  0.13855391547E+02 -0.49248988014E+02  0.70516046270E+02  0.00000000000E+00 0. -1.
         -5    1    5    5    0  502  0.78324419100E+02  0.44306820248E+02  0.23790934979E+03  0.25440274697E+03  0.47000000000E+01 0.  1.
         13    1    6    6    0    0  0.14026435439E+02 -0.17799464970E+02  0.85278980844E+02  0.88238690030E+02  0.00000000000E+00 0. -1.
        -14    1    6    6    0    0 -0.59845636088E+02  0.42620780149E+02  0.26254578969E+03  0.27263221149E+03  0.00000000000E+00 0.  1.
</event>
<event>
12    1  0.8684423E-002  0.2294407E+03  0.7818608E-02  0.1127594E+00
         21   -1    0    0  503  502  0.00000000000E+00  0.00000000000E+00  0.12473389006E+03  0.12473389006E+03  0.00000000000E+00 0. -1.
         21   -1    0    0  501  503 -0.00000000000E+00 -0.00000000000E+00 -0.42846637975E+03  0.42846637975E+03  0.00000000000E+00 0. -1.
          6    2    1    2  501    0  0.62449001933E+01  0.14726224814E+03 -0.19954724011E+03  0.30407585766E+03  0.17583474535E+03 0.  0.
         24    2    3    3    0    0  0.31364746301E+02  0.51738768596E+01 -0.75996125739E+02  0.11405722757E+03  0.78886777855E+02 0.  0.
         -6    2    1    2    0  502 -0.62449001933E+01 -0.14726224814E+03 -0.10418524958E+03  0.24912441215E+03  0.17170683735E+03 0.  0.
        -24    2    5    5    0    0 -0.58701029353E+02 -0.92124881495E+02 -0.10685417636E+03  0.17282901349E+03  0.80741861880E+02 0.  0.
          5    1    3    3  501    0 -0.25119846108E+02  0.14208837128E+03 -0.12355111437E+03  0.19001863009E+03  0.47000000000E+01 0. -1.
        -11    1    4    4    0    0 -0.19131292410E+02 -0.17214305592E+02 -0.90856127973E+01  0.27292618530E+02  0.00000000000E+00 0.  1.
         12    1    4    4    0    0  0.50496038711E+02  0.22388182452E+02 -0.66910512941E+02  0.86764609036E+02  0.00000000000E+00 0. -1.
         -5    1    5    5    0  502  0.52456129159E+02 -0.55137366641E+02  0.26689267784E+01  0.76295398659E+02  0.47000000000E+01 0.  1.
         13    1    6    6    0    0 -0.91015021304E+01 -0.66325101783E+02 -0.20607548602E+02  0.70046609675E+02  0.00000000000E+00 0. -1.
        -14    1    6    6    0    0 -0.49599527222E+02 -0.25799779711E+02 -0.86246627757E+02  0.10278240381E+03  0.00000000000E+00 0.  1.
</event>
<event>
12    1  0.8684423E-002  0.2195595E+03  0.7818608E-02  0.1134791E+00
         21   -1    0    0  503  502  0.00000000000E+00  0.00000000000E+00  0.80651620458E+02  0.80651620458E+02  0.00000000000E+00 0.  1.
         21   -1    0    0  501  503 -0.00000000000E+00 -0.00000000000E+00 -0.62402883347E+03  0.62402883347E+03  0.00000000000E+00 0.  1.
          6    2    1    2  501    0 -0.84616785329E+02 -0.10375509256E+03 -0.18684648043E+03  0.28596749744E+03  0.17011961308E+03 0.  0.
         24    2    3    3    0    0 -0.98344990387E+01 -0.93828547315E+02 -0.16360713662E+03  0.20689105504E+03  0.84475439261E+02 0.  0.
         -6    2    1    2    0  502  0.84616785329E+02  0.10375509256E+03 -0.35653073258E+03  0.41871295648E+03  0.17401510584E+03 0.  0.
        -24    2    5    5    0    0  0.12305827936E+03  0.10290215730E+03 -0.27100915134E+03  0.32482735152E+03  0.79590540183E+02 0.  0.
          5    1    3    3  501    0 -0.74782286290E+02 -0.99265452470E+01 -0.23239343811E+02  0.79076442409E+02  0.47000000000E+01 0. -1.
        -13    1    4    4    0    0  0.15818273042E+02 -0.23203176958E+00  0.94955810694E+00  0.15848446655E+02  0.00000000000E+00 0.  1.
         14    1    4    4    0    0 -0.25652772081E+02 -0.93596515546E+02 -0.16455669473E+03  0.19104260838E+03  0.00000000000E+00 0. -1.
         -5    1    5    5    0  502 -0.38441494032E+02  0.85293526303E+00 -0.85521581240E+02  0.93885604965E+02  0.47000000000E+01 0.  1.
         11    1    6    6    0    0  0.67477161312E+02  0.85717780282E+02 -0.11589153588E+03  0.15915889307E+03  0.00000000000E+00 0. -1.
        -12    1    6    6    0    0  0.55581118049E+02  0.17184377017E+02 -0.15511761546E+03  0.16566845845E+03  0.00000000000E+00 0.  1.
</event>
<event>
12    1  0.8684423E-002  0.2367298E+03  0.7818608E-02  0.1122354E+00
         21   -1    0    0  503  502  0.00000000000E+00  0.00000000000E+00  0.21025714949E+03  0.21025714949E+03  0.00000000000E+00 0. -1.
         21   -1    0    0  501  503 -0.00000000000E+00 -0.00000000000E+00 -0.18426121886E+04  0.18426121886E+04  0.00000000000E+00 0.  1.
          6    2    1    2  501    0 -0.67900821218E+02  0.14488525566E+03 -0.17667246130E+04  0.17825141926E+04  0.17446698766E+03 0.  0.
         24    2    3    3    0    0 -0.79649344037E+02  0.54400069508E+02 -0.13499889195E+04  0.13558804798E+04  0.81476419964E+02 0.  0.
         -6    2    1    2    0  502  0.67900821218E+02 -0.14488525566E+03  0.13436957391E+03  0.27035514548E+03  0.17156475006E+03 0.  0.
        -24    2    5    5    0    0  0.53088830781E+02 -0.66790802345E+01  0.37930345523E+02  0.10111284356E+03  0.76954934571E+02 0.  0.
          5    1    3    3  501    0  0.11748522819E+02  0.90485186154E+02 -0.41673569348E+03  0.42663371283E+03  0.47000000000E+01 0. -1.
        -11    1    4    4    0    0 -0.61733733156E+02  0.75456981194E+02 -0.96998202583E+03  0.97486919136E+03  0.00000000000E+00 0.  1.
         12    1    4    4    0    0 -0.17915610881E+02 -0.21056911686E+02 -0.38000689369E+03  0.38101128841E+03  0.00000000000E+00 0. -1.
         -5    1    5    5    0  502  0.14811990437E+02 -0.13820617543E+03  0.96439228392E+02  0.16924230192E+03  0.47000000000E+01 0.  1.
         11    1    6    6    0    0 -0.97451163661E+01  0.20620465073E+02  0.41661874998E-02  0.22807255209E+02  0.00000000000E+00 0. -1.
        -12    1    6    6    0    0  0.62833947147E+02 -0.27299545307E+02  0.37926179336E+02  0.78305588351E+02  0.00000000000E+00 0.  1.
</event>
<event>
12    1  0.8684423E-002  0.2292814E+03  0.7818608E-02  0.1127283E+00
         21   -1    0    0  501  502  0.00000000000E+00  0.00000000000E+00  0.76870243066E+02  0.76870243066E+02  0.00000000000E+00 0. -1.
         21   -1    0    0  502  503 -0.00000000000E+00 -0.00000000000E+00 -0.68248324756E+03  0.68248324756E+03  0.00000000000E+00 0. -1.
         -6    2    1    2    0  503 -0.10087085599E+03 -0.11234401646E+03 -0.31715656366E+03  0.39135440203E+03  0.17255107792E+03 0.  0.
        -24    2    3    3    0    0 -0.78653426977E+02 -0.29853300456E+02 -0.26188934799E+03  0.28949721031E+03  0.90249781488E+02 0.  0.
          6    2    1    2  501    0  0.10087085599E+03  0.11234401646E+03 -0.28845644083E+03  0.36799908860E+03  0.17152289447E+03 0.  0.
         24    2    5    5    0    0  0.10474945787E+03  0.29102312255E+02 -0.24229451795E+03  0.27261964639E+03  0.61607180347E+02 0.  0.
          5    1    5    5  501    0 -0.38786018728E+01  0.83241704200E+02 -0.46161922884E+02  0.95379442203E+02  0.47000000000E+01 0. -1.
        -11    1    6    6    0    0  0.48674528473E+02  0.37555878505E+02 -0.16975289136E+03  0.18054278678E+03  0.00000000000E+00 0.  1.
         12    1    6    6    0    0  0.56074929393E+02 -0.84535662499E+01 -0.72541626591E+02  0.92076859619E+02  0.00000000000E+00 0. -1.
         -5    1    3    3    0  503 -0.22217429017E+02 -0.82490716000E+02 -0.55267215668E+02  0.10185719172E+03  0.47000000000E+01 0.  1.
         13    1    4    4    0    0 -0.32634176542E+02 -0.25590707597E+02 -0.22911851573E+03  0.23284150843E+03  0.00000000000E+00 0. -1.
        -14    1    4    4    0    0 -0.46019250435E+02 -0.42625928594E+01 -0.32770832260E+02  0.56655701879E+02  0.00000000000E+00 0.  1.
</event>
<event>
12    1  0.8684423E-002  0.2148369E+03  0.7818608E-02  0.1137823E+00
         21   -1    0    0  501  502  0.00000000000E+00  0.00000000000E+00  0.64836867574E+03  0.64836867574E+03  0.00000000000E+00 0. -1.
         21   -1    0    0  502  503 -0.00000000000E+00 -0.00000000000E+00 -0.19818275187E+03  0.19818275187E+03  0.00000000000E+00 0. -1.
         -6    2    1    2    0  503  0.74488064211E+02  0.10410508060E+03 -0.11378144537E+03  0.24310724289E+03  0.17253572013E+03 0.  0.
        -24    2    3    3    0    0  0.11517849406E+03  0.10183097177E+03 -0.99485754446E+02  0.19966372288E+03  0.79577349747E+02 0.  0.
          6    2    1    2  501    0 -0.74488064211E+02 -0.10410508060E+03  0.56396736924E+03  0.60344418471E+03  0.17233499638E+03 0.  0.
         24    2    5    5    0    0  0.21661080636E+02 -0.70904699329E+02  0.34789360176E+03  0.36457835131E+03  0.79942087160E+02 0.  0.
          5    1    5    5  501    0 -0.96149144846E+02 -0.33200381275E+02  0.21607376748E+03  0.23886583340E+03  0.47000000000E+01 0. -1.
        -11    1    6    6    0    0  0.19590661923E+02 -0.44162629912E+02  0.68071665630E+02  0.83473849660E+02  0.00000000000E+00 0.  1.
         12    1    6    6    0    0  0.20704187122E+01 -0.26742069416E+02  0.27982193613E+03  0.28110450165E+03  0.00000000000E+00 0. -1.
         -5    1    3    3    0  503 -0.40690429847E+02  0.22741088362E+01 -0.14295690923E+02  0.43443520013E+02  0.47000000000E+01 0.  1.
         13    1    4    4    0    0  0.12669208471E+02  0.22804806045E+02 -0.58240831655E+02  0.63816631797E+02  0.00000000000E+00 0. -1.
        -14    1    4    4    0    0  0.10250928559E+03  0.79026165722E+02 -0.41244922791E+02  0.13584709109E+03  0.00000000000E+00 0.  1.
</event>
<event>
12    1  0.8684423E-002  0.2075052E+03  0.7818608E-02  0.1144767E+00
         21   -1    0    0  503  502  0.00000000000E+00  0.00000000000E+00  0.57428985221E+03  0.57428985221E+03  0.00000000000E+00 0. -1.
         21   -1    0    0  501  503 -0.00000000000E+00 -0.00000000000E+00 -0.73429353291E+02  0.73429353291E+02  0.00000000000E+00 0. -1.
          6    2    1    2  501    0  0.43906339193E+01  0.11567929964E+03  0.27554941779E+03  0.34141302653E+03  0.16502846728E+03 0.  0.
         24    2    3    3    0    0 -0.12639035910E+02  0.81274272263E+02  0.78447167307E+02  0.14055212265E+03  0.82678223026E+02 0.  0.
         -6    2    1    2    0  502 -0.43906339193E+01 -0.11567929964E+03  0.22531108113E+03  0.30630617896E+03  0.17221328044E+03 0.  0.
        -24    2    5    5    0    0 -0.34943679980E+02  0.16219766963E+02  0.10843959589E+03  0.12738752019E+03  0.54628680494E+02 0.  0.
          5    1    3    3  501    0  0.17029669830E+02  0.34405027381E+02  0.19710225048E+03  0.20086090388E+03  0.47000000000E+01 0. -1.
        -11    1    4    4    0    0 -0.90053212920E+01  0.20838991261E+02 -0.16415811956E+02  0.28014964760E+02  0.00000000000E+00 0.  1.
         12    1    4    4    0    0 -0.36337146184E+01  0.60435281002E+02  0.94862979263E+02  0.11253715789E+03  0.00000000000E+00 0. -1.
         -5    1    5    5    0  502  0.30553046061E+02 -0.13189906661E+03  0.11687148524E+03  0.17891865877E+03  0.47000000000E+01 0.  1.
         11    1    6    6    0    0 -0.19694230527E+02  0.18701383746E+02  0.11954861773E+02  0.29673611005E+02  0.00000000000E+00 0. -1.
        -12    1    6    6    0    0 -0.15249449453E+02 -0.24816167828E+01  0.96484734119E+02  0.97713909186E+02  0.00000000000E+00 0.  1.
</event>
<event>
12    1  0.8684423E-002  0.1761062E+03  0.7818608E-02  0.1172411E+00
         21   -1    0    0  503  502  0.00000000000E+00  0.00000000000E+00  0.63707060500E+03  0.63707060500E+03  0.00000000000E+00 0. -1.
         21   -1    0    0  501  503 -0.00000000000E+00 -0.00000000000E+00 -0.51515806437E+02  0.51515806437E+02  0.00000000000E+00 0. -1.
          6    2    1    2  501    0  0.42718948182E+01 -0.29285601847E+02  0.20300878619E+03  0.26874888366E+03  0.17360155425E+03 0.  0.
         24    2    3    3    0    0  0.40125267280E+02 -0.14678320152E+02  0.37676662686E+02  0.98879410070E+02  0.80821511170E+02 0.  0.
         -6    2    1    2    0  502 -0.42718948182E+01  0.29285601847E+02  0.38254601236E+03  0.41983752777E+03  0.17042946514E+03 0.  0.
        -24    2    5    5    0    0 -0.59394826296E+01  0.31891570336E+02  0.39534503467E+03  0.40585622265E+03  0.85844203711E+02 0.  0.
          5    1    3    3  501    0 -0.35853372462E+02 -0.14607281695E+02  0.16533212351E+03  0.16986947359E+03  0.47000000000E+01 0. -1.
        -11    1    4    4    0    0  0.22181184814E+02 -0.10389604527E+02  0.62973589259E+02  0.67569384977E+02  0.00000000000E+00 0.  1.
         12    1    4    4    0    0  0.17944082466E+02 -0.42887156245E+01 -0.25296926573E+02  0.31310025093E+02  0.00000000000E+00 0. -1.
         -5    1    5    5    0  502  0.16675878115E+01 -0.26059684889E+01 -0.12799022307E+02  0.13981305121E+02  0.47000000000E+01 0.  1.
         11    1    6    6    0    0 -0.24779417409E+02 -0.20493215653E+02  0.20608532885E+03  0.20857889199E+03  0.00000000000E+00 0. -1.
        -12    1    6    6    0    0  0.18839934780E+02  0.52384785989E+02  0.18925970582E+03  0.19727733066E+03  0.00000000000E+00 0.  1.
</event>
<event>
12    1  0.8684423E-002  0.2468862E+03  0.7818608E-02  0.1116780E+00
         21   -1    0    0  501  502  0.00000000000E+00  0.00000000000E+00  0.57189606703E+03  0.57189606703E+03  0.00000000000E+00 0.  1.
         21   -1    0    0  502  503 -0.00000000000E+00 -0.00000000000E+00 -0.12822983808E+03  0.12822983808E+03  0.00000000000E+00 0.  1.
         -6    2    1    2    0  503  0.11371776396E+02 -0.17654902378E+03  0.68953096104E+02  0.25633436441E+03  0.17220308307E+03 0.  0.
        -24    2    3    3    0    0  0.67489631434E+02 -0.12086840797E+03  0.14488502724E+02  0.16021971120E+03  0.79349963754E+02 0.  0.
          6    2    1    2  501    0 -0.11371776396E+02  0.17654902378E+03  0.37471313284E+03  0.44379154069E+03  0.15887770318E+03 0.  0.
         24    2    5    5    0    0  0.41346093376E+02  0.10192772696E+03  0.28473675384E+03  0.31547415874E+03  0.79687921818E+02 0.  0.
          5    1    5    5  501    0 -0.52717869772E+02  0.74621296828E+02  0.89976379004E+02  0.12831738196E+03  0.47000000000E+01 0. -1.
        -11    1    6    6    0    0  0.66785777503E+00  0.46611315119E+02  0.40444088916E+02  0.61715355134E+02  0.00000000000E+00 0.  1.
         12    1    6    6    0    0  0.40678235601E+02  0.55316411837E+02  0.24429266492E+03  0.25375880360E+03  0.00000000000E+00 0. -1.
         -5    1    3    3    0  503 -0.56117855038E+02 -0.55680615809E+02  0.54464593380E+02  0.96114653217E+02  0.47000000000E+01 0.  1.
         13    1    4    4    0    0 -0.15134168078E+02 -0.31262681237E+02  0.16194448409E+02  0.38323079741E+02  0.00000000000E+00 0. -1.
        -14    1    4    4    0    0  0.82623799512E+02 -0.89605726737E+02 -0.17059456849E+01  0.12189663146E+03  0.00000000000E+00 0.  1.
</event>
<event>
12    1  0.8684423E-002  0.2271297E+03  0.7818608E-02  0.1128724E+00
         21   -1    0    0  501  502  0.00000000000E+00  0.00000000000E+00  0.61942087765E+03  0.61942087765E+03  0.00000000000E+00 0.  1.
         21   -1    0    0  502  503 -0.00000000000E+00 -0.00000000000E+00 -0.85741869330E+02  0.85741869330E+02  0.00000000000E+00 0. -1.
         -6    2    1    2    0  503 -0.13340024372E+03  0.64069858064E+02  0.20580973406E+03  0.30630666354E+03  0.17194636884E+03 0.  0.
        -24    2    3    3    0    0 -0.41261371866E+02  0.15276056196E+02  0.20141000510E+02  0.93315172100E+02  0.79788487523E+02 0.  0.
          6    2    1    2  501    0  0.13340024372E+03 -0.64069858064E+02  0.32786927426E+03  0.39885608345E+03  0.17230015252E+03 0.  0.
         24    2    5    5    0    0  0.14249815695E+03 -0.45166988685E+02  0.19846599812E+03  0.26767914808E+03  0.99587109127E+02 0.  0.
          5    1    5    5  501    0 -0.90979132333E+01 -0.18902869379E+02  0.12940327614E+03  0.13117693537E+03  0.47000000000E+01 0. -1.
        -11    1    6    6    0    0  0.13325363113E+03 -0.71841783301E+02  0.16674397224E+03  0.22521395231E+03  0.00000000000E+00 0.  1.
         12    1    6    6    0    0  0.92445258194E+01  0.26674794616E+02  0.31722025882E+02  0.42465195766E+02  0.00000000000E+00 0. -1.
         -5    1    3    3    0  503 -0.92138871851E+02  0.48793801868E+02  0.18566873355E+03  0.21299149144E+03  0.47000000000E+01 0.  1.
         13    1    4    4    0    0 -0.15934177878E+02 -0.30460550243E+02 -0.59463281803E+01  0.34886988471E+02  0.00000000000E+00 0. -1.
        -14    1    4    4    0    0 -0.25327193988E+02  0.45736606439E+02  0.26087328691E+02  0.58428183628E+02  0.00000000000E+00 0.  1.
</event>
<event>
12    1  0.8684423E-002  0.2193762E+03  0.7818608E-02  0.1134705E+00
         21   -1    0    0  503  502  0.00000000000E+00  0.00000000000E+00  0.37394375846E+02  0.37394375846E+02  0.00000000000E+00 0. -1.
         21   -1    0    0  501  503 -0.00000000000E+00 -0.00000000000E+00 -0.19457073124E+04  0.19457073124E+04  0.00000000000E+00 0. -1.
          6    2    1    2  501    0 -0.78020879877E+02 -0.10870189268E+03 -0.15332126237E+04  0.15485603747E+04  0.17144948359E+03 0.  0.
         24    2    3    3    0    0 -0.41719672465E+02 -0.17024337924E+00 -0.42528136514E+03  0.43472436331E+03  0.79877859668E+02 0.  0.
         -6    2    1    2    0  502  0.78020879877E+02  0.10870189268E+03 -0.37510031284E+03  0.43454131354E+03  0.17384633822E+03 0.  0.
        -24    2    5    5    0    0  0.10078963434E+03  0.10386135816E+03 -0.23682047908E+03  0.29423718182E+03  0.97702854331E+02 0.  0.
          5    1    3    3  501    0 -0.36301207412E+02 -0.10853164930E+03 -0.11079312586E+04  0.11138360114E+04  0.47000000000E+01 0. -1.
        -13    1    4    4    0    0  0.16923913323E+01  0.21622350900E+02 -0.29308092139E+03  0.29388231782E+03  0.00000000000E+00 0.  1.
         14    1    4    4    0    0 -0.43412063797E+02 -0.21792594280E+02 -0.13220044376E+03  0.14084204549E+03  0.00000000000E+00 0. -1.
         -5    1    5    5    0  502 -0.22768754459E+02  0.48405345207E+01 -0.13827983376E+03  0.14030413172E+03  0.47000000000E+01 0.  1.
         13    1    6    6    0    0  0.22459304693E+01  0.35572770413E+02 -0.89486155122E+01  0.36749747185E+02  0.00000000000E+00 0. -1.
        -14    1    6    6    0    0  0.98543703867E+02  0.68288587742E+02 -0.22787186357E+03  0.25748743463E+03  0.00000000000E+00 0.  1.
</event>
<event>
12    1  0.8684423E-002  0.3132609E+03  0.7818608E-02  0.1078825E+00
         21   -1    0    0  501  502  0.00000000000E+00  0.00000000000E+00  0.90476482768E+02  0.90476482768E+02  0.00000000000E+00 0.  1.
         21   -1    0    0  502  503 -0.00000000000E+00 -0.00000000000E+00 -0.12552784998E+04  0.12552784998E+04  0.00000000000E+00 0. -1.
         -6    2    1    2    0  503  0.11036959726E+03  0.23746732267E+03 -0.33383916653E+03  0.45780013635E+03  0.17193079536E+03 0.  0.
        -24    2    3    3    0    0  0.49736945164E+02  0.96143737788E+02 -0.24731371465E+03  0.28128549682E+03  0.78994146854E+02 0.  0.
          6    2    1    2  501    0 -0.11036959726E+03 -0.23746732267E+03 -0.83096285049E+03  0.88795484621E+03  0.17144203883E+03 0.  0.
         24    2    5    5    0    0 -0.22279041216E+01 -0.14792325035E+03 -0.36555175246E+03  0.40180430692E+03  0.77021852630E+02 0.  0.
          5    1    5    5  501    0 -0.10814169313E+03 -0.89544072328E+02 -0.46541109803E+03  0.48615053929E+03  0.47000000000E+01 0. -1.
        -13    1    6    6    0    0 -0.10940394987E+02  0.48253842296E+01 -0.14054396084E+02  0.18452713208E+02  0.00000000000E+00 0.  1.
         14    1    6    6    0    0  0.87124908657E+01 -0.15274863458E+03 -0.35149735637E+03  0.38335159371E+03  0.00000000000E+00 0. -1.
         -5    1    3    3    0  503  0.60632652092E+02  0.14132358489E+03 -0.86525451883E+02  0.17651463953E+03  0.47000000000E+01 0.  1.
         13    1    4    4    0    0  0.24866929247E+01  0.85525747612E+02 -0.15993786968E+03  0.18138621586E+03  0.00000000000E+00 0. -1.
        -14    1    4    4    0    0  0.47250252240E+02  0.10617990176E+02 -0.87375844969E+02  0.99899280959E+02  0.00000000000E+00 0.  1.
</event>
<event>
12    1  0.8684423E-002  0.1899474E+03  0.7818608E-02  0.1158536E+00
         21   -1    0    0  501  502  0.00000000000E+00  0.00000000000E+00  0.10067535207E+04  0.10067535207E+04  0.00000000000E+00 0.  1.
         21   -1    0    0  502  503 -0.00000000000E+00 -0.00000000000E+00 -0.35916055446E+02  0.35916055446E+02  0.00000000000E+00 0.  1.
         -6    2    1    2    0  503 -0.70663061527E+02 -0.31777083734E+02  0.51315436128E+03  0.54718134738E+03  0.17342715216E+03 0.  0.
        -24    2    3    3    0    0 -0.11114646167E+03 -0.47738046123E+02  0.36092124288E+03  0.38878099906E+03  0.79082644649E+02 0.  0.
          6    2    1    2  501    0  0.70663061527E+02  0.31777083734E+02  0.45768310393E+03  0.49548822872E+03  0.17329659507E+03 0.  0.
         24    2    5    5    0    0  0.93699727464E+02 -0.19019657950E+02  0.37702376141E+03  0.39730973576E+03  0.81035320397E+02 0.  0.
          5    1    5    5  501    0 -0.23036665937E+02  0.50796741683E+02  0.80659342526E+02  0.98178492960E+02  0.47000000000E+01 0. -1.
        -13    1    6    6    0    0  0.80330373745E+02 -0.40097434323E+02  0.20937088332E+03  0.22780899887E+03  0.00000000000E+00 0.  1.
         14    1    6    6    0    0  0.13369353719E+02  0.21077776374E+02  0.16765287808E+03  0.16950073689E+03  0.00000000000E+00 0. -1.
         -5    1    3    3    0  503  0.40483400145E+02  0.15960962390E+02  0.15223311840E+03  0.15840034831E+03  0.47000000000E+01 0.  1.
         13    1    4    4    0    0 -0.22432793199E+02 -0.13314823246E+02  0.15176272443E+02  0.30180026078E+02  0.00000000000E+00 0. -1.
        -14    1    4    4    0    0 -0.88713668473E+02 -0.34423222877E+02  0.34574497043E+03  0.35860097299E+03  0.00000000000E+00 0.  1.
</event>
<event>
12    1  0.8684423E-002  0.1805686E+03  0.7818608E-02  0.1168020E+00
         21   -1    0    0  501  502  0.00000000000E+00  0.00000000000E+00  0.11213089746E+04  0.11213089746E+04  0.00000000000E+00 0. -1.
         21   -1    0    0  502  503 -0.00000000000E+00 -0.00000000000E+00 -0.29711220240E+02  0.29711220240E+02  0.00000000000E+00 0. -1.
         -6    2    1    2    0  503 -0.40389545245E+02 -0.12584443361E+02  0.42853801270E+03  0.46381335029E+03  0.17230296573E+03 0.  0.
        -24    2    3    3    0    0  0.71595135404E+00  0.35839500612E+02  0.35591847111E+03  0.36722024484E+03  0.82992576479E+02 0.  0.
          6    2    1    2  501    0  0.40389545245E+02  0.12584443361E+02  0.66305974166E+03  0.68720684455E+03  0.17554299361E+03 0.  0.
         24    2    5    5    0    0  0.65679380083E+02  0.65250547767E+02  0.43638833355E+03  0.45308014476E+03  0.79217579909E+02 0.  0.
          5    1    5    5  501    0 -0.25289834837E+02 -0.52666104406E+02  0.22667140811E+03  0.23412669979E+03  0.47000000000E+01 0. -1.
        -13    1    6    6    0    0  0.71897688678E+02  0.19646985263E+02  0.30064793034E+03  0.30974902693E+03  0.00000000000E+00 0.  1.
         14    1    6    6    0    0 -0.62183085952E+01  0.45603562505E+02  0.13574040321E+03  0.14333111783E+03  0.00000000000E+00 0. -1.
         -5    1    3    3    0  503 -0.41105496600E+02 -0.48423943973E+02  0.72619541596E+02  0.96593105459E+02  0.47000000000E+01 0.  1.
         11    1    4    4    0    0 -0.44909145250E+00  0.22375457280E+01  0.31151615534E+03  0.31152451482E+03  0.00000000000E+00 0. -1.
        -12    1    4    4    0    0  0.11650428065E+01  0.33601954884E+02  0.44402315769E+02  0.55695730019E+02  0.00000000000E+00 0.  1.
</event>
<event>
12    1  0.8684423E-002  0.2107932E+03  0.7818608E-02  0.1141108E+00
         21   -1    0    0  503  502  0.00000000000E+00  0.00000000000E+00  0.49150426615E+03  0.49150426615E+03  0.00000000000E+00 0.  1.
         21   -1    0    0  501  503 -0.00000000000E+00 -0.00000000000E+00 -0.16452317059E+03  0.16452317059E+03  0.00000000000E+00 0.  1.
          6    2    1    2  501    0 -0.11433255232E+03  0.31210646241E+02 -0.57398505030E+02  0.21764237408E+03  0.17328467231E+03 0.  0.
         24    2    3    3    0    0 -0.33500962126E+02 -0.46699915891E+02 -0.38086255967E+02  0.10362985447E+03  0.77365284438E+02 0.  0.
         -6    2    1    2    0  502  0.11433255232E+03 -0.31210646241E+02  0.38437960059E+03  0.43838506266E+03  0.17432082164E+03 0.  0.
        -24    2    5    5    0    0  0.38497201149E+02  0.38307569306E+02  0.25882242532E+03  0.27599517060E+03  0.78960635681E+02 0.  0.
          5    1    3    3  501    0 -0.80831590195E+02  0.77910562132E+02 -0.19312249063E+02  0.11401251962E+03  0.47000000000E+01 0. -1.
        -11    1    4    4    0    0 -0.13733207433E+02 -0.39584997453E+02 -0.60058506320E+02  0.73229756187E+02  0.00000000000E+00 0.  1.
         12    1    4    4    0    0 -0.19767754694E+02 -0.71149184384E+01  0.21972250353E+02  0.30400098283E+02  0.00000000000E+00 0. -1.
         -5    1    5    5    0  502  0.75835351172E+02 -0.69518215547E+02  0.12555717527E+03  0.16238989205E+03  0.47000000000E+01 0.  1.
         13    1    6    6    0    0  0.37195005104E+02 -0.49301079046E+00  0.43657040075E+02  0.57355458436E+02  0.00000000000E+00 0. -1.
        -14    1    6    6    0    0  0.13021960450E+01  0.38800580097E+02  0.21516538524E+03  0.21863971217E+03  0.00000000000E+00 0.  1.
</event>
<event>
12    1  0.8684423E-002  0.2013314E+03  0.7818608E-02  0.1148682E+00
         21   -1    0    0  501  502  0.00000000000E+00  0.00000000000E+00  0.16841069924E+03  0.16841069924E+03  0.00000000000E+00 0. -1.
         21   -1    0    0  502  503 -0.00000000000E+00 -0.00000000000E+00 -0.37441020247E+03  0.37441020247E+03  0.00000000000E+00 0. -1.
         -6    2    1    2    0  503 -0.10478894432E+03 -0.20275550314E+01 -0.26536452521E+03  0.33291968097E+03  0.17155858740E+03 0.  0.
        -24    2    3    3    0    0 -0.11609831670E+03 -0.50706841286E+02 -0.20684834055E+03  0.25582358067E+03  0.81298619606E+02 0.  0.
          6    2    1    2  501    0  0.10478894432E+03  0.20275550314E+01  0.59365021976E+02  0.20990122073E+03  0.17189963002E+03 0.  0.
         24    2    5    5    0    0  0.53508481185E+02 -0.55484448561E+02 -0.25755690995E+01  0.11092625784E+03  0.79726529664E+02 0.  0.
          5    1    5    5  501    0  0.51280463134E+02  0.57512003592E+02  0.61940591075E+02  0.98974962891E+02  0.47000000000E+01 0. -1.
        -13    1    6    6    0    0  0.73940642629E+02 -0.47532409854E+02 -0.82258449690E+01  0.88284840966E+02  0.00000000000E+00 0.  1.
         14    1    6    6    0    0 -0.20432161444E+02 -0.79520387072E+01  0.56502758695E+01  0.22641416878E+02  0.00000000000E+00 0. -1.
         -5    1    3    3    0  503  0.11309372376E+02  0.48679286254E+02 -0.58516184660E+02  0.77096100297E+02  0.47000000000E+01 0.  1.
         13    1    4    4    0    0 -0.67789265892E+02 -0.46550483071E+02 -0.18537090595E+03  0.20279227011E+03  0.00000000000E+00 0. -1.
        -14    1    4    4    0    0 -0.48309050803E+02 -0.41563582148E+01 -0.21477434595E+02  0.53031310562E+02  0.00000000000E+00 0.  1.
</event>
<event>
12    1  0.8684423E-002  0.2145138E+03  0.7818608E-02  0.1138165E+00
         21   -1    0    0  501  502  0.00000000000E+00  0.00000000000E+00  0.60638944879E+02  0.60638944879E+02  0.00000000000E+00 0. -1.
         21   -1    0    0  502  503 -0.00000000000E+00 -0.00000000000E+00 -0.80467083187E+03  0.80467083187E+03  0.00000000000E+00 0. -1.
         -6    2    1    2    0  503 -0.83860535043E+02  0.97242542253E+02 -0.47727147837E+03  0.52299811659E+03  0.17102708712E+03 0.  0.
        -24    2    3    3    0    0  0.11660220429E+02  0.85065210917E+02 -0.26642762235E+03  0.29115824999E+03  0.80108662055E+02 0.  0.
          6    2    1    2  501    0  0.83860535043E+02 -0.97242542253E+02 -0.26676040862E+03  0.34231166016E+03  0.17183554845E+03 0.  0.
         24    2    5    5    0    0  0.52051444102E+02  0.13480758453E+02 -0.13818451781E+03  0.16961158117E+03  0.82353165224E+02 0.  0.
          5    1    5    5  501    0  0.31809090941E+02 -0.11072330071E+03 -0.12857589081E+03  0.17270007899E+03  0.47000000000E+01 0. -1.
        -11    1    6    6    0    0 -0.33833625474E+01  0.24600646501E+02 -0.55724720027E+01  0.25449781819E+02  0.00000000000E+00 0.  1.
         12    1    6    6    0    0  0.55434806650E+02 -0.11119888048E+02 -0.13261204580E+03  0.14416179935E+03  0.00000000000E+00 0. -1.
         -5    1    3    3    0  503 -0.95520755472E+02  0.12177331337E+02 -0.21084385602E+03  0.23183986660E+03  0.47000000000E+01 0.  1.
         11    1    4    4    0    0 -0.46883778709E+01  0.92129984476E+02 -0.25161837111E+03  0.26799574551E+03  0.00000000000E+00 0. -1.
        -12    1    4    4    0    0  0.16348598300E+02 -0.70647735595E+01 -0.14809251240E+02  0.23162504487E+02  0.00000000000E+00 0.  1.
</event>
<event>
12    1  0.8684423E-002  0.1907170E+03  0.7818608E-02  0.1157860E+00
         21   -1    0    0  501  502  0.00000000000E+00  0.00000000000E+00  0.39176825323E+03  0.39176825323E+03  0.00000000000E+00 0.  1.
         21   -1    0    0  502  503 -0.00000000000E+00 -0.00000000000E+00 -0.10666787891E+03  0.10666787891E+03  0.00000000000E+00 0. -1.
         -6    2    1    2    0  503 -0.36331567322E+02 -0.73916882631E+02  0.52459469575E+02  0.19761267211E+03  0.17179954572E+03 0.  0.
        -24    2    3    3    0    0  0.37892577977E+02 -0.19007409146E+02  0.52404627774E+02  0.10516610900E+03  0.80725066752E+02 0.  0.
          6    2    1    2  501    0  0.36331567322E+02  0.73916882631E+02  0.23264090474E+03  0.30082346002E+03  0.17201533426E+03 0.  0.
         24    2    5    5    0    0  0.60122154369E+02  0.56886650609E+01  0.19478166612E+03  0.21911364633E+03  0.80148975010E+02 0.  0.
          5    1    5    5  501    0 -0.23790587047E+02  0.68228217571E+02  0.37859238621E+02  0.81709813694E+02  0.47000000000E+01 0. -1.
        -11    1    6    6    0    0  0.54984375798E+01  0.27035963910E+02  0.12477074975E+03  0.12778464757E+03  0.00000000000E+00 0.  1.
         12    1    6    6    0    0  0.54623716789E+02 -0.21347298849E+02  0.70010916367E+02  0.91328998761E+02  0.00000000000E+00 0. -1.
         -5    1    3    3    0  503 -0.74224145299E+02 -0.54909473486E+02  0.54841800951E-01  0.92446563113E+02  0.47000000000E+01 0.  1.
         11    1    4    4    0    0  0.38092388653E+02 -0.52442645041E+01 -0.11231421505E+02  0.40058422492E+02  0.00000000000E+00 0. -1.
        -12    1    4    4    0    0 -0.19981067678E+00 -0.13763144642E+02  0.63636049279E+02  0.65107686509E+02  0.00000000000E+00 0.  1.
</event>
<event>
12    1  0.8684423E-002  0.1999804E+03  0.7818608E-02  0.1150044E+00
         21   -1    0    0  503  502  0.00000000000E+00  0.00000000000E+00  0.34192258736E+03  0.34192258736E+03  0.00000000000E+00 0.  1.
         21   -1    0    0  501  503 -0.00000000000E+00 -0.00000000000E+00 -0.13662507194E+03  0.13662507194E+03  0.00000000000E+00 0.  1.
          6    2    1    2  501    0 -0.95678090787E+02  0.34801320678E+02  0.10356315637E+02  0.20024837158E+03  0.17212416469E+03 0.  0.
         24    2    3    3    0    0  0.74938007445E+01 -0.12794919655E+02  0.28674567953E+02  0.85063782058E+02  0.78700375806E+02 0.  0.
         -6    2    1    2    0  502  0.95678090787E+02 -0.34801320678E+02  0.19494119979E+03  0.27829928772E+03  0.17053736597E+03 0.  0.
        -24    2    5    5    0    0 -0.58266897500E+01 -0.12542730350E+02  0.13686245914E+03  0.15916115179E+03  0.80060409200E+02 0.  0.
          5    1    3    3  501    0 -0.10317189153E+03  0.47596240332E+02 -0.18318252317E+02  0.11518458952E+03  0.47000000000E+01 0. -1.
        -13    1    4    4    0    0  0.60062355371E+01 -0.28721484027E+01 -0.27349575975E+02  0.28148239870E+02  0.00000000000E+00 0.  1.
         14    1    4    4    0    0  0.14875652073E+01 -0.99227712520E+01  0.56024143928E+02  0.56915542187E+02  0.00000000000E+00 0. -1.
         -5    1    5    5    0  502  0.10150478054E+03 -0.22258590327E+02  0.58078740651E+02  0.11913813592E+03  0.47000000000E+01 0.  1.
         11    1    6    6    0    0 -0.30825358545E+02  0.22141000892E+02  0.55276082397E+02  0.67051263486E+02  0.00000000000E+00 0. -1.
        -12    1    6    6    0    0  0.24998668795E+02 -0.34683731243E+02  0.81586376740E+02  0.92109888308E+02  0.00000000000E+00 0.  1.
</event>
<event>
12    1  0.8684423E-002  0.2212291E+03  0.7818608E-02  0.1133078E+00
         21   -1    0    0  501  502  0.00000000000E+00  0.00000000000E+00  0.42477700645E+03  0.42477700645E+03  0.00000000000E+00 0. -1.
         21   -1    0    0  502  503 -0.00000000000E+00 -0.00000000000E+00 -0.28073845196E+03  0.28073845196E+03  0.00000000000E+00 0. -1.
         -6    2    1    2    0  503  0.72220283633E+02  0.11847284906E+03 -0.19905368104E+03  0.29759822281E+03  0.17231003729E+03 0.  0.
        -24    2    3    3    0    0  0.10347628252E+02  0.60461406074E+01 -0.12541587872E+03  0.14956915070E+03  0.80611159155E+02 0.  0.
          6    2    1    2  501    0 -0.72220283633E+02 -0.11847284906E+03  0.34309223553E+03  0.40791723560E+03  0.17155932993E+03 0.  0.
         24    2    5    5    0    0 -0.90354756748E+02 -0.13641282439E+03  0.23601632657E+03  0.29774445262E+03  0.78585061783E+02 0.  0.
          5    1    5    5  501    0  0.18134473115E+02  0.17939975327E+02  0.10707590895E+03  0.11017278297E+03  0.47000000000E+01 0. -1.
        -13    1    6    6    0    0 -0.75133522506E+02 -0.70007109572E+02  0.18857977224E+03  0.21472860101E+03  0.00000000000E+00 0.  1.
         14    1    6    6    0    0 -0.15221234242E+02 -0.66405714816E+02  0.47436554336E+02  0.83015851615E+02  0.00000000000E+00 0. -1.
         -5    1    3    3    0  503  0.61872655381E+02  0.11242670845E+03 -0.73637802313E+02  0.14802907210E+03  0.47000000000E+01 0.  1.
         13    1    4    4    0    0 -0.13491628227E+02  0.34345223205E+02 -0.94162131271E+02  0.10113419478E+03  0.00000000000E+00 0. -1.
        -14    1    4    4    0    0  0.23839256479E+02 -0.28299082597E+02 -0.31253747451E+02  0.48434955921E+02  0.00000000000E+00 0.  1.
</event>
<event>
12    1  0.8684423E-002  0.5734714E+03  0.7818608E-02  0.9962540E-01
         21   -1    0    0  503  502  0.00000000000E+00  0.00000000000E+00  0.39566338724E+03  0.39566338724E+03  0.00000000000E+00 0.  1.
         21   -1    0    0  501  503 -0.00000000000E+00 -0.00000000000E+00 -0.11229676234E+04  0.11229676234E+04  0.00000000000E+00 0. -1.
          6    2    1    2  501    0 -0.52289542626E+03  0.15897023848E+03 -0.75181910390E+03  0.94556934237E+03  0.17371888994E+03 0.  0.
         24    2    3    3    0    0 -0.35852473138E+03  0.16395697648E+03 -0.46612499839E+03  0.61589404028E+03  0.81431453236E+02 0.  0.
         -6    2    1    2    0  502  0.52289542626E+03 -0.15897023848E+03  0.24514867763E+02  0.57306166825E+03  0.17060930030E+03 0.  0.
        -24    2    5    5    0    0  0.27743080055E+03 -0.15460988582E+03  0.18121096558E+02  0.32743010379E+03  0.77524401575E+02 0.  0.
          5    1    3    3  501    0 -0.16437069488E+03 -0.49867379956E+01 -0.28569410551E+03  0.32967530210E+03  0.47000000000E+01 0. -1.
        -11    1    4    4    0    0 -0.13951538621E+03  0.90489543555E+02 -0.14709967121E+03  0.22201624659E+03  0.00000000000E+00 0.  1.
         12    1    4    4    0    0 -0.21900934517E+03  0.73467432925E+02 -0.31902532718E+03  0.39387779368E+03  0.00000000000E+00 0. -1.
         -5    1    5    5    0  502  0.24546462571E+03 -0.43603526663E+01  0.63937712051E+01  0.24563156447E+03  0.47000000000E+01 0.  1.
         11    1    6    6    0    0  0.11843756087E+03 -0.60903597399E+02 -0.30401600814E+02  0.13660512923E+03  0.00000000000E+00 0. -1.
        -12    1    6    6    0    0  0.15899323968E+03 -0.93706288419E+02  0.48522697372E+02  0.19082497455E+03  0.00000000000E+00 0.  1.
</event>
<event>
12    1  0.8684423E-002  0.2635634E+03  0.7818608E-02  0.1105108E+00
         21   -1    0    0  503  502  0.00000000000E+00  0.00000000000E+00  0.36510016970E+03  0.36510016970E+03  0.00000000000E+00 0.  1.
         21   -1    0    0  501  503 -0.00000000000E+00 -0.00000000000E+00 -0.22186819328E+03  0.22186819328E+03  0.00000000000E+00 0.  1.
          6    2    1    2  501    0 -0.46540133265E+02  0.19386542558E+03  0.18305797823E+03  0.32041300432E+03  0.17147735333E+03 0.  0.
         24    2    3    3    0    0 -0.89827723510E+02  0.90890811977E+02  0.10862824693E+03  0.18610194217E+03  0.80645379493E+02 0.  0.
         -6    2    1    2    0  502  0.46540133265E+02 -0.19386542558E+03 -0.39826001807E+02  0.26655535866E+03  0.17238289234E+03 0.  0.
        -24    2    5    5    0    0  0.91360571054E+02 -0.15906558796E+03 -0.54009547503E+02  0.20787688467E+03  0.81530072616E+02 0.  0.
          5    1    3    3  501    0  0.43287590245E+02  0.10297461360E+03  0.74429731301E+02  0.13431106215E+03  0.47000000000E+01 0. -1.
        -13    1    4    4    0    0 -0.72167833570E+02  0.10303962443E+03  0.10600553820E+03  0.16450694372E+03  0.00000000000E+00 0.  1.
         14    1    4    4    0    0 -0.17659889940E+02 -0.12148812449E+02  0.26227087308E+01  0.21594998442E+02  0.00000000000E+00 0. -1.
         -5    1    5    5    0  502 -0.44820437790E+02 -0.34799837617E+02  0.14183545696E+02  0.58678473994E+02  0.47000000000E+01 0.  1.
         13    1    6    6    0    0  0.55461665624E+02 -0.54545892608E+02 -0.58407781145E+02  0.97276511309E+02  0.00000000000E+00 0. -1.
        -14    1    6    6    0    0  0.35898905430E+02 -0.10451969535E+03  0.43982336426E+01  0.11060037336E+03  0.00000000000E+00 0.  1.
</event>
<event>
12    1  0.8684423E-002  0.2558560E+03  0.7818608E-02  0.1109777E+00
         21   -1    0    0  503  502  0.00000000000E+00  0.00000000000E+00  0.12815091334E+04  0.12815091334E+04  0.00000000000E+00 0.  1.
         21   -1    0    0  501  503 -0.00000000000E+00 -0.00000000000E+00 -0.61924211709E+02  0.61924211709E+02  0.00000000000E+00 0.  1.
          6    2    1    2  501    0  0.18616916793E+03 -0.33544524642E+02  0.32598793699E+03  0.41392924599E+03  0.17112887366E+03 0.  0.
         24    2    3    3    0    0  0.16479591757E+03 -0.41151437485E+02  0.16068994221E+03  0.24701550170E+03  0.79650896393E+02 0.  0.
         -6    2    1    2    0  502 -0.18616916793E+03  0.33544524642E+02  0.89359698468E+03  0.92950409910E+03  0.17227334382E+03 0.  0.
        -24    2    5    5    0    0 -0.13406702002E+03  0.65017823354E+02  0.43299290829E+03  0.46487154800E+03  0.80133727638E+02 0.  0.
          5    1    3    3  501    0  0.21373250360E+02  0.76069128429E+01  0.16529799479E+03  0.16691374429E+03  0.47000000000E+01 0. -1.
        -11    1    4    4    0    0  0.14729002554E+03 -0.52603945175E+01  0.12068745056E+03  0.19049274027E+03  0.00000000000E+00 0.  1.
         12    1    4    4    0    0  0.17505892036E+02 -0.35891042967E+02  0.40002491646E+02  0.56522761425E+02  0.00000000000E+00 0. -1.
         -5    1    5    5    0  502 -0.52102147913E+02 -0.31473298712E+02  0.46060407640E+03  0.46463255110E+03  0.47000000000E+01 0.  1.
         11    1    6    6    0    0 -0.82591300380E+02  0.56382049282E+02  0.36890187816E+03  0.38221571669E+03  0.00000000000E+00 0. -1.
        -12    1    6    6    0    0 -0.51475719641E+02  0.86357740712E+01  0.64091030130E+02  0.82655831310E+02  0.00000000000E+00 0.  1.
</event>
<event>
12    1  0.8684423E-002  0.1860115E+03  0.7818608E-02  0.1163921E+00
         21   -1    0    0  501  502  0.00000000000E+00  0.00000000000E+00  0.33993893405E+03  0.33993893405E+03  0.00000000000E+00 0.  1.
         21   -1    0    0  502  503 -0.00000000000E+00 -0.00000000000E+00 -0.15350536245E+03  0.15350536245E+03  0.00000000000E+00 0.  1.
         -6    2    1    2    0  503 -0.45663813047E+02  0.53118151843E+02 -0.56841076638E+02  0.18720444635E+03  0.16403619985E+03 0.  0.
        -24    2    3    3    0    0  0.28918903424E+02  0.23294233036E+02  0.45855111309E+00  0.88424969383E+02  0.80248617889E+02 0.  0.
          6    2    1    2  501    0  0.45663813047E+02 -0.53118151843E+02  0.24327464824E+03  0.30623985015E+03  0.17231822151E+03 0.  0.
         24    2    5    5    0    0  0.13418545327E+02  0.21231606778E+02  0.19430958195E+03  0.21143841759E+03  0.79493096000E+02 0.  0.
          5    1    5    5  501    0  0.32245267720E+02 -0.74349758621E+02  0.48965066290E+02  0.94801432553E+02  0.47000000000E+01 0. -1.
        -11    1    6    6    0    0  0.11709673522E+02 -0.22918486383E+02  0.13527135624E+03  0.13769790590E+03  0.00000000000E+00 0.  1.
         12    1    6    6    0    0  0.17088718048E+01  0.44150093161E+02  0.59038225714E+02  0.73740511690E+02  0.00000000000E+00 0. -1.
         -5    1    3    3    0  503 -0.74582716471E+02  0.29823918807E+02 -0.57299627751E+02  0.98779476966E+02  0.47000000000E+01 0.  1.
         13    1    4    4    0    0 -0.78554040085E+01 -0.19275920180E+02  0.20006483326E+02  0.28870882321E+02  0.00000000000E+00 0. -1.
        -14    1    4    4    0    0  0.36774307433E+02  0.42570153216E+02 -0.19547932213E+02  0.59554087062E+02  0.00000000000E+00 0.  1.
</event>
<event>
12    1  0.8684423E-002  0.2283946E+03  0.7818608E-02  0.1127965E+00
         21   -1    0    0  501  502  0.00000000000E+00  0.00000000000E+00  0.70492922531E+03  0.70492922531E+03  0.00000000000E+00 0.  1.
         21   -1    0    0  502  503 -0.00000000000E+00 -0.00000000000E+00 -0.76490976886E+02  0.76490976886E+02  0.00000000000E+00 0. -1.
         -6    2    1    2    0  503  0.14564969750E+03  0.32376675620E+02  0.23967971095E+03  0.33107469790E+03  0.17292197156E+03 0.  0.
        -24    2    3    3    0    0  0.11021081989E+03  0.36247584960E+02  0.67738000353E+02  0.15541326267E+03  0.78131512764E+02 0.  0.
          6    2    1    2  501    0 -0.14564969750E+03 -0.32376675620E+02  0.38875853748E+03  0.45034550429E+03  0.17151031826E+03 0.  0.
         24    2    5    5    0    0 -0.10681008329E+02 -0.43563245062E+02  0.15115208660E+03  0.17681195627E+03  0.80022961325E+02 0.  0.
          5    1    5    5  501    0 -0.13496868917E+03  0.11186569442E+02  0.23760645088E+03  0.27353354802E+03  0.47000000000E+01 0. -1.
        -13    1    6    6    0    0 -0.26551271100E+02 -0.47851851816E+02  0.15074118884E+03  0.16036731504E+03  0.00000000000E+00 0.  1.
         14    1    6    6    0    0  0.15870262771E+02  0.42886067542E+01  0.41089775326E+00  0.16444641233E+02  0.00000000000E+00 0. -1.
         -5    1    3    3    0  503  0.35438877610E+02 -0.38709093401E+01  0.17194171059E+03  0.17566143523E+03  0.47000000000E+01 0.  1.
         11    1    4    4    0    0  0.40956144630E+02 -0.22820330854E+02  0.11010771984E+02  0.48160257297E+02  0.00000000000E+00 0. -1.
        -12    1    4    4    0    0  0.69254675260E+02  0.59067915813E+02  0.56727228369E+02  0.10725300538E+03  0.00000000000E+00 0.  1.
</event>
<event>
12    1  0.8684423E-002  0.2216984E+03  0.7818608E-02  0.1132712E+00
         21   -1    0    0  503  502  0.00000000000E+00  0.00000000000E+00  0.62207262356E+02  0.62207262356E+02  0.00000000000E+00 0.  1.
         21   -1    0    0  501  503 -0.00000000000E+00 -0.00000000000E+00 -0.88807951848E+03  0.88807951848E+03  0.00000000000E+00 0. -1.
          6    2    1    2  501    0 -0.43004116206E+02  0.13182404051E+03 -0.57172784556E+03  0.61303380904E+03  0.17236818144E+03 0.  0.
         24    2    3    3    0    0  0.44345063562E+02  0.59408803939E+02 -0.25800949097E+03  0.27939457019E+03  0.77437315130E+02 0.  0.
         -6    2    1    2    0  502  0.43004116206E+02 -0.13182404051E+03 -0.25414441056E+03  0.33725297179E+03  0.17298339196E+03 0.  0.
        -24    2    5    5    0    0 -0.38579130497E+01 -0.29262946767E+02 -0.29601157815E+02  0.85943222498E+02  0.75091979617E+02 0.  0.
          5    1    3    3  501    0 -0.87349179768E+02  0.72415236572E+02 -0.31371835459E+03  0.33363923885E+03  0.47000000000E+01 0. -1.
        -13    1    4    4    0    0 -0.65357199593E+01  0.55123225925E+02 -0.11918700055E+03  0.13147937774E+03  0.00000000000E+00 0.  1.
         14    1    4    4    0    0  0.50880783521E+02  0.42855780137E+01 -0.13882249042E+03  0.14791519244E+03  0.00000000000E+00 0. -1.
         -5    1    5    5    0  502  0.46862029255E+02 -0.10256109374E+03 -0.22454325275E+03  0.25130974929E+03  0.47000000000E+01 0.  1.
         13    1    6    6    0    0  0.96545623426E+01  0.22514946877E+02 -0.19893815707E+02  0.31557840710E+02  0.00000000000E+00 0. -1.
        -14    1    6    6    0    0 -0.13512475392E+02 -0.51777893644E+02 -0.97073421087E+01  0.54385381788E+02  0.00000000000E+00 0.  1.
</event>
<event>
12    1  0.8684423E-002  0.1762807E+03  0.7818608E-02  0.1171804E+00
         21   -1    0    0  501  502  0.00000000000E+00  0.00000000000E+00  0.10714160819E+04  0.10714160819E+04  0.00000000000E+00 0. -1.
         21   -1    0    0  502  503 -0.00000000000E+00 -0.00000000000E+00 -0.68502652413E+02  0.68502652413E+02  0.00000000000E+00 0. -1.
         -6    2    1    2    0  503 -0.17327173950E+02 -0.24419377638E+02  0.68240435042E+02  0.18902819311E+03  0.17371920980E+03 0.  0.
        -24    2    3    3    0    0 -0.17300771681E+02  0.22979143270E+02  0.10051625030E+03  0.13149178088E+03  0.79744680949E+02 0.  0.
          6    2    1    2  501    0  0.17327173950E+02  0.24419377638E+02  0.93467299440E+03  0.95089054116E+03  0.17228661538E+03 0.  0.
         24    2    5    5    0    0 -0.88948424670E+01  0.24473559390E+02  0.29939477640E+03  0.31505400450E+03  0.94571244494E+02 0.  0.
          5    1    5    5  501    0  0.26222016417E+02 -0.54181752418E-01  0.63527821800E+03  0.63583653666E+03  0.47000000000E+01 0. -1.
        -13    1    6    6    0    0  0.10585786553E+02  0.24022840400E+02  0.29353443698E+03  0.29470599151E+03  0.00000000000E+00 0.  1.
         14    1    6    6    0    0 -0.19480629020E+02  0.45071899018E+00  0.58603394194E+01  0.20348012993E+02  0.00000000000E+00 0. -1.
         -5    1    3    3    0  503 -0.26402268735E-01 -0.47398520908E+02 -0.32275815257E+02  0.57536412226E+02  0.47000000000E+01 0.  1.
         11    1    4    4    0    0  0.23346823767E+02  0.30086350730E+02  0.25363011117E+02  0.45755273064E+02  0.00000000000E+00 0. -1.
        -12    1    4    4    0    0 -0.40647595448E+02 -0.71072074598E+01  0.75153239182E+02  0.85736507820E+02  0.00000000000E+00 0.  1.
</event>
<event>
12    1  0.8684423E-002  0.1934415E+03  0.7818608E-02  0.1155406E+00
         21   -1    0    0  501  502  0.00000000000E+00  0.00000000000E+00  0.38847241466E+03  0.38847241466E+03  0.00000000000E+00 0. -1.
         21   -1    0    0  502  503 -0.00000000000E+00 -0.00000000000E+00 -0.11486834660E+03  0.11486834660E+03  0.00000000000E+00 0.  1.
         -6    2    1    2    0  503 -0.82068213264E+02  0.28851699448E+02  0.35622355767E+02  0.19669408584E+03  0.17277731039E+03 0.  0.
        -24    2    3    3    0    0 -0.12205448173E+03  0.67640857994E+01  0.39298318155E+02  0.15062493084E+03  0.78743016285E+02 0.  0.
          6    2    1    2  501    0  0.82068213264E+02 -0.28851699448E+02  0.23798171229E+03  0.30664667543E+03  0.17271153978E+03 0.  0.
         24    2    5    5    0    0  0.99891701432E+02 -0.39772599825E+02  0.10082229648E+03  0.16782398945E+03  0.80246770998E+02 0.  0.
          5    1    5    5  501    0 -0.17823488168E+02  0.10920900377E+02  0.13715941581E+03  0.13882268597E+03  0.47000000000E+01 0. -1.
        -13    1    6    6    0    0  0.43672532283E+02 -0.59421479176E+02  0.46248516614E+02  0.87046697539E+02  0.00000000000E+00 0.  1.
         14    1    6    6    0    0  0.56219169148E+02  0.19648879351E+02  0.54573779870E+02  0.80777291913E+02  0.00000000000E+00 0. -1.
         -5    1    3    3    0  503  0.39986268468E+02  0.22087613649E+02 -0.36759623882E+01  0.46069154997E+02  0.47000000000E+01 0.  1.
         13    1    4    4    0    0 -0.68123540466E+02  0.48910355247E+01  0.61846858283E+02  0.92139963499E+02  0.00000000000E+00 0. -1.
        -14    1    4    4    0    0 -0.53930941266E+02  0.18730502747E+01 -0.22548540127E+02  0.58484967343E+02  0.00000000000E+00 0.  1.
</event>
<event>
12    1  0.8684423E-002  0.2597866E+03  0.7818608E-02  0.1107960E+00
         21   -1    0    0  503  502  0.00000000000E+00  0.00000000000E+00  0.82723225601E+02  0.82723225601E+02  0.00000000000E+00 0. -1.
         21   -1    0    0  501  503 -0.00000000000E+00 -0.00000000000E+00 -0.10505067449E+04  0.10505067449E+04  0.00000000000E+00 0. -1.
          6    2    1    2  501    0 -0.20321138534E+02 -0.18815789779E+03 -0.75640953874E+03  0.79831502994E+03  0.17127508156E+03 0.  0.
         24    2    3    3    0    0 -0.35199342454E+02 -0.53671715516E+02 -0.47764985790E+03  0.48841675012E+03  0.79258364169E+02 0.  0.
         -6    2    1    2    0  502  0.20321138534E+02  0.18815789779E+03 -0.21137398058E+03  0.33491494058E+03  0.17796829657E+03 0.  0.
        -24    2    5    5    0    0 -0.62680960788E+02  0.76343725388E+02 -0.90845620013E+02  0.15068428802E+03  0.68524161646E+02 0.  0.
          5    1    3    3  501    0  0.14878203920E+02 -0.13448618227E+03 -0.27875968084E+03  0.30989827982E+03  0.47000000000E+01 0. -1.
        -11    1    4    4    0    0 -0.27823940569E+02 -0.39398349640E+01 -0.46400500087E+02  0.54246662354E+02  0.00000000000E+00 0.  1.
         12    1    4    4    0    0 -0.73754018851E+01 -0.49731880552E+02 -0.43124935781E+03  0.43417008777E+03  0.00000000000E+00 0. -1.
         -5    1    5    5    0  502  0.83002099322E+02  0.11181417240E+03 -0.12052836057E+03  0.18423065256E+03  0.47000000000E+01 0.  1.
         11    1    6    6    0    0  0.85351632548E+00  0.21120075444E+02  0.63806311989E+01  0.22079368908E+02  0.00000000000E+00 0. -1.
        -12    1    6    6    0    0 -0.63534477113E+02  0.55223649944E+02 -0.97226251211E+02  0.12860491911E+03  0.00000000000E+00 0.  1.
</event>
<event>
12    1  0.8684423E-002  0.1788594E+03  0.7818608E-02  0.1169042E+00
         21   -1    0    0  501  502  0.00000000000E+00  0.00000000000E+00  0.12467520003E+03  0.12467520003E+03  0.00000000000E+00 0.  1.
         21   -1    0    0  502  503 -0.00000000000E+00 -0.00000000000E+00 -0.26053530301E+03  0.26053530301E+03  0.00000000000E+00 0. -1.
         -6    2    1    2    0  503  0.49171624289E+02  0.12399742317E+02 -0.41943901347E+02  0.18319332067E+03  0.17096461515E+03 0.  0.
        -24    2    3    3    0    0 -0.12495239166E+02 -0.31356806703E+02 -0.59617395228E+02  0.10539949048E+03  0.80096432200E+02 0.  0.
          6    2    1    2  501    0 -0.49171624289E+02 -0.12399742317E+02 -0.93916201628E+02  0.20201718236E+03  0.17151993120E+03 0.  0.
         24    2    5    5    0    0 -0.22103424809E+02  0.55332460742E+02 -0.82772859830E+02  0.12808070408E+03  0.77479531707E+02 0.  0.
          5    1    5    5  501    0 -0.27068199480E+02 -0.67732203059E+02 -0.11143341798E+02  0.73936478282E+02  0.47000000000E+01 0. -1.
        -13    1    6    6    0    0  0.39892220497E+00 -0.11665106271E+02  0.71653016447E+01  0.13695816547E+02  0.00000000000E+00 0.  1.
         14    1    6    6    0    0 -0.22502347014E+02  0.66997567013E+02 -0.89938161475E+02  0.11438488753E+03  0.00000000000E+00 0. -1.
         -5    1    3    3    0  503  0.61666863455E+02  0.43756549020E+02  0.17673493881E+02  0.77793830195E+02  0.47000000000E+01 0.  1.
         11    1    4    4    0    0 -0.45188393160E+02 -0.28398925246E+02 -0.30216332181E+02  0.61331203820E+02  0.00000000000E+00 0. -1.
        -12    1    4    4    0    0  0.32693153994E+02 -0.29578814565E+01 -0.29401063047E+02  0.44068286660E+02  0.00000000000E+00 0.  1.
</event>
<event>
12    1  0.8684423E-002  0.2302706E+03  0.7818608E-02  0.1126646E+00
         21   -1    0    0  503  502  0.00000000000E+00  0.00000000000E+00  0.15267946812E+04  0.15267946812E+04  0.00000000000E+00 0. -1.
         21   -1    0    0  501  503 -0.00000000000E+00 -0.00000000000E+00 -0.19724006897E+03  0.19724006897E+03  0.00000000000E+00 0. -1.
          6    2    1    2  501    0  0.59068947785E+02 -0.14140855819E+03 -0.11836563731E+03  0.25791824949E+03  0.17036982831E+03 0.  0.
         24    2    3    3    0    0  0.66822184287E+02 -0.20499544120E+02 -0.68232575753E+02  0.12671414810E+03  0.80717750909E+02 0.  0.
         -6    2    1    2    0  502 -0.59068947785E+02  0.14140855819E+03  0.14479202495E+04  0.14661165007E+04  0.17186920493E+03 0.  0.
        -24    2    5    5    0    0 -0.60210067576E+01  0.15650162340E+03  0.10687172655E+04  0.10828947923E+04  0.77301532744E+02 0.  0.
          5    1    3    3  501    0 -0.77532365023E+01 -0.12090901407E+03 -0.50133061561E+02  0.13120410139E+03  0.47000000000E+01 0. -1.
        -13    1    4    4    0    0 -0.96206237134E+01 -0.27664895754E+02 -0.12525888660E+02  0.31855937350E+02  0.00000000000E+00 0.  1.
         14    1    4    4    0    0  0.76442808001E+02  0.71653516339E+01 -0.55706687094E+02  0.94858210747E+02  0.00000000000E+00 0. -1.
         -5    1    5    5    0  502 -0.53047941027E+02 -0.15093065208E+02  0.37920298407E+03  0.38322170840E+03  0.47000000000E+01 0.  1.
         11    1    6    6    0    0 -0.35595263209E+02  0.13048831841E+03  0.83304937352E+03  0.84395822333E+03  0.00000000000E+00 0. -1.
        -12    1    6    6    0    0  0.29574256451E+02  0.26013304994E+02  0.23566789194E+03  0.23893656894E+03  0.00000000000E+00 0.  1.
</event>
<event>
12    1  0.8684423E-002  0.1763026E+03  0.7818608E-02  0.1172065E+00
         21   -1    0    0  501  502  0.00000000000E+00  0.00000000000E+00  0.70246079527E+03  0.70246079527E+03  0.00000000000E+00 0.  1.
         21   -1    0    0  502  503 -0.00000000000E+00 -0.00000000000E+00 -0.10671786104E+03  0.10671786104E+03  0.00000000000E+00 0.  1.
         -6    2    1    2    0  503  0.24412094073E+02  0.20716469969E+02 -0.14122724669E+02  0.17434110834E+03  0.17079299822E+03 0.  0.
        -24    2    3    3    0    0 -0.37705565558E+02  0.51726034990E+02 -0.21029367066E+02  0.10441265584E+03  0.79765130540E+02 0.  0.
          6    2    1    2  501    0 -0.24412094073E+02 -0.20716469969E+02  0.60986565890E+03  0.63483754797E+03  0.17337089703E+03 0.  0.
         24    2    5    5    0    0  0.44240331201E+02 -0.45971902901E+02  0.34655877998E+03  0.36151796419E+03  0.80756595340E+02 0.  0.
          5    1    5    5  501    0 -0.68652425274E+02  0.25255432932E+02  0.26330687892E+03  0.27331958377E+03  0.47000000000E+01 0. -1.
        -13    1    6    6    0    0 -0.21601942383E+02 -0.23850868997E+02  0.84800413687E+02  0.90700705776E+02  0.00000000000E+00 0.  1.
         14    1    6    6    0    0  0.65842273584E+02 -0.22121033904E+02  0.26175836630E+03  0.27081725842E+03  0.00000000000E+00 0. -1.
         -5    1    3    3    0  503  0.62117659631E+02 -0.31009565021E+02  0.69066423969E+01  0.69928452507E+02  0.47000000000E+01 0.  1.
         13    1    4    4    0    0  0.56979222385E+01 -0.12097519569E+02  0.14255830903E+02  0.19545971767E+02  0.00000000000E+00 0. -1.
        -14    1    4    4    0    0 -0.43403487796E+02  0.63823554559E+02 -0.35285197969E+02  0.84866684071E+02  0.00000000000E+00 0.  1.
</event>
<event>
12    1  0.8684423E-002  0.2213513E+03  0.7818608E-02  0.1134862E+00
         21   -1    0    0  501  502  0.00000000000E+00  0.00000000000E+00  0.37227122545E+03  0.37227122545E+03  0.00000000000E+00 0. -1.
         21   -1    0    0  502  503 -0.00000000000E+00 -0.00000000000E+00 -0.15358941329E+03  0.15358941329E+03  0.00000000000E+00 0. -1.
         -6    2    1    2    0  503  0.96615998684E+02 -0.74622167921E+02 -0.96478702111E+00  0.22135340455E+03  0.18464365612E+03 0.  0.
        -24    2    3    3    0    0  0.46621509714E+02 -0.88533677166E+02 -0.61117828438E+02  0.14177038244E+03  0.79697397848E+02 0.  0.
          6    2    1    2  501    0 -0.96615998684E+02  0.74622167921E+02  0.21964659918E+03  0.30450723418E+03  0.17197938246E+03 0.  0.
         24    2    5    5    0    0 -0.13383711932E+03  0.70154539026E+02  0.15913567098E+03  0.23316976884E+03  0.78803207248E+02 0.  0.
          5    1    5    5  501    0  0.37221120634E+02  0.44676288955E+01  0.60510928201E+02  0.71337465339E+02  0.47000000000E+01 0. -1.
        -13    1    6    6    0    0 -0.12407689479E+03  0.39846273588E+02  0.94045695669E+02  0.16070903588E+03  0.00000000000E+00 0.  1.
         14    1    6    6    0    0 -0.97602245325E+01  0.30308265437E+02  0.65089975307E+02  0.72460732967E+02  0.00000000000E+00 0. -1.
         -5    1    3    3    0  503  0.49994488970E+02  0.13911509245E+02  0.60153041417E+02  0.79583022112E+02  0.47000000000E+01 0.  1.
         11    1    4    4    0    0  0.27043186939E+02 -0.16124070274E+02 -0.58830333895E+02  0.66725765550E+02  0.00000000000E+00 0. -1.
        -12    1    4    4    0    0  0.19578322775E+02 -0.72409606892E+02 -0.22874945422E+01  0.75044616890E+02  0.00000000000E+00 0.  1.
</event>
<event>
12    1  0.8684423E-002  0.1981698E+03  0.7818608E-02  0.1151344E+00
         21   -1    0    0  503  502  0.00000000000E+00  0.00000000000E+00  0.20658644595E+03  0.20658644595E+03  0.00000000000E+00 0. -1.
         21   -1    0    0  501  503 -0.00000000000E+00 -0.00000000000E+00 -0.19448993611E+03  0.19448993611E+03  0.00000000000E+00 0. -1.
          6    2    1    2  501    0  0.59583445474E+01 -0.98694531501E+02  0.36972548741E+02  0.20135133432E+03  0.17146217674E+03 0.  0.
         24    2    3    3    0    0  0.65407877938E+01 -0.78783706686E+01  0.66527939913E+02  0.10572955094E+03  0.81534781069E+02 0.  0.
         -6    2    1    2    0  502 -0.59583445474E+01  0.98694531501E+02 -0.24876038908E+02  0.19972504774E+03  0.17174156447E+03 0.  0.
        -24    2    5    5    0    0 -0.29042255691E+01  0.10858253615E+03 -0.71147238077E+02  0.15207828341E+03  0.79166110916E+02 0.  0.
          5    1    3    3  501    0 -0.58244324640E+00 -0.90816160833E+02 -0.29555391172E+02  0.95621783375E+02  0.47000000000E+01 0. -1.
        -13    1    4    4    0    0 -0.20755418585E+02 -0.30300964041E+02  0.83471711110E+01  0.37664453905E+02  0.00000000000E+00 0.  1.
         14    1    4    4    0    0  0.27296206378E+02  0.22422593372E+02  0.58180768802E+02  0.68065097036E+02  0.00000000000E+00 0. -1.
         -5    1    5    5    0  502 -0.30541189783E+01 -0.98880046467E+01  0.46271199168E+02  0.47646764330E+02  0.47000000000E+01 0.  1.
         11    1    6    6    0    0  0.16840147794E+02  0.10836239506E+01 -0.31642277961E+02  0.35860822260E+02  0.00000000000E+00 0. -1.
        -12    1    6    6    0    0 -0.19744373363E+02  0.10749891220E+03 -0.39504960115E+02  0.11621746115E+03  0.00000000000E+00 0.  1.
</event>
<event>
12    1  0.8684423E-002  0.2394756E+03  0.7818608E-02  0.1120282E+00
         21   -1    0    0  501  502  0.00000000000E+00  0.00000000000E+00  0.21335354348E+02  0.21335354348E+02  0.00000000000E+00 0. -1.
         21   -1    0    0  502  503 -0.00000000000E+00 -0.00000000000E+00 -0.29906841711E+04  0.29906841711E+04  0.00000000000E+00 0. -1.
         -6    2    1    2    0  503 -0.83817802269E+02 -0.14335755277E+03 -0.99590496968E+03  0.10240987024E+04  0.17139029069E+03 0.  0.
        -24    2    3    3    0    0 -0.23312920136E+02 -0.58352112657E+02 -0.23121345261E+03  0.25230729803E+03  0.79062321447E+02 0.  0.
          6    2    1    2  501    0  0.83817802269E+02  0.14335755277E+03 -0.19734438470E+04  0.19879208230E+04  0.17254497729E+03 0.  0.
         24    2    5    5    0    0  0.11977541699E+03  0.95735620584E+02 -0.16476862587E+04  0.16567095689E+04  0.79404842526E+02 0.  0.
          5    1    5    5  501    0 -0.35957614718E+02  0.47621932186E+02 -0.32575758833E+03  0.33121125409E+03  0.47000000000E+01 0. -1.
        -13    1    6    6    0    0  0.69473920615E+02  0.44211568665E+02 -0.49730533390E+03  0.50407725953E+03  0.00000000000E+00 0.  1.
         14    1    6    6    0    0  0.50301496371E+02  0.51524051919E+02 -0.11503809248E+04  0.11526323094E+04  0.00000000000E+00 0. -1.
         -5    1    3    3    0  503 -0.60504882132E+02 -0.85005440113E+02 -0.76469151707E+03  0.77179140439E+03  0.47000000000E+01 0.  1.
         11    1    4    4    0    0 -0.10490666765E+02 -0.58102211097E+02 -0.23206159120E+03  0.23945459514E+03  0.00000000000E+00 0. -1.
        -12    1    4    4    0    0 -0.12822253371E+02 -0.24990155959E+00  0.84813859357E+00  0.12852702882E+02  0.00000000000E+00 0.  1.
</event>
<event>
12    1  0.8684423E-002  0.2207596E+03  0.7818608E-02  0.1133333E+00
         21   -1    0    0  503  502  0.00000000000E+00  0.00000000000E+00  0.14998151279E+03  0.14998151279E+03  0.00000000000E+00 0. -1.
         21   -1    0    0  501  503 -0.00000000000E+00 -0.00000000000E+00 -0.34399314357E+03  0.34399314357E+03  0.00000000000E+00 0. -1.
          6    2    1    2  501    0  0.84202560912E+02  0.10949113008E+03 -0.15533248072E+03  0.26993142338E+03  0.17221037985E+03 0.  0.
         24    2    3    3    0    0  0.54876597595E+02  0.14168788748E+03 -0.14572531205E+03  0.22508690307E+03  0.79632587169E+02 0.  0.
         -6    2    1    2    0  502 -0.84202560912E+02 -0.10949113008E+03 -0.38679150058E+02  0.22404323299E+03  0.17210727692E+03 0.  0.
        -24    2    5    5    0    0 -0.79900123247E+01  0.10129890741E+02 -0.25433426382E+02  0.81512252562E+02  0.76360547123E+02 0.  0.
          5    1    3    3  501    0  0.29325963317E+02 -0.32196757398E+02 -0.96071686696E+01  0.44844520304E+02  0.47000000000E+01 0. -1.
        -11    1    4    4    0    0  0.29648795099E+02  0.37364674962E+01 -0.15299672578E+02  0.33572194166E+02  0.00000000000E+00 0.  1.
         12    1    4    4    0    0  0.25227802496E+02  0.13795141999E+03 -0.13042563948E+03  0.19151470891E+03  0.00000000000E+00 0. -1.
         -5    1    5    5    0  502 -0.76212548587E+02 -0.11962102083E+03 -0.13245723676E+02  0.14253098043E+03  0.47000000000E+01 0.  1.
         13    1    6    6    0    0  0.72728884505E+01 -0.43508015844E+01  0.25250639824E+02  0.26634924298E+02  0.00000000000E+00 0. -1.
        -14    1    6    6    0    0 -0.15262900775E+02  0.14480692326E+02 -0.50684066205E+02  0.54877328264E+02  0.00000000000E+00 0.  1.
</event>
<event>
12    1  0.8684423E-002  0.2034556E+03  0.7818608E-02  0.1147652E+00
         21   -1    0    0  501  502  0.00000000000E+00  0.00000000000E+00  0.52296379792E+02  0.52296379792E+02  0.00000000000E+00 0.  1.
         21   -1    0    0  502  503 -0.00000000000E+00 -0.00000000000E+00 -0.15331183366E+04  0.15331183366E+04  0.00000000000E+00 0.  1.
         -6    2    1    2    0  503  0.83939014300E+02 -0.55104149137E+02 -0.12936376662E+04  0.13089510979E+04  0.17254663181E+03 0.  0.
        -24    2    3    3    0    0  0.11918459784E+03 -0.67337185188E+02 -0.96008214753E+03  0.97328270156E+03  0.82354248667E+02 0.  0.
          6    2    1    2  501    0 -0.83939014300E+02  0.55104149137E+02 -0.18718429068E+03  0.27646361847E+03  0.17695182476E+03 0.  0.
         24    2    5    5    0    0 -0.78615124353E+02  0.10387876072E+03 -0.15424603579E+03  0.21718187445E+03  0.80031195956E+02 0.  0.
          5    1    5    5  501    0 -0.53238899469E+01 -0.48774611582E+02 -0.32938254885E+02  0.59281744020E+02  0.47000000000E+01 0. -1.
        -13    1    6    6    0    0  0.68192593631E+01  0.23451810487E+02 -0.13611367768E+01  0.24461038545E+02  0.00000000000E+00 0.  1.
         14    1    6    6    0    0 -0.85434383716E+02  0.80426950232E+02 -0.15288489902E+03  0.19272083590E+03  0.00000000000E+00 0. -1.
         -5    1    3    3    0  503 -0.35245583538E+02  0.12233036051E+02 -0.33355551863E+03  0.33566839639E+03  0.47000000000E+01 0.  1.
         13    1    4    4    0    0  0.25847824202E+01 -0.38204413229E+02 -0.18317711775E+03  0.18713662057E+03  0.00000000000E+00 0. -1.
        -14    1    4    4    0    0  0.11659981542E+03 -0.29132771959E+02 -0.77690502977E+03  0.78614608098E+03  0.00000000000E+00 0.  1.
</event>
<event>
12    1  0.8684423E-002  0.2020379E+03  0.7818608E-02  0.1148178E+00
         21   -1    0    0  503  502  0.00000000000E+00  0.00000000000E+00  0.10014301052E+04  0.10014301052E+04  0.00000000000E+00 0.  1.
         21   -1    0    0  501  503 -0.00000000000E+00 -0.00000000000E+00 -0.50895451345E+02  0.50895451345E+02  0.00000000000E+00 0.  1.
          6    2    1    2  501    0 -0.40360243966E+02  0.97995866624E+02  0.23817102293E+03  0.31186540127E+03  0.17117959335E+03 0.  0.
         24    2    3    3    0    0 -0.18734416292E+02  0.70737328550E+01  0.39744695809E+02  0.92480788943E+02  0.81068115978E+02 0.  0.
         -6    2    1    2    0  502  0.40360243966E+02 -0.97995866624E+02  0.71236363096E+03  0.74046015531E+03  0.17200918498E+03 0.  0.
        -24    2    5    5    0    0  0.15989835670E+02 -0.13454352843E+03  0.52045457878E+03  0.54353168430E+03  0.78715229671E+02 0.  0.
          5    1    3    3  501    0 -0.21625827673E+02  0.90922133769E+02  0.19842632712E+03  0.21938461232E+03  0.47000000000E+01 0. -1.
        -13    1    4    4    0    0 -0.43575235306E+02  0.16253517794E+02  0.45844513068E+02  0.65304650302E+02  0.00000000000E+00 0.  1.
         14    1    4    4    0    0  0.24840819014E+02 -0.91797849391E+01 -0.60998172589E+01  0.27176138641E+02  0.00000000000E+00 0. -1.
         -5    1    5    5    0  502  0.24370408295E+02  0.36547661804E+02  0.19190905218E+03  0.19692847101E+03  0.47000000000E+01 0.  1.
         13    1    6    6    0    0 -0.19843433742E+02 -0.43365368370E+01  0.47183911883E+02  0.51370117335E+02  0.00000000000E+00 0. -1.
        -14    1    6    6    0    0  0.35833269412E+02 -0.13020699159E+03  0.47327066690E+03  0.49216156697E+03  0.00000000000E+00 0.  1.
</event>
<event>
12    1  0.8684423E-002  0.2093178E+03  0.7818608E-02  0.1142825E+00
         21   -1    0    0  501  502  0.00000000000E+00  0.00000000000E+00  0.28594476130E+03  0.28594476130E+03  0.00000000000E+00 0. -1.
         21   -1    0    0  502  503 -0.00000000000E+00 -0.00000000000E+00 -0.24105244469E+03  0.24105244469E+03  0.00000000000E+00 0. -1.
         -6    2    1    2    0  503 -0.10781509326E+03 -0.29336504019E+02 -0.13906562500E+03  0.24833169881E+03  0.17275607015E+03 0.  0.
        -24    2    3    3    0    0 -0.19589909030E+02 -0.64856238609E+02 -0.99780136173E+02  0.14532308601E+03  0.81071743112E+02 0.  0.
          6    2    1    2  501    0  0.10781509326E+03  0.29336504019E+02  0.18395794160E+03  0.27866550719E+03  0.17700060964E+03 0.  0.
         24    2    5    5    0    0  0.16914284743E+02 -0.37274742629E+02  0.63459563194E+02  0.11361410801E+03  0.84885510612E+02 0.  0.
          5    1    5    5  501    0  0.90900808521E+02  0.66611246648E+02  0.12049837841E+03  0.16505139917E+03  0.47000000000E+01 0. -1.
        -11    1    6    6    0    0  0.51173485150E+01 -0.25785918948E+02 -0.17118231264E+02  0.31370921463E+02  0.00000000000E+00 0.  1.
         12    1    6    6    0    0  0.11796936228E+02 -0.11488823681E+02  0.80577794458E+02  0.82243186548E+02  0.00000000000E+00 0. -1.
         -5    1    3    3    0  503 -0.88225184234E+02  0.35519734590E+02 -0.39285488822E+02  0.10300861280E+03  0.47000000000E+01 0.  1.
         13    1    4    4    0    0  0.21717382034E+02 -0.81040476942E+01 -0.60719184696E+02  0.64993381675E+02  0.00000000000E+00 0. -1.
        -14    1    4    4    0    0 -0.41307291064E+02 -0.56752190915E+02 -0.39060951477E+02  0.80329704338E+02  0.00000000000E+00 0.  1.
</event>
<event>
12    1  0.8684423E-002  0.1948708E+03  0.7818608E-02  0.1154974E+00
         21   -1    0    0  501  502  0.00000000000E+00  0.00000000000E+00  0.13481382881E+04  0.13481382881E+04  0.00000000000E+00 0.  1.
         21   -1    0    0  502  503 -0.00000000000E+00 -0.00000000000E+00 -0.32746952987E+02  0.32746952987E+02  0.00000000000E+00 0. -1.
         -6    2    1    2    0  503  0.94883503396E+01  0.93292418382E+02  0.93621569992E+03  0.95628157541E+03  0.17082479494E+03 0.  0.
        -24    2    3    3    0    0  0.29801111648E+02  0.84061386365E+02  0.91976871948E+03  0.92816728385E+03  0.86980380239E+02 0.  0.
          6    2    1    2  501    0 -0.94883503396E+01 -0.93292418382E+02  0.37917563515E+03  0.42460366563E+03  0.16649506437E+03 0.  0.
         24    2    5    5    0    0  0.48276016489E+02 -0.25217982114E+02  0.15093925980E+03  0.17948168787E+03  0.80402087933E+02 0.  0.
          5    1    5    5  501    0 -0.57764366829E+02 -0.68074436267E+02  0.22823637535E+03  0.24512197776E+03  0.47000000000E+01 0. -1.
        -13    1    6    6    0    0 -0.18833935372E+02  0.92518553380E+01  0.24635548535E+02  0.32360843629E+02  0.00000000000E+00 0.  1.
         14    1    6    6    0    0  0.67109951861E+02 -0.34469837452E+02  0.12630371126E+03  0.14712084425E+03  0.00000000000E+00 0. -1.
         -5    1    3    3    0  503 -0.20312761309E+02  0.92310320165E+01  0.16446980441E+02  0.28114291556E+02  0.47000000000E+01 0.  1.
         11    1    4    4    0    0  0.48486586226E+02  0.92126553929E+02  0.78388339129E+03  0.79076635115E+03  0.00000000000E+00 0. -1.
        -12    1    4    4    0    0 -0.18685474578E+02 -0.80651675637E+01  0.13588532819E+03  0.13740093270E+03  0.00000000000E+00 0.  1.
</event>
<event>
12    1  0.8684423E-002  0.1840949E+03  0.7818608E-02  0.1164362E+00
         21   -1    0    0  503  502  0.00000000000E+00  0.00000000000E+00  0.44366741522E+03  0.44366741522E+03  0.00000000000E+00 0. -1.
         21   -1    0    0  501  503 -0.00000000000E+00 -0.00000000000E+00 -0.42133803666E+03  0.42133803666E+03  0.00000000000E+00 0. -1.
          6    2    1    2  501    0  0.34333879106E+02  0.52393877019E+02 -0.38062203359E+03  0.42280498044E+03  0.17310974966E+03 0.  0.
         24    2    3    3    0    0 -0.85001693916E+00  0.89410236001E+02 -0.19024057116E+03  0.22563675630E+03  0.82009499739E+02 0.  0.
         -6    2    1    2    0  502 -0.34333879106E+02 -0.52393877019E+02  0.40295141215E+03  0.44220047144E+03  0.17101895446E+03 0.  0.
        -24    2    5    5    0    0 -0.82651615746E+02 -0.65129383927E+02  0.30581009924E+03  0.33286007870E+03  0.78758421524E+02 0.  0.
          5    1    3    3  501    0  0.35183896046E+02 -0.37016358982E+02 -0.19038146243E+03  0.19716822414E+03  0.47000000000E+01 0. -1.
        -13    1    4    4    0    0 -0.19685158159E+02 -0.83766375751E+01 -0.27445255438E+02  0.34798211949E+02  0.00000000000E+00 0.  1.
         14    1    4    4    0    0  0.18835141220E+02  0.97786873576E+02 -0.16279531572E+03  0.19083854435E+03  0.00000000000E+00 0. -1.
         -5    1    5    5    0  502  0.48317736640E+02  0.12735506908E+02  0.97141312918E+02  0.10934039274E+03  0.47000000000E+01 0.  1.
         11    1    6    6    0    0  0.19118889973E+01 -0.50774850544E+00  0.10981757672E+03  0.10983539177E+03  0.00000000000E+00 0. -1.
        -12    1    6    6    0    0 -0.84563504743E+02 -0.64621635422E+02  0.19599252252E+03  0.22302468693E+03  0.00000000000E+00 0.  1.
</event>
<event>
12    1  0.8684423E-002  0.2685841E+03  0.7818608E-02  0.1102145E+00
         21   -1    0    0  501  502  0.00000000000E+00  0.00000000000E+00  0.30664322440E+02  0.30664322440E+02  0.00000000000E+00 0. -1.
         21   -1    0    0  502  503 -0.00000000000E+00 -0.00000000000E+00 -0.23883526732E+04  0.23883526732E+04  0.00000000000E+00 0. -1.
         -6    2    1    2    0  503  0.13956147520E+03 -0.15169507886E+03 -0.13342522556E+04  0.13610167066E+04  0.17218766449E+03 0.  0.
        -24    2    3    3    0    0  0.12059622161E+03 -0.16373855797E+03 -0.90064845861E+03  0.92680584886E+03  0.80297393761E+02 0.  0.
          6    2    1    2  501    0 -0.13956147520E+03  0.15169507886E+03 -0.10234360952E+04  0.10580002890E+04  0.17162275021E+03 0.  0.
         24    2    5    5    0    0 -0.11962430312E+03  0.10571668813E+03 -0.96265036668E+03  0.97907945508E+03  0.80092813889E+02 0.  0.
          5    1    5    5  501    0 -0.19937172080E+02  0.45978390731E+02 -0.60785728493E+02  0.78920833962E+02  0.47000000000E+01 0. -1.
        -13    1    6    6    0    0  0.90528554031E+01 -0.20314289111E+01 -0.28495804850E+02  0.29968179598E+02  0.00000000000E+00 0.  1.
         14    1    6    6    0    0 -0.12867715852E+03  0.10774811704E+03 -0.93415456183E+03  0.94911127548E+03  0.00000000000E+00 0. -1.
         -5    1    3    3    0  503  0.18965253594E+02  0.12043479110E+02 -0.43360379698E+03  0.43421085775E+03  0.47000000000E+01 0.  1.
         11    1    4    4    0    0  0.12406399620E+03 -0.16856117548E+03 -0.83276793083E+03  0.85866592552E+03  0.00000000000E+00 0. -1.
        -12    1    4    4    0    0 -0.34677745935E+01  0.48226175119E+01 -0.67880527780E+02  0.68139923334E+02  0.00000000000E+00 0.  1.
</event>
<event>
12    1  0.8684423E-002  0.1751004E+03  0.7818608E-02  0.1172655E+00
         21   -1    0    0  503  502  0.00000000000E+00  0.00000000000E+00  0.92024536107E+03  0.92024536107E+03  0.00000000000E+00 0.  1.
         21   -1    0    0  501  503 -0.00000000000E+00 -0.00000000000E+00 -0.51321224765E+02  0.51321224765E+02  0.00000000000E+00 0.  1.
          6    2    1    2  501    0 -0.28383953420E+02 -0.64473108644E+01  0.14666965527E+03  0.22841217849E+03  0.17266417949E+03 0.  0.
         24    2    3    3    0    0  0.47615565178E+02  0.18196145607E+02  0.82691648078E+02  0.12594997972E+03  0.80169489002E+02 0.  0.
         -6    2    1    2    0  502  0.28383953420E+02  0.64473108644E+01  0.72225448104E+03  0.74315440734E+03  0.17256801889E+03 0.  0.
        -24    2    5    5    0    0 -0.33178332831E+02  0.46013848178E+02  0.48882671021E+03  0.49847903024E+03  0.79446302540E+02 0.  0.
          5    1    3    3  501    0 -0.75999518598E+02 -0.24643456471E+02  0.63978007190E+02  0.10246219878E+03  0.47000000000E+01 0. -1.
        -13    1    4    4    0    0 -0.12863143366E+02 -0.19680782547E+02  0.17700608885E+02  0.29429665540E+02  0.00000000000E+00 0.  1.
         14    1    4    4    0    0  0.60478708544E+02  0.37876928153E+02  0.64991039193E+02  0.96520314177E+02  0.00000000000E+00 0. -1.
         -5    1    5    5    0  502  0.61562286251E+02 -0.39566537314E+02  0.23342777083E+03  0.24467537710E+03  0.47000000000E+01 0.  1.
         11    1    6    6    0    0 -0.49605960874E+02  0.19380089020E+02  0.17065299912E+03  0.17877020253E+03  0.00000000000E+00 0. -1.
        -12    1    6    6    0    0  0.16427628042E+02  0.26633759158E+02  0.31817371109E+03  0.31970882771E+03  0.00000000000E+00 0.  1.
</event>
<event>
12    1  0.8684423E-002  0.2474304E+03  0.7818608E-02  0.1115034E+00
         21   -1    0    0  503  502  0.00000000000E+00  0.00000000000E+00  0.16494483370E+04  0.16494483370E+04  0.00000000000E+00 0. -1.
         21   -1    0    0  501  503 -0.00000000000E+00 -0.00000000000E+00 -0.38723158412E+02  0.38723158412E+02  0.00000000000E+00 0. -1.
          6    2    1    2  501    0  0.16055551042E+02 -0.17700562123E+03  0.62786596004E+03  0.67464593098E+03  0.17129710372E+03 0.  0.
         24    2    3    3    0    0 -0.33992442877E+02 -0.34782554397E+02  0.18413878781E+03  0.20597963625E+03  0.78455115270E+02 0.  0.
         -6    2    1    2    0  502 -0.16055551042E+02  0.17700562123E+03  0.98285921856E+03  0.10135255644E+04  0.17214254446E+03 0.  0.
        -24    2    5    5    0    0 -0.62166888011E+02  0.10352364377E+03  0.75996687449E+03  0.77429984791E+03  0.86074022603E+02 0.  0.
          5    1    3    3  501    0  0.50047993919E+02 -0.14222306683E+03  0.44372717224E+03  0.46866629473E+03  0.47000000000E+01 0. -1.
        -11    1    4    4    0    0  0.23637139333E+02  0.37418912764E+00  0.63184600762E+02  0.67462197910E+02  0.00000000000E+00 0.  1.
         12    1    4    4    0    0 -0.57629582210E+02 -0.35156743525E+02  0.12095418704E+03  0.13851743834E+03  0.00000000000E+00 0. -1.
         -5    1    5    5    0  502  0.46111336969E+02  0.73481977452E+02  0.22289234407E+03  0.23922571653E+03  0.47000000000E+01 0.  1.
         11    1    6    6    0    0 -0.28744335485E+02  0.10612310936E+03  0.65335980650E+03  0.66254614021E+03  0.00000000000E+00 0. -1.
        -12    1    6    6    0    0 -0.33422552525E+02 -0.25994655831E+01  0.10660706799E+03  0.11175370770E+03  0.00000000000E+00 0.  1.
</event>
<event>
12    1  0.8684423E-002  0.1727346E+03  0.7818608E-02  0.1175571E+00
         21   -1    0    0  501  502  0.00000000000E+00  0.00000000000E+00  0.98199644915E+02  0.98199644915E+02  0.00000000000E+00 0. -1.
         21   -1    0    0  502  503 -0.00000000000E+00 -0.00000000000E+00 -0.40541564874E+03  0.40541564874E+03  0.00000000000E+00 0. -1.
         -6    2    1    2    0  503 -0.12385176529E+02 -0.18830442579E+00 -0.28263565701E+03  0.33124032242E+03  0.17228989676E+03 0.  0.
        -24    2    3    3    0    0  0.10479558875E+02  0.64624733973E+02 -0.18708597497E+03  0.21344661372E+03  0.79196701205E+02 0.  0.
          6    2    1    2  501    0  0.12385176529E+02  0.18830442579E+00 -0.24580346819E+02  0.17237497124E+03  0.17016318404E+03 0.  0.
         24    2    5    5    0    0  0.43832421680E+02  0.52842439485E+02 -0.32063505215E+02  0.11041147533E+03  0.80305796279E+02 0.  0.
          5    1    5    5  501    0 -0.31447245151E+02 -0.52654135059E+02  0.74831583958E+01  0.61963495915E+02  0.47000000000E+01 0. -1.
        -13    1    6    6    0    0 -0.11937872419E+02  0.19415320975E+02  0.17433275053E+02  0.28694713198E+02  0.00000000000E+00 0.  1.
         14    1    6    6    0    0  0.55770294099E+02  0.33427118510E+02 -0.49496780268E+02  0.81716762128E+02  0.00000000000E+00 0. -1.
         -5    1    3    3    0  503 -0.22864735404E+02 -0.64813038399E+02 -0.95549682037E+02  0.11779370870E+03  0.47000000000E+01 0.  1.
         11    1    4    4    0    0 -0.31669018728E+02  0.44766746858E+02 -0.83920831123E+02  0.10024816341E+03  0.00000000000E+00 0. -1.
        -12    1    4    4    0    0  0.42148577603E+02  0.19857987115E+02 -0.10316514385E+03  0.11319845031E+03  0.00000000000E+00 0.  1.
</event>
<event>
12    1  0.8684423E-002  0.1940671E+03  0.7818608E-02  0.1159323E+00
         21   -1    0    0  503  502  0.00000000000E+00  0.00000000000E+00  0.34500398783E+02  0.34500398783E+02  0.00000000000E+00 0.  1.
         21   -1    0    0  501  503 -0.00000000000E+00 -0.00000000000E+00 -0.11612850321E+04  0.11612850321E+04  0.00000000000E+00 0. -1.
          6    2    1    2  501    0 -0.10380114654E+02 -0.28560226008E+02 -0.30614418053E+03  0.35251039080E+03  0.17209265836E+03 0.  0.
         24    2    3    3    0    0  0.45503242304E+02  0.12091060390E+02 -0.10817710394E+03  0.14277596329E+03  0.80411137757E+02 0.  0.
         -6    2    1    2    0  502  0.10380114654E+02  0.28560226008E+02 -0.82064045275E+03  0.84327504004E+03  0.19167317803E+03 0.  0.
        -24    2    5    5    0    0  0.24012381763E+02 -0.18648149453E+02 -0.16486230439E+03  0.18564175371E+03  0.79742920419E+02 0.  0.
          5    1    3    3  501    0 -0.55883356958E+02 -0.40651286397E+02 -0.19796707659E+03  0.20973442751E+03  0.47000000000E+01 0. -1.
        -11    1    4    4    0    0  0.14339670156E+02 -0.33650467511E+02 -0.31906422006E+02  0.48538643049E+02  0.00000000000E+00 0.  1.
         12    1    4    4    0    0  0.31163572149E+02  0.45741527900E+02 -0.76270681933E+02  0.94237320241E+02  0.00000000000E+00 0. -1.
         -5    1    5    5    0  502 -0.13632267109E+02  0.47208375461E+02 -0.65577814836E+03  0.65763328633E+03  0.47000000000E+01 0.  1.
         11    1    6    6    0    0 -0.13840582066E+02 -0.36497707278E+02 -0.10944385534E+03  0.11619639332E+03  0.00000000000E+00 0. -1.
        -12    1    6    6    0    0  0.37852963828E+02  0.17849557825E+02 -0.55418449046E+02  0.69445360391E+02  0.00000000000E+00 0.  1.
</event>
<event>
12    1  0.8684423E-002  0.1936240E+03  0.7818608E-02  0.1159491E+00
         21   -1    0    0  501  502  0.00000000000E+00  0.00000000000E+00  0.78853726885E+02  0.78853726885E+02  0.00000000000E+00 0. -1.
         21   -1    0    0  502  503 -0.00000000000E+00 -0.00000000000E+00 -0.43390524042E+03  0.43390524042E+03  0.00000000000E+00 0.  1.
         -6    2    1    2    0  503  0.54535743287E+02  0.70366991457E+02 -0.14944804559E+03  0.23033542834E+03  0.15097692020E+03 0.  0.
        -24    2    3    3    0    0  0.61550094470E+02  0.85868764799E+02 -0.60860176180E+02  0.14000599401E+03  0.68817573456E+02 0.  0.
          6    2    1    2  501    0 -0.54535743287E+02 -0.70366991457E+02 -0.20560346795E+03  0.28242353897E+03  0.17194362027E+03 0.  0.
         24    2    5    5    0    0 -0.10297665804E+03 -0.56442049745E+02 -0.16809393516E+03  0.21941971945E+03  0.78099584932E+02 0.  0.
          5    1    5    5  501    0  0.48440914756E+02 -0.13924941712E+02 -0.37509532789E+02  0.63003819520E+02  0.47000000000E+01 0. -1.
        -13    1    6    6    0    0 -0.89015745288E+02 -0.56318942503E+02 -0.17468048526E+03  0.20398259270E+03  0.00000000000E+00 0.  1.
         14    1    6    6    0    0 -0.13960912755E+02 -0.12310724165E+00  0.65865500965E+01  0.15437126757E+02  0.00000000000E+00 0. -1.
         -5    1    3    3    0  503 -0.70143511826E+01 -0.15501773342E+02 -0.88587869410E+02  0.90329434327E+02  0.47000000000E+01 0.  1.
         13    1    4    4    0    0  0.49500235061E+02  0.37767627048E+02 -0.65292622472E+02  0.90220803993E+02  0.00000000000E+00 0. -1.
        -14    1    4    4    0    0  0.12049859409E+02  0.48101137751E+02  0.44324462921E+01  0.49785190015E+02  0.00000000000E+00 0.  1.
</event>
<event>
12    1  0.8684423E-002  0.2583464E+03  0.7818608E-02  0.1108415E+00
         21   -1    0    0  503  502  0.00000000000E+00  0.00000000000E+00  0.91705243628E+02  0.91705243628E+02  0.00000000000E+00 0.  1.
         21   -1    0    0  501  503 -0.00000000000E+00 -0.00000000000E+00 -0.13676475944E+04  0.13676475944E+04  0.00000000000E+00 0.  1.
          6    2    1    2  501    0  0.39228371336E+02  0.18791844337E+03 -0.11378563841E+04  0.11664184051E+04  0.17018383687E+03 0.  0.
         24    2    3    3    0    0  0.89964666695E+02  0.12371904428E+03 -0.69815852757E+03  0.71914664254E+03  0.79665053042E+02 0.  0.
         -6    2    1    2    0  502 -0.39228371336E+02 -0.18791844337E+03 -0.13808596663E+03  0.29293443293E+03  0.17288910128E+03 0.  0.
        -24    2    5    5    0    0  0.43692934647E+02 -0.10465324846E+03 -0.90997160319E+02  0.16625183212E+03  0.80609016521E+02 0.  0.
          5    1    3    3  501    0 -0.50736295360E+02  0.64199399093E+02 -0.43969785653E+03  0.44727176252E+03  0.47000000000E+01 0. -1.
        -11    1    4    4    0    0  0.91552224045E+02  0.12812460331E+03 -0.58300097436E+03  0.60389391437E+03  0.00000000000E+00 0.  1.
         12    1    4    4    0    0 -0.15875573492E+01 -0.44055590365E+01 -0.11515755321E+03  0.11525272817E+03  0.00000000000E+00 0. -1.
         -5    1    5    5    0  502 -0.82921305982E+02 -0.83265194911E+02 -0.47088806307E+02  0.12668260081E+03  0.47000000000E+01 0.  1.
         11    1    6    6    0    0  0.58980449512E+02 -0.80479363759E+02 -0.39435364911E+02  0.10728825388E+03  0.00000000000E+00 0. -1.
        -12    1    6    6    0    0 -0.15287514865E+02 -0.24173884701E+02 -0.51561795408E+02  0.58963578233E+02  0.00000000000E+00 0.  1.
</event>
<event>
12    1  0.8684423E-002  0.1911967E+03  0.7818608E-02  0.1157588E+00
         21   -1    0    0  503  502  0.00000000000E+00  0.00000000000E+00  0.15709353209E+03  0.15709353209E+03  0.00000000000E+00 0.  1.
         21   -1    0    0  501  503 -0.00000000000E+00 -0.00000000000E+00 -0.23939777215E+03  0.23939777215E+03  0.00000000000E+00 0.  1.
          6    2    1    2  501    0  0.66723987564E+02 -0.51799592002E+02 -0.76809373125E+02  0.20521564002E+03  0.17052416503E+03 0.  0.
         24    2    3    3    0    0  0.51421826419E+02  0.41687436816E+02 -0.35827102476E+02  0.10189276162E+03  0.68676829994E+02 0.  0.
         -6    2    1    2    0  502 -0.66723987564E+02  0.51799592002E+02 -0.54948669369E+01  0.19127566423E+03  0.17152521073E+03 0.  0.
        -24    2    5    5    0    0  0.60215955250E+01 -0.87940603168E+01 -0.39783859561E+02  0.90472214012E+02  0.80553528272E+02 0.  0.
          5    1    3    3  501    0  0.15302161145E+02 -0.93487028817E+02 -0.40982270650E+02  0.10332287840E+03  0.47000000000E+01 0. -1.
        -11    1    4    4    0    0  0.53574639950E+02  0.57185955298E+02 -0.36022087732E+02  0.86244224930E+02  0.00000000000E+00 0.  1.
         12    1    4    4    0    0 -0.21528135313E+01 -0.15498518483E+02  0.19498525639E+00  0.15648536689E+02  0.00000000000E+00 0. -1.
         -5    1    5    5    0  502 -0.72745583089E+02  0.60593652319E+02  0.34288992624E+02  0.10080345022E+03  0.47000000000E+01 0.  1.
         11    1    6    6    0    0  0.36017695535E+00  0.35751230810E+02 -0.12221062894E+02  0.37784052325E+02  0.00000000000E+00 0. -1.
        -12    1    6    6    0    0  0.56614185696E+01 -0.44545291127E+02 -0.27562796667E+02  0.52688161686E+02  0.00000000000E+00 0.  1.
</event>
<event>
12    1  0.8684423E-002  0.1905354E+03  0.7818608E-02  0.1158087E+00
         21   -1    0    0  503  502  0.00000000000E+00  0.00000000000E+00  0.38823731891E+03  0.38823731891E+03  0.00000000000E+00 0. -1.
         21   -1    0    0  501  503 -0.00000000000E+00 -0.00000000000E+00 -0.10345286992E+03  0.10345286992E+03  0.00000000000E+00 0. -1.
          6    2    1    2  501    0 -0.65403963733E+02  0.45964628692E+02  0.65437109118E+02  0.20145909817E+03  0.17295469760E+03 0.  0.
         24    2    3    3    0    0 -0.39090274956E+02  0.76975663222E+02  0.94962292262E+02  0.15098216364E+03  0.79526564495E+02 0.  0.
         -6    2    1    2    0  502  0.65403963733E+02 -0.45964628692E+02  0.21934733988E+03  0.29023109067E+03  0.17242507044E+03 0.  0.
        -24    2    5    5    0    0  0.99188880554E+02 -0.66366409213E+02  0.13326154868E+03  0.19541280815E+03  0.78642170214E+02 0.  0.
          5    1    3    3  501    0 -0.26313688777E+02 -0.31011034530E+02 -0.29525183145E+02  0.50476934529E+02  0.47000000000E+01 0. -1.
        -13    1    4    4    0    0  0.74420653834E+01 -0.12906961138E+02  0.54472421488E+01  0.15863367550E+02  0.00000000000E+00 0.  1.
         14    1    4    4    0    0 -0.46532340340E+02  0.89882624360E+02  0.89515050114E+02  0.13511879609E+03  0.00000000000E+00 0. -1.
         -5    1    5    5    0  502 -0.33784916821E+02  0.20401780521E+02  0.86085791193E+02  0.94818282511E+02  0.47000000000E+01 0.  1.
         11    1    6    6    0    0  0.34135201171E+02 -0.64356871386E+02  0.95680984662E+02  0.12025751403E+03  0.00000000000E+00 0. -1.
        -12    1    6    6    0    0  0.65053679383E+02 -0.20095378265E+01  0.37580564022E+02  0.75155294130E+02  0.00000000000E+00 0.  1.
</event>
<event>
12    1  0.8684423E-002  0.1925625E+03  0.7818608E-02  0.1157056E+00
         21   -1    0    0  501  502  0.00000000000E+00  0.00000000000E+00  0.43829492994E+03  0.43829492994E+03  0.00000000000E+00 0.  1.
         21   -1    0    0  502  503 -0.00000000000E+00 -0.00000000000E+00 -0.13708086192E+03  0.13708086192E+03  0.00000000000E+00 0.  1.
         -6    2    1    2    0  503  0.56873904992E+02  0.66091943987E+02 -0.31243553930E+02  0.19117741192E+03  0.16724191172E+03 0.  0.
        -24    2    3    3    0    0  0.36709941068E+02 -0.22372388746E+02  0.74022564990E+01  0.92444882977E+02  0.81505333789E+02 0.  0.
          6    2    1    2  501    0 -0.56873904992E+02 -0.66091943987E+02  0.33245762195E+03  0.38419837995E+03  0.17169024036E+03 0.  0.
         24    2    5    5    0    0 -0.26770980098E+02 -0.10981924357E+03  0.25636950418E+03  0.29130190810E+03  0.79715289349E+02 0.  0.
          5    1    5    5  501    0 -0.30102924894E+02  0.43727299584E+02  0.76088117766E+02  0.92896471845E+02  0.47000000000E+01 0. -1.
        -13    1    6    6    0    0 -0.54266272986E+01 -0.88492807463E+02  0.10720468492E+03  0.13911602972E+03  0.00000000000E+00 0.  1.
         14    1    6    6    0    0 -0.21344352799E+02 -0.21326436108E+02  0.14916481926E+03  0.15218587838E+03  0.00000000000E+00 0. -1.
         -5    1    3    3    0  503  0.20163963924E+02  0.88464332733E+02 -0.38645810429E+02  0.98732528939E+02  0.47000000000E+01 0.  1.
         13    1    4    4    0    0  0.58241294442E+01 -0.49506781092E+02 -0.33165547638E+01  0.49958396625E+02  0.00000000000E+00 0. -1.
        -14    1    4    4    0    0  0.30885811624E+02  0.27134392346E+02  0.10718811263E+02  0.42486486352E+02  0.00000000000E+00 0.  1.
</event>
<event>
12    1  0.8684423E-002  0.1765810E+03  0.7818608E-02  0.1174153E+00
         21   -1    0    0  503  502  0.00000000000E+00  0.00000000000E+00  0.15026483685E+03  0.15026483685E+03  0.00000000000E+00 0. -1.
         21   -1    0    0  501  503 -0.00000000000E+00 -0.00000000000E+00 -0.19403370380E+03  0.19403370380E+03  0.00000000000E+00 0.  1.
          6    2    1    2  501    0  0.28580237388E+02  0.32492441176E+02 -0.22569773978E+02  0.17801754761E+03  0.17119656497E+03 0.  0.
         24    2    3    3    0    0 -0.24100166197E+02  0.15142653767E+02 -0.66270760308E+02  0.10724957286E+03  0.79375936104E+02 0.  0.
         -6    2    1    2    0  502 -0.28580237388E+02 -0.32492441176E+02 -0.21199092975E+02  0.16628099304E+03  0.15914577720E+03 0.  0.
        -24    2    5    5    0    0 -0.40515396373E+01 -0.42098525958E+02 -0.67454134874E+02  0.11284362054E+03  0.79968253227E+02 0.  0.
          5    1    3    3  501    0  0.52680403585E+02  0.17349787409E+02  0.43700986330E+02  0.70767974757E+02  0.47000000000E+01 0. -1.
        -13    1    4    4    0    0  0.13645263701E+02  0.37853070705E+02 -0.33212003549E+02  0.52173607917E+02  0.00000000000E+00 0.  1.
         14    1    4    4    0    0 -0.37745429898E+02 -0.22710416938E+02 -0.33058756759E+02  0.55075964941E+02  0.00000000000E+00 0. -1.
         -5    1    5    5    0  502 -0.24528697751E+02  0.96060847823E+01  0.46255041899E+02  0.53437372496E+02  0.47000000000E+01 0.  1.
         11    1    6    6    0    0  0.31556557674E+02 -0.44742655770E+02 -0.40203207165E+02  0.67926573915E+02  0.00000000000E+00 0. -1.
        -12    1    6    6    0    0 -0.35608097312E+02  0.26441298115E+01 -0.27250927710E+02  0.44917046627E+02  0.00000000000E+00 0.  1.
</event>
<event>
12    1  0.8684423E-002  0.2347599E+03  0.7818608E-02  0.1123577E+00
         21   -1    0    0  503  502  0.00000000000E+00  0.00000000000E+00  0.11782264901E+03  0.11782264901E+03  0.00000000000E+00 0. -1.
         21   -1    0    0  501  503 -0.00000000000E+00 -0.00000000000E+00 -0.46493620910E+03  0.46493620910E+03  0.00000000000E+00 0. -1.
          6    2    1    2  501    0 -0.15843045893E+03  0.19553147648E+02 -0.17418137264E+03  0.29232060795E+03  0.17213265628E+03 0.  0.
         24    2    3    3    0    0 -0.65211654223E+02 -0.38151014101E+02 -0.14109261724E+03  0.17770616048E+03  0.77228836007E+02 0.  0.
         -6    2    1    2    0  502  0.15843045893E+03 -0.19553147648E+02 -0.17293218745E+03  0.29043825015E+03  0.17019488769E+03 0.  0.
        -24    2    5    5    0    0  0.41825245514E+02 -0.41249600983E+02 -0.13219302661E+03  0.16494211034E+03  0.79246594456E+02 0.  0.
          5    1    3    3  501    0 -0.93218804711E+02  0.57704161749E+02 -0.33088755409E+02  0.11461444747E+03  0.47000000000E+01 0. -1.
        -11    1    4    4    0    0 -0.78861202114E+02 -0.22641822276E+02 -0.13133696044E+03  0.15485844663E+03  0.00000000000E+00 0.  1.
         12    1    4    4    0    0  0.13649547891E+02 -0.15509191824E+02 -0.97556567929E+01  0.22847713849E+02  0.00000000000E+00 0. -1.
         -5    1    5    5    0  502  0.11660521342E+03  0.21696453334E+02 -0.40739160833E+02  0.12549613982E+03  0.47000000000E+01 0.  1.
         11    1    6    6    0    0  0.29074854904E+02 -0.42500411781E+00 -0.11537837830E+03  0.11898612522E+03  0.00000000000E+00 0. -1.
        -12    1    6    6    0    0  0.12750390610E+02 -0.40824596865E+02 -0.16814648316E+02  0.45955985115E+02  0.00000000000E+00 0.  1.
</event>
<event>
12    1  0.8684423E-002  0.2325116E+03  0.7818608E-02  0.1125161E+00
         21   -1    0    0  501  502  0.00000000000E+00  0.00000000000E+00  0.66983332094E+03  0.66983332094E+03  0.00000000000E+00 0. -1.
         21   -1    0    0  502  503 -0.00000000000E+00 -0.00000000000E+00 -0.16302993258E+03  0.16302993258E+03  0.00000000000E+00 0. -1.
         -6    2    1    2    0  503 -0.12725697337E+03  0.84264933236E+02 -0.43928202845E+02  0.23506148661E+03  0.17328963972E+03 0.  0.
        -24    2    3    3    0    0 -0.22431702689E+02 -0.12336931769E+02 -0.39278215820E+02  0.92359103743E+02  0.79574145520E+02 0.  0.
          6    2    1    2  501    0  0.12725697337E+03 -0.84264933236E+02  0.55073159121E+03  0.59780176692E+03  0.17540453454E+03 0.  0.
         24    2    5    5    0    0  0.34746186285E+00 -0.16637282445E+02  0.28585034649E+03  0.29636572550E+03  0.76454579777E+02 0.  0.
          5    1    5    5  501    0  0.12690951151E+03 -0.67627650791E+02  0.26488124472E+03  0.30143604142E+03  0.47000000000E+01 0. -1.
        -13    1    6    6    0    0 -0.14603406979E+02 -0.43944152809E+02  0.14955233890E+03  0.15655749785E+03  0.00000000000E+00 0.  1.
         14    1    6    6    0    0  0.14950868841E+02  0.27306870363E+02  0.13629800759E+03  0.13980822766E+03  0.00000000000E+00 0. -1.
         -5    1    3    3    0  503 -0.10482527068E+03  0.96601865004E+02 -0.46499870248E+01  0.14270238286E+03  0.47000000000E+01 0.  1.
         13    1    4    4    0    0 -0.39636983841E+02  0.40055882452E+01 -0.51942759539E+02  0.65461328231E+02  0.00000000000E+00 0. -1.
        -14    1    4    4    0    0  0.17205281152E+02 -0.16342520014E+02  0.12664543719E+02  0.26897775512E+02  0.00000000000E+00 0.  1.
</event>
<event>
12    1  0.8684423E-002  0.2251299E+03  0.7818608E-02  0.1130173E+00
         21   -1    0    0  503  502  0.00000000000E+00  0.00000000000E+00  0.52264186301E+02  0.52264186301E+02  0.00000000000E+00 0.  1.
         21   -1    0    0  501  503 -0.00000000000E+00 -0.00000000000E+00 -0.17285800736E+04  0.17285800736E+04  0.00000000000E+00 0.  1.
          6    2    1    2  501    0 -0.14176334080E+03  0.32174552331E+02 -0.14283186004E+04  0.14459023006E+04  0.17148583547E+03 0.  0.
         24    2    3    3    0    0 -0.35841602186E+02 -0.30253503435E+02 -0.83219686651E+03  0.83721528039E+03  0.78599657513E+02 0.  0.
         -6    2    1    2    0  502  0.14176334080E+03 -0.32174552331E+02 -0.24799728689E+03  0.33494195938E+03  0.17190525075E+03 0.  0.
        -24    2    5    5    0    0  0.22600404602E+02 -0.45959776516E+02 -0.15857490539E+03  0.18524797125E+03  0.80918050438E+02 0.  0.
          5    1    3    3  501    0 -0.10592173862E+03  0.62428055766E+02 -0.59612173393E+03  0.60868702017E+03  0.47000000000E+01 0. -1.
        -11    1    4    4    0    0 -0.18583696217E+02  0.14688244685E+02 -0.78834702238E+02  0.82316514588E+02  0.00000000000E+00 0.  1.
         12    1    4    4    0    0 -0.17257905969E+02 -0.44941748120E+02 -0.75336216427E+03  0.75489876580E+03  0.00000000000E+00 0. -1.
         -5    1    5    5    0  502  0.11916293620E+03  0.13785224185E+02 -0.89422381502E+02  0.14969398813E+03  0.47000000000E+01 0.  1.
         13    1    6    6    0    0  0.11606913195E+02 -0.28620196302E+02 -0.62053983820E+01  0.31501476780E+02  0.00000000000E+00 0. -1.
        -14    1    6    6    0    0  0.10993491407E+02 -0.17339580215E+02 -0.15236950701E+03  0.15374649447E+03  0.00000000000E+00 0.  1.
</event>
<event>
12    1  0.8684423E-002  0.2613323E+03  0.7818608E-02  0.1108448E+00
         21   -1    0    0  501  502  0.00000000000E+00  0.00000000000E+00  0.16507183366E+03  0.16507183366E+03  0.00000000000E+00 0. -1.
         21   -1    0    0  502  503 -0.00000000000E+00 -0.00000000000E+00 -0.41893001703E+03  0.41893001703E+03  0.00000000000E+00 0. -1.
         -6    2    1    2    0  503  0.16970613662E+03  0.50388986354E+02 -0.56583804679E+02  0.26738789818E+03  0.19223771323E+03 0.  0.
        -24    2    3    3    0    0  0.68745001579E+02 -0.49828105044E+02 -0.46151197840E+02  0.12467298837E+03  0.78769954123E+02 0.  0.
          6    2    1    2  501    0 -0.16970613662E+03 -0.50388986354E+02 -0.19727437869E+03  0.31661395251E+03  0.17317041227E+03 0.  0.
         24    2    5    5    0    0 -0.13351434519E+03 -0.57516824642E+01 -0.59633039052E+02  0.16738405255E+03  0.81253673632E+02 0.  0.
          5    1    5    5  501    0 -0.36191791429E+02 -0.44637303889E+02 -0.13764133964E+03  0.14922989996E+03  0.47000000000E+01 0. -1.
        -13    1    6    6    0    0 -0.56796945482E+02  0.21976517982E+02 -0.60445924022E+02  0.85805419931E+02  0.00000000000E+00 0.  1.
         14    1    6    6    0    0 -0.76717399704E+02 -0.27728200446E+02  0.81288497090E+00  0.81578632615E+02  0.00000000000E+00 0. -1.
         -5    1    3    3    0  503  0.10096113504E+03  0.10021709140E+03 -0.10432606839E+02  0.14271490981E+03  0.47000000000E+01 0.  1.
         11    1    4    4    0    0  0.29011530466E+02 -0.11331669353E+02  0.21077276080E+02  0.37607541761E+02  0.00000000000E+00 0. -1.
        -12    1    4    4    0    0  0.39733471112E+02 -0.38496435691E+02 -0.67228473920E+02  0.87065446609E+02  0.00000000000E+00 0.  1.
</event>
<event>
12    1  0.8684423E-002  0.2910570E+03  0.7818608E-02  0.1090358E+00
         21   -1    0    0  503  502  0.00000000000E+00  0.00000000000E+00  0.59159567940E+03  0.59159567940E+03  0.00000000000E+00 0.  1.
         21   -1    0    0  501  503 -0.00000000000E+00 -0.00000000000E+00 -0.20263880532E+03  0.20263880532E+03  0.00000000000E+00 0. -1.
          6    2    1    2  501    0 -0.13480969860E+03  0.18630749353E+03 -0.23356784897E+02  0.29199271246E+03  0.17840983086E+03 0.  0.
         24    2    3    3    0    0 -0.10439912891E+03  0.39567339242E+02  0.29850581653E+02  0.13289969098E+03  0.65624067112E+02 0.  0.
         -6    2    1    2    0  502  0.13480969860E+03 -0.18630749353E+03  0.41231365897E+03  0.50224177225E+03  0.17134791344E+03 0.  0.
        -24    2    5    5    0    0  0.40176798977E+02 -0.16642284988E+03  0.28624354007E+03  0.34328722018E+03  0.81240452800E+02 0.  0.
          5    1    3    3  501    0 -0.30410569682E+02  0.14674015429E+03 -0.53207366550E+02  0.15909302148E+03  0.47000000000E+01 0. -1.
        -13    1    4    4    0    0 -0.10865357677E+03  0.23805147515E+02  0.17888196585E+02  0.11265998567E+03  0.00000000000E+00 0.  1.
         14    1    4    4    0    0  0.42544478563E+01  0.15762191727E+02  0.11962385068E+02  0.20239705312E+02  0.00000000000E+00 0. -1.
         -5    1    5    5    0  502  0.94632899619E+02 -0.19884643646E+02  0.12607011891E+03  0.15895455207E+03  0.47000000000E+01 0.  1.
         11    1    6    6    0    0  0.18011863480E+02 -0.69431537804E+02  0.51419684612E+02  0.88256159181E+02  0.00000000000E+00 0. -1.
        -12    1    6    6    0    0  0.22164935497E+02 -0.96991312079E+02  0.23482385546E+03  0.25503106100E+03  0.00000000000E+00 0.  1.
</event>
<event>
12    1  0.8684423E-002  0.2044540E+03  0.7818608E-02  0.1146057E+00
         21   -1    0    0  503  502  0.00000000000E+00  0.00000000000E+00  0.47871644619E+03  0.47871644619E+03  0.00000000000E+00 0.  1.
         21   -1    0    0  501  503 -0.00000000000E+00 -0.00000000000E+00 -0.31369669152E+03  0.31369669152E+03  0.00000000000E+00 0.  1.
          6    2    1    2  501    0  0.65247923831E+02 -0.89375171723E+02 -0.25410580225E+03  0.32607882715E+03  0.17179182138E+03 0.  0.
         24    2    3    3    0    0  0.81347098561E+02 -0.37229961082E+02 -0.86819552075E+02  0.15005301678E+03  0.83515584022E+02 0.  0.
         -6    2    1    2    0  502 -0.65247923831E+02  0.89375171723E+02  0.41912555692E+03  0.46633431056E+03  0.17191929460E+03 0.  0.
        -24    2    5    5    0    0 -0.15114569161E+02  0.91073010443E+02  0.38890533633E+03  0.40758409661E+03  0.79716320479E+02 0.  0.
          5    1    3    3  501    0 -0.16099174730E+02 -0.52145210641E+02 -0.16728625018E+03  0.17602581037E+03  0.47000000000E+01 0. -1.
        -13    1    4    4    0    0  0.75334104140E+01 -0.69626632909E+01 -0.67092186462E+02  0.67871882520E+02  0.00000000000E+00 0.  1.
         14    1    4    4    0    0  0.73813688147E+02 -0.30267297791E+02 -0.19727365612E+02  0.82181134255E+02  0.00000000000E+00 0. -1.
         -5    1    5    5    0  502 -0.50133354670E+02 -0.16978387204E+01  0.30220220596E+02  0.58750213954E+02  0.47000000000E+01 0.  1.
         11    1    6    6    0    0 -0.97006546345E+01  0.31535730563E+02  0.29103534066E+03  0.29289959801E+03  0.00000000000E+00 0. -1.
        -12    1    6    6    0    0 -0.54139145267E+01  0.59537279880E+02  0.97869995667E+02  0.11468449859E+03  0.00000000000E+00 0.  1.
</event>
<event>
12    1  0.8684423E-002  0.1764994E+03  0.7818608E-02  0.1171668E+00
         21   -1    0    0  503  502  0.00000000000E+00  0.00000000000E+00  0.19872293224E+03  0.19872293224E+03  0.00000000000E+00 0. -1.
         21   -1    0    0  501  503 -0.00000000000E+00 -0.00000000000E+00 -0.15540403954E+03  0.15540403954E+03  0.00000000000E+00 0.  1.
          6    2    1    2  501    0 -0.20992487882E+02  0.19887858820E+02  0.27606559427E+02  0.17692953721E+03  0.17235349587E+03 0.  0.
         24    2    3    3    0    0 -0.69377694003E+02 -0.13088344943E+02 -0.98379412515E+01  0.10726793504E+03  0.80156444543E+02 0.  0.
         -6    2    1    2    0  502  0.20992487882E+02 -0.19887858820E+02  0.15712333276E+02  0.17719743456E+03  0.17411445064E+03 0.  0.
        -24    2    5    5    0    0 -0.39742289773E+01  0.25722115094E+02  0.64717898162E+02  0.10559267173E+03  0.79271585571E+02 0.  0.
          5    1    3    3  501    0  0.48385206121E+02  0.32976203763E+02  0.37444500679E+02  0.69661602171E+02  0.47000000000E+01 0. -1.
        -13    1    4    4    0    0 -0.76227734407E+02 -0.44680667226E+01  0.17027231641E+02  0.78233993445E+02  0.00000000000E+00 0.  1.
         14    1    4    4    0    0  0.68500404042E+01 -0.86202782204E+01 -0.26865172893E+02  0.29033941598E+02  0.00000000000E+00 0. -1.
         -5    1    5    5    0  502  0.24966716859E+02 -0.45609973914E+02 -0.49005564886E+02  0.71604762837E+02  0.47000000000E+01 0.  1.
         13    1    6    6    0    0  0.34938687666E+02  0.21095965382E+02  0.47952993769E+02  0.62970161686E+02  0.00000000000E+00 0. -1.
        -14    1    6    6    0    0 -0.38912916644E+02  0.46261497113E+01  0.16764904392E+02  0.42622510040E+02  0.00000000000E+00 0.  1.
</event>
<event>
12    1  0.8684423E-002  0.1738171E+03  0.7818608E-02  0.1174286E+00
         21   -1    0    0  501  502  0.00000000000E+00  0.00000000000E+00  0.31290962230E+03  0.31290962230E+03  0.00000000000E+00 0.  1.
         21   -1    0    0  502  503 -0.00000000000E+00 -0.00000000000E+00 -0.42657246437E+03  0.42657246437E+03  0.00000000000E+00 0.  1.
         -6    2    1    2    0  503  0.35733290825E+01 -0.14217299410E+02 -0.38248679672E+03  0.42012917649E+03  0.17319779153E+03 0.  0.
        -24    2    3    3    0    0 -0.47849704997E+01  0.51464935814E+02 -0.14346026055E+03  0.17205702531E+03  0.79694655042E+02 0.  0.
          6    2    1    2  501    0 -0.35733290825E+01  0.14217299410E+02  0.26882395464E+03  0.31935291018E+03  0.17177037687E+03 0.  0.
         24    2    5    5    0    0 -0.13616931237E+02  0.23787290560E+02  0.28435843770E+03  0.29800182500E+03  0.84818103043E+02 0.  0.
          5    1    5    5  501    0  0.10043602155E+02 -0.95699911496E+01 -0.15534483055E+02  0.21351085187E+02  0.47000000000E+01 0. -1.
        -11    1    6    6    0    0 -0.85778614326E+01 -0.19689528279E+02  0.21444920370E+03  0.21552196685E+03  0.00000000000E+00 0.  1.
         12    1    6    6    0    0 -0.50390698048E+01  0.43476818838E+02  0.69909234000E+02  0.82479858143E+02  0.00000000000E+00 0. -1.
         -5    1    3    3    0  503  0.83582995822E+01 -0.65682235224E+02 -0.23902653617E+03  0.24807215118E+03  0.47000000000E+01 0.  1.
         11    1    4    4    0    0 -0.11088152415E+01 -0.10826269041E+02  0.42686607678E+01  0.11690125634E+02  0.00000000000E+00 0. -1.
        -12    1    4    4    0    0 -0.36761552582E+01  0.62291204855E+02 -0.14772892131E+03  0.16036689968E+03  0.00000000000E+00 0.  1.
</event>
<event>
12    1  0.8684423E-002  0.2138985E+03  0.7818608E-02  0.1138555E+00
         21   -1    0    0  501  502  0.00000000000E+00  0.00000000000E+00  0.12580369594E+04  0.12580369594E+04  0.00000000000E+00 0. -1.
         21   -1    0    0  502  503 -0.00000000000E+00 -0.00000000000E+00 -0.36387893982E+02  0.36387893982E+02  0.00000000000E+00 0.  1.
         -6    2    1    2    0  503  0.11412262884E+03  0.55886276569E+02  0.63608876430E+03  0.67108978525E+03  0.17206200476E+03 0.  0.
        -24    2    3    3    0    0  0.87794200842E+02  0.50930711073E+02  0.23343679656E+03  0.26752016192E+03  0.82295443467E+02 0.  0.
          6    2    1    2  501    0 -0.11412262884E+03 -0.55886276569E+02  0.58556030113E+03  0.62333506814E+03  0.17180946013E+03 0.  0.
         24    2    5    5    0    0 -0.31195759246E+02 -0.40199916414E+02  0.47585560430E+03  0.48484269253E+03  0.77747486656E+02 0.  0.
          5    1    5    5  501    0 -0.82926869593E+02 -0.15686360155E+02  0.10970469683E+03  0.13849237561E+03  0.47000000000E+01 0. -1.
        -11    1    6    6    0    0 -0.22268893176E+02  0.51321170747E+01  0.36495789253E+02  0.43060246889E+02  0.00000000000E+00 0.  1.
         12    1    6    6    0    0 -0.89268660698E+01 -0.45332033489E+02  0.43935981505E+03  0.44178244564E+03  0.00000000000E+00 0. -1.
         -5    1    3    3    0  503  0.26328427997E+02  0.49555654954E+01  0.40265196774E+03  0.40356962333E+03  0.47000000000E+01 0.  1.
         11    1    4    4    0    0  0.94078098977E+02  0.37786760481E+02  0.23162236683E+03  0.25283878024E+03  0.00000000000E+00 0. -1.
        -12    1    4    4    0    0 -0.62838981348E+01  0.13143950592E+02  0.18144297255E+01  0.14681381685E+02  0.00000000000E+00 0.  1.
</event>
<event>
12    1  0.8684423E-002  0.2198032E+03  0.7818608E-02  0.1134362E+00
         21   -1    0    0  501  502  0.00000000000E+00  0.00000000000E+00  0.43041501014E+02  0.43041501014E+02  0.00000000000E+00 0.  1.
         21   -1    0    0  502  503 -0.00000000000E+00 -0.00000000000E+00 -0.18301839016E+04  0.18301839016E+04  0.00000000000E+00 0.  1.
         -6    2    1    2    0  503 -0.13370172544E+03  0.14521166168E+02 -0.14774956539E+04  0.14934958309E+04  0.17160819941E+03 0.  0.
        -24    2    3    3    0    0 -0.48386604817E+02 -0.53066483546E+02 -0.83091550810E+03  0.83780174439E+03  0.79585589774E+02 0.  0.
          6    2    1    2  501    0  0.13370172544E+03 -0.14521166168E+02 -0.30964674668E+03  0.37972957167E+03  0.17385748248E+03 0.  0.
         24    2    5    5    0    0  0.11613077870E+03  0.35200093862E+02 -0.28489802201E+03  0.32128702517E+03  0.85633318439E+02 0.  0.
          5    1    5    5  501    0  0.17570946739E+02 -0.49721260030E+02 -0.24748724677E+02  0.58442546500E+02  0.47000000000E+01 0. -1.
        -13    1    6    6    0    0  0.30489845935E+02  0.52906228592E+02 -0.11575219533E+03  0.13087119795E+03  0.00000000000E+00 0.  1.
         14    1    6    6    0    0  0.85640932769E+02 -0.17706134731E+02 -0.16914582668E+03  0.19041582722E+03  0.00000000000E+00 0. -1.
         -5    1    3    3    0  503 -0.85315120627E+02  0.67587649714E+02 -0.64658014580E+03  0.65569408656E+03  0.47000000000E+01 0.  1.
         11    1    4    4    0    0  0.12527570842E+02 -0.25484223522E+02 -0.10367950299E+03  0.10749802333E+03  0.00000000000E+00 0. -1.
        -12    1    4    4    0    0 -0.60914175659E+02 -0.27582260024E+02 -0.72723600511E+03  0.73030372106E+03  0.00000000000E+00 0.  1.
</event>
<event>
12    1  0.8684423E-002  0.1898794E+03  0.7818608E-02  0.1159092E+00
         21   -1    0    0  503  502  0.00000000000E+00  0.00000000000E+00  0.32592007471E+03  0.32592007471E+03  0.00000000000E+00 0. -1.
         21   -1    0    0  501  503 -0.00000000000E+00 -0.00000000000E+00 -0.21139470298E+03  0.21139470298E+03  0.00000000000E+00 0. -1.
          6    2    1    2  501    0 -0.42351638813E+02  0.60161308627E+02 -0.12963132841E+03  0.22801446989E+03  0.17254933442E+03 0.  0.
         24    2    3    3    0    0 -0.47886542391E+01 -0.12637731128E+02 -0.18683777278E+02  0.90021255920E+02  0.87017811548E+02 0.  0.
         -6    2    1    2    0  502  0.42351638813E+02 -0.60161308627E+02  0.24415670014E+03  0.30930030780E+03  0.17504611340E+03 0.  0.
        -24    2    5    5    0    0  0.13856705786E+02 -0.10290983933E+03  0.14922403741E+03  0.20125541649E+03  0.86333574004E+02 0.  0.
          5    1    3    3  501    0 -0.37562984573E+02  0.72799039755E+02 -0.11094755113E+03  0.13799321397E+03  0.47000000000E+01 0. -1.
        -11    1    4    4    0    0 -0.38519061249E+01  0.45785037615E+00  0.34766456617E+02  0.34982185658E+02  0.00000000000E+00 0.  1.
         12    1    4    4    0    0 -0.93674811420E+00 -0.13095581504E+02 -0.53450233894E+02  0.55039070262E+02  0.00000000000E+00 0. -1.
         -5    1    5    5    0  502  0.28494933027E+02  0.42748530698E+02  0.94932662726E+02  0.10804489131E+03  0.47000000000E+01 0.  1.
         11    1    6    6    0    0  0.43430419765E+02 -0.40046901448E+02  0.99879460125E+02  0.11604250183E+03  0.00000000000E+00 0. -1.
        -12    1    6    6    0    0 -0.29573713979E+02 -0.62862937877E+02  0.49344577287E+02  0.85212914659E+02  0.00000000000E+00 0.  1.
</event>
<event>
12    1  0.8684423E-002  0.1743743E+03  0.7818608E-02  0.1176171E+00
         21   -1    0    0  501  502  0.00000000000E+00  0.00000000000E+00  0.77676108868E+03  0.77676108868E+03  0.00000000000E+00 0.  1.
         21   -1    0    0  502  503 -0.00000000000E+00 -0.00000000000E+00 -0.69243534258E+02  0.69243534258E+02  0.00000000000E+00 0.  1.
         -6    2    1    2    0  503  0.13771082438E+02  0.25946771134E+02  0.58154441158E+02  0.17363654318E+03  0.16094978241E+03 0.  0.
        -24    2    3    3    0    0 -0.33249815471E+02 -0.12274949888E+02 -0.80770089209E+01  0.83744609292E+02  0.75443335615E+02 0.  0.
          6    2    1    2  501    0 -0.13771082438E+02 -0.25946771134E+02  0.64936311326E+03  0.67236807976E+03  0.17188223925E+03 0.  0.
         24    2    5    5    0    0 -0.27176981236E+02 -0.81431006356E+02  0.42820160149E+03  0.44391081292E+03  0.79565075290E+02 0.  0.
          5    1    5    5  501    0  0.13405898798E+02  0.55484235222E+02  0.22116151177E+03  0.22845726684E+03  0.47000000000E+01 0.  1.
        -13    1    6    6    0    0  0.15027475679E+02 -0.68097283537E+02  0.21034021899E+03  0.22159890066E+03  0.00000000000E+00 0.  1.
         14    1    6    6    0    0 -0.42204456915E+02 -0.13333722820E+02  0.21786138250E+03  0.22231191226E+03  0.00000000000E+00 0. -1.
         -5    1    3    3    0  503  0.47020897910E+02  0.38221721023E+02  0.66231450079E+02  0.89891933885E+02  0.47000000000E+01 0.  1.
         13    1    4    4    0    0 -0.54175626332E+02 -0.42307429807E+01  0.96164361554E+01  0.55184902998E+02  0.00000000000E+00 0. -1.
        -14    1    4    4    0    0  0.20925810860E+02 -0.80442069074E+01 -0.17693445076E+02  0.28559706294E+02  0.00000000000E+00 0.  1.
</event>
<event>
12    1  0.8684423E-002  0.1914143E+03  0.7818608E-02  0.1157386E+00
         21   -1    0    0  501  502  0.00000000000E+00  0.00000000000E+00  0.13959556814E+03  0.13959556814E+03  0.00000000000E+00 0. -1.
         21   -1    0    0  502  503 -0.00000000000E+00 -0.00000000000E+00 -0.72827453169E+03  0.72827453169E+03  0.00000000000E+00 0. -1.
         -6    2    1    2    0  503 -0.55760548465E+02  0.61833418759E+02 -0.64206198618E+03  0.66998732204E+03  0.17235662783E+03 0.  0.
        -24    2    3    3    0    0 -0.38016939424E+02 -0.30714039491E+02 -0.39206787829E+03  0.40278138709E+03  0.78275057965E+02 0.  0.
          6    2    1    2  501    0  0.55760548465E+02 -0.61833418759E+02  0.53383022631E+02  0.19788277778E+03  0.17139205406E+03 0.  0.
         24    2    5    5    0    0 -0.81071269725E+01 -0.44893527112E+02 -0.22750972959E+02  0.96964418800E+02  0.82482346343E+02 0.  0.
          5    1    5    5  501    0  0.63867675437E+02 -0.16939891647E+02  0.76133995590E+02  0.10091835898E+03  0.47000000000E+01 0. -1.
        -13    1    6    6    0    0 -0.31152272279E+02  0.92773074618E+01 -0.19717629701E+02  0.38017330560E+02  0.00000000000E+00 0.  1.
         14    1    6    6    0    0  0.23045145306E+02 -0.54170834574E+02 -0.30333432581E+01  0.58947088240E+02  0.00000000000E+00 0. -1.
         -5    1    3    3    0  503 -0.17743609041E+02  0.92547458250E+02 -0.24999410789E+03  0.26720593495E+03  0.47000000000E+01 0.  1.
         11    1    4    4    0    0 -0.42694500935E+02 -0.84052908742E+00 -0.33919834997E+03  0.34187577791E+03  0.00000000000E+00 0. -1.
        -12    1    4    4    0    0  0.46775615104E+01 -0.29873510404E+02 -0.52869528316E+02  0.60905609183E+02  0.00000000000E+00 0.  1.
</event>
<event>
12    1  0.8684423E-002  0.1934790E+03  0.7818608E-02  0.1156129E+00
         21   -1    0    0  501  502  0.00000000000E+00  0.00000000000E+00  0.25118781188E+03  0.25118781188E+03  0.00000000000E+00 0.  1.
         21   -1    0    0  502  503 -0.00000000000E+00 -0.00000000000E+00 -0.25613024684E+03  0.25613024684E+03  0.00000000000E+00 0.  1.
         -6    2    1    2    0  503 -0.75562948559E+02  0.46690769492E+02 -0.16850067806E+03  0.25396965245E+03  0.16798309054E+03 0.  0.
        -24    2    3    3    0    0 -0.72738417066E+02  0.81136563739E+02 -0.17281131069E+03  0.21882477696E+03  0.78399710551E+02 0.  0.
          6    2    1    2  501    0  0.75562948559E+02 -0.46690769492E+02  0.16355824310E+03  0.25334840627E+03  0.17188463842E+03 0.  0.
         24    2    5    5    0    0  0.95730856868E+02  0.47763011017E+01  0.66430573505E+02  0.14149368763E+03  0.80126353559E+02 0.  0.
          5    1    5    5  501    0 -0.20167908309E+02 -0.51467070594E+02  0.97127669590E+02  0.11185471864E+03  0.47000000000E+01 0. -1.
        -11    1    6    6    0    0  0.10068122601E+03  0.19292324994E+02  0.71896515765E+02  0.12521186866E+03  0.00000000000E+00 0.  1.
         12    1    6    6    0    0 -0.49503691398E+01 -0.14516023892E+02 -0.54659422604E+01  0.16281818972E+02  0.00000000000E+00 0. -1.
         -5    1    3    3    0  503 -0.28245314928E+01 -0.34445794247E+02  0.43106326348E+01  0.35144875489E+02  0.47000000000E+01 0.  1.
         13    1    4    4    0    0  0.77412999140E+01  0.38657870072E+02 -0.78054820068E+02  0.87446632746E+02  0.00000000000E+00 0. -1.
        -14    1    4    4    0    0 -0.80479716980E+02  0.42478693667E+02 -0.94756490627E+02  0.13137814421E+03  0.00000000000E+00 0.  1.
</event>
<event>
12    1  0.8684423E-002  0.1765418E+03  0.7818608E-02  0.1171658E+00
         21   -1    0    0  501  502  0.00000000000E+00  0.00000000000E+00  0.48871321207E+02  0.48871321207E+02  0.00000000000E+00 0. -1.
         21   -1    0    0  502  503 -0.00000000000E+00 -0.00000000000E+00 -0.14237331755E+04  0.14237331755E+04  0.00000000000E+00 0. -1.
         -6    2    1    2    0  503  0.18387086829E+01 -0.31523701945E+02 -0.12384570584E+04  0.12509767741E+04  0.17369478753E+03 0.  0.
        -24    2    3    3    0    0 -0.28708049564E+02 -0.67382965172E+02 -0.50101050508E+03  0.51201229579E+03  0.76029262398E+02 0.  0.
          6    2    1    2  501    0 -0.18387086829E+01  0.31523701945E+02 -0.13640479588E+03  0.22162772259E+03  0.17180062412E+03 0.  0.
         24    2    5    5    0    0 -0.96216736240E+01  0.85660581023E+02 -0.79947875399E+02  0.14288224596E+03  0.81199517763E+02 0.  0.
          5    1    5    5  501    0  0.77829649410E+01 -0.54136879078E+02 -0.56456920482E+02  0.78745476631E+02  0.47000000000E+01 0. -1.
        -11    1    6    6    0    0 -0.34575404879E+02  0.26237309065E+02 -0.62534684194E+02  0.76121230526E+02  0.00000000000E+00 0.  1.
         12    1    6    6    0    0  0.24953731255E+02  0.59423271958E+02 -0.17413191205E+02  0.66761015433E+02  0.00000000000E+00 0. -1.
         -5    1    3    3    0  503  0.30546758247E+02  0.35859263228E+02 -0.73744655336E+03  0.73896447835E+03  0.47000000000E+01 0.  1.
         11    1    4    4    0    0  0.10747932655E+02 -0.24658869960E+02 -0.33559731824E+03  0.33667363712E+03  0.00000000000E+00 0. -1.
        -12    1    4    4    0    0 -0.39455982219E+02 -0.42724095213E+02 -0.16541318684E+03  0.17533865867E+03  0.00000000000E+00 0.  1.
</event>
<event>
12    1  0.8684423E-002  0.2116740E+03  0.7818608E-02  0.1142150E+00
         21   -1    0    0  501  502  0.00000000000E+00  0.00000000000E+00  0.26797363049E+03  0.26797363049E+03  0.00000000000E+00 0.  1.
         21   -1    0    0  502  503 -0.00000000000E+00 -0.00000000000E+00 -0.13320701688E+04  0.13320701688E+04  0.00000000000E+00 0.  1.
         -6    2    1    2    0  503 -0.10911528376E+03  0.47279729290E+02 -0.12810654959E+04  0.12969243269E+04  0.16353099717E+03 0.  0.
        -24    2    3    3    0    0 -0.57817466850E+01 -0.65810422654E+01 -0.38709512767E+03  0.39537903585E+03  0.80032527188E+02 0.  0.
          6    2    1    2  501    0  0.10911528376E+03 -0.47279729290E+02  0.21696895760E+03  0.30311947235E+03  0.17511244387E+03 0.  0.
         24    2    5    5    0    0  0.12292258390E+03  0.45029030815E+01  0.10912771063E+03  0.18260429861E+03  0.79405509103E+02 0.  0.
          5    1    5    5  501    0 -0.13807300130E+02 -0.51782632371E+02  0.10784124697E+03  0.12051517373E+03  0.47000000000E+01 0. -1.
        -13    1    6    6    0    0  0.98052193430E+02  0.52041768507E+01  0.12033865013E+03  0.15531486345E+03  0.00000000000E+00 0.  1.
         14    1    6    6    0    0  0.24870390465E+02 -0.70127376916E+00 -0.11210939502E+02  0.27289435159E+02  0.00000000000E+00 0. -1.
         -5    1    3    3    0  503 -0.10333353708E+03  0.53860771555E+02 -0.89397036823E+03  0.90154529108E+03  0.47000000000E+01 0.  1.
         13    1    4    4    0    0 -0.35722194661E+02 -0.25102176397E+02 -0.17392313773E+03  0.17931941414E+03  0.00000000000E+00 0. -1.
        -14    1    4    4    0    0  0.29940447976E+02  0.18521134132E+02 -0.21317198994E+03  0.21605962170E+03  0.00000000000E+00 0.  1.
</event>
<event>
12    1  0.8684423E-002  0.2047565E+03  0.7818608E-02  0.1146149E+00
         21   -1    0    0  501  502  0.00000000000E+00  0.00000000000E+00  0.58351565231E+02  0.58351565231E+02  0.00000000000E+00 0.  1.
         21   -1    0    0  502  503 -0.00000000000E+00 -0.00000000000E+00 -0.73157247052E+03  0.73157247052E+03  0.00000000000E+00 0. -1.
         -6    2    1    2    0  503 -0.46422596996E+01 -0.10847384251E+03 -0.39925143445E+03  0.44789409361E+03  0.17152051217E+03 0.  0.
        -24    2    3    3    0    0  0.15794703524E+02 -0.10704665953E+03 -0.40457631503E+03  0.42621113555E+03  0.79154768675E+02 0.  0.
          6    2    1    2  501    0  0.46422596996E+01  0.10847384251E+03 -0.27396947084E+03  0.34202994215E+03  0.17360036084E+03 0.  0.
         24    2    5    5    0    0  0.46559893543E+02  0.92562453321E+02 -0.10665155333E+03  0.16874510192E+03  0.79779221237E+02 0.  0.
          5    1    5    5  501    0 -0.41917633843E+02  0.15911389191E+02 -0.16731791751E+03  0.17328484023E+03  0.47000000000E+01 0. -1.
        -11    1    6    6    0    0 -0.19098844714E+02  0.20264906277E+02 -0.59720930231E+01  0.28479785654E+02  0.00000000000E+00 0.  1.
         12    1    6    6    0    0  0.65658738257E+02  0.72297547045E+02 -0.10067946031E+03  0.14026531626E+03  0.00000000000E+00 0. -1.
         -5    1    3    3    0  503 -0.20436963224E+02 -0.14271829828E+01  0.53248805835E+01  0.21682958062E+02  0.47000000000E+01 0.  1.
         13    1    4    4    0    0  0.42033731883E+02 -0.67555184288E+02 -0.31461588540E+03  0.32452071257E+03  0.00000000000E+00 0. -1.
        -14    1    4    4    0    0 -0.26239028358E+02 -0.39491475240E+02 -0.89960429627E+02  0.10169042297E+03  0.00000000000E+00 0.  1.
</event>
<event>
12    1  0.8684423E-002  0.1848757E+03  0.7818608E-02  0.1163487E+00
         21   -1    0    0  501  502  0.00000000000E+00  0.00000000000E+00  0.18783763781E+04  0.18783763781E+04  0.00000000000E+00 0.  1.
         21   -1    0    0  502  503 -0.00000000000E+00 -0.00000000000E+00 -0.18507702550E+02  0.18507702550E+02  0.00000000000E+00 0.  1.
         -6    2    1    2    0  503  0.18190568461E+02  0.63343635956E+02  0.77928269374E+03  0.80059713017E+03  0.17126276618E+03 0.  0.
        -24    2    3    3    0    0 -0.18530664257E+02  0.98493894830E+02  0.49214336078E+03  0.50895509588E+03  0.82375780601E+02 0.  0.
          6    2    1    2  501    0 -0.18190568461E+02 -0.63343635956E+02  0.10805859818E+04  0.10962869505E+04  0.17273013839E+03 0.  0.
         24    2    5    5    0    0 -0.21540053834E+02 -0.10911806032E+03  0.74206618941E+03  0.75463763199E+03  0.80280764457E+02 0.  0.
          5    1    5    5  501    0  0.33494853735E+01  0.45774424361E+02  0.33851979240E+03  0.34164931849E+03  0.47000000000E+01 0. -1.
        -13    1    6    6    0    0 -0.10078579166E+01 -0.63530038733E+02  0.61205090744E+03  0.61534006443E+03  0.00000000000E+00 0.  1.
         14    1    6    6    0    0 -0.20532195918E+02 -0.45588021584E+02  0.13001528197E+03  0.13929756756E+03  0.00000000000E+00 0. -1.
         -5    1    3    3    0  503  0.36721232718E+02 -0.35150258874E+02  0.28713933295E+03  0.29164203428E+03  0.47000000000E+01 0.  1.
         11    1    4    4    0    0 -0.32012276713E+02  0.83402814043E+02  0.47208155185E+03  0.48045999505E+03  0.00000000000E+00 0. -1.
        -12    1    4    4    0    0  0.13481612456E+02  0.15091080787E+02  0.20061808930E+02  0.28495100830E+02  0.00000000000E+00 0.  1.
</event>
<event>
12    1  0.8684423E-002  0.1894145E+03  0.7818608E-02  0.1159053E+00
         21   -1    0    0  501  502  0.00000000000E+00  0.00000000000E+00  0.32592930139E+03  0.32592930139E+03  0.00000000000E+00 0. -1.
         21   -1    0    0  502  503 -0.00000000000E+00 -0.00000000000E+00 -0.14051271106E+03  0.14051271106E+03  0.00000000000E+00 0. -1.
         -6    2    1    2    0  503  0.55726922794E+02  0.56653711451E+02 -0.16064565330E+02  0.19009454869E+03  0.17193816981E+03 0.  0.
        -24    2    3    3    0    0  0.63859663519E+02 -0.44367803184E-01 -0.58961084159E+02  0.11837973160E+03  0.80369725732E+02 0.  0.
          6    2    1    2  501    0 -0.55726922794E+02 -0.56653711451E+02  0.20148115566E+03  0.27634746376E+03  0.17163371374E+03 0.  0.
         24    2    5    5    0    0 -0.27188216274E+02  0.28727698346E+02  0.59389222189E+02  0.10807194425E+03  0.81166407241E+02 0.  0.
          5    1    5    5  501    0 -0.28538706520E+02 -0.85381409797E+02  0.14209193347E+03  0.16827551951E+03  0.47000000000E+01 0. -1.
        -13    1    6    6    0    0 -0.17241248358E+02  0.57402369964E+01 -0.18693503251E+02  0.26070251811E+02  0.00000000000E+00 0.  1.
         14    1    6    6    0    0 -0.99469679161E+01  0.22987461350E+02  0.78082725440E+02  0.82001692435E+02  0.00000000000E+00 0. -1.
         -5    1    3    3    0  503 -0.81327407249E+01  0.56698079255E+02  0.42896518829E+02  0.71714817091E+02  0.47000000000E+01 0.  1.
         13    1    4    4    0    0  0.64159882132E+02  0.22589319462E+02 -0.16086434210E+02  0.69896646518E+02  0.00000000000E+00 0. -1.
        -14    1    4    4    0    0 -0.30021861233E+00 -0.22633687265E+02 -0.42874649949E+02  0.48483085078E+02  0.00000000000E+00 0.  1.
</event>
<event>
12    1  0.8684423E-002  0.2194544E+03  0.7818608E-02  0.1134651E+00
         21   -1    0    0  503  502  0.00000000000E+00  0.00000000000E+00  0.34692878254E+03  0.34692878254E+03  0.00000000000E+00 0. -1.
         21   -1    0    0  501  503 -0.00000000000E+00 -0.00000000000E+00 -0.23485937164E+03  0.23485937164E+03  0.00000000000E+00 0. -1.
          6    2    1    2  501    0 -0.99513907011E+02  0.92694563658E+02 -0.13129633741E+03  0.25408837987E+03  0.16978479540E+03 0.  0.
         24    2    3    3    0    0 -0.10485321795E+03  0.12385678998E+03 -0.12851485822E+03  0.22200381634E+03  0.80217977716E+02 0.  0.
         -6    2    1    2    0  502  0.99513907011E+02 -0.92694563658E+02  0.24336574831E+03  0.32769977431E+03  0.17223517299E+03 0.  0.
        -24    2    5    5    0    0 -0.15709420868E+02 -0.53833284199E+02  0.12043785856E+03  0.15472587337E+03  0.79309581542E+02 0.  0.
          5    1    3    3  501    0  0.53393109341E+01 -0.31162226319E+02 -0.27814791870E+01  0.32084563530E+02  0.47000000000E+01 0. -1.
        -13    1    4    4    0    0 -0.43608775722E+02  0.84303209885E+02 -0.30194010010E+02  0.99601379295E+02  0.00000000000E+00 0.  1.
         14    1    4    4    0    0 -0.61244442223E+02  0.39553580091E+02 -0.98320848215E+02  0.12240243705E+03  0.00000000000E+00 0. -1.
         -5    1    5    5    0  502  0.11522332788E+03 -0.38861279458E+02  0.12292788975E+03  0.17297390094E+03  0.47000000000E+01 0.  1.
         13    1    6    6    0    0 -0.35196258048E+01  0.74978231357E+01  0.79625112166E+02  0.80054753794E+02  0.00000000000E+00 0. -1.
        -14    1    6    6    0    0 -0.12189795063E+02 -0.61331107335E+02  0.40812746390E+02  0.74671119575E+02  0.00000000000E+00 0.  1.
</event>
<event>
12    1  0.8684423E-002  0.3505290E+03  0.7818608E-02  0.1063595E+00
         21   -1    0    0  503  502  0.00000000000E+00  0.00000000000E+00  0.28310393673E+03  0.28310393673E+03  0.00000000000E+00 0.  1.
         21   -1    0    0  501  503 -0.00000000000E+00 -0.00000000000E+00 -0.42017998319E+03  0.42017998319E+03  0.00000000000E+00 0.  1.
          6    2    1    2  501    0  0.20137349293E+03  0.21170186672E+03 -0.58628656497E+02  0.34408398980E+03  0.17201019925E+03 0.  0.
         24    2    3    3    0    0  0.14183870978E+03  0.66114295432E+02 -0.63419600247E+02  0.18665091049E+03  0.79543680068E+02 0.  0.
         -6    2    1    2    0  502 -0.20137349293E+03 -0.21170186672E+03 -0.78447389962E+02  0.35919993012E+03  0.19365338308E+03 0.  0.
        -24    2    5    5    0    0 -0.51386804073E+02 -0.68681527183E+02  0.41838283456E+02  0.11953024579E+03  0.71967227871E+02 0.  0.
          5    1    3    3  501    0  0.59534783154E+02  0.14558757129E+03  0.47909437501E+01  0.15743307931E+03  0.47000000000E+01 0. -1.
        -11    1    4    4    0    0  0.41107163637E+02  0.33684840718E+02 -0.60857764852E+02  0.80796874563E+02  0.00000000000E+00 0.  1.
         12    1    4    4    0    0  0.10073154614E+03  0.32429454714E+02 -0.25618353955E+01  0.10585403593E+03  0.00000000000E+00 0. -1.
         -5    1    5    5    0  502 -0.14998668886E+03 -0.14302033954E+03 -0.12028567342E+03  0.23966968433E+03  0.47000000000E+01 0.  1.
         13    1    6    6    0    0 -0.60791381437E+02 -0.56307563186E+02  0.54756992945E+02  0.99319998013E+02  0.00000000000E+00 0. -1.
        -14    1    6    6    0    0  0.94045773646E+01 -0.12373963996E+02 -0.12918709489E+02  0.20210247778E+02  0.00000000000E+00 0.  1.
</event>
<event>
12    1  0.8684423E-002  0.2330063E+03  0.7818608E-02  0.1124570E+00
         21   -1    0    0  503  502  0.00000000000E+00  0.00000000000E+00  0.20532729624E+03  0.20532729624E+03  0.00000000000E+00 0. -1.
         21   -1    0    0  501  503 -0.00000000000E+00 -0.00000000000E+00 -0.28061857708E+03  0.28061857708E+03  0.00000000000E+00 0. -1.
          6    2    1    2  501    0  0.21692026813E+01 -0.15749424597E+03  0.21079793871E+02  0.23379644817E+03  0.17148550525E+03 0.  0.
         24    2    3    3    0    0 -0.58208260125E+02 -0.11957602731E+03  0.38478019255E+02  0.16025722348E+03  0.80716738396E+02 0.  0.
         -6    2    1    2    0  502 -0.21692026813E+01  0.15749424597E+03 -0.96371074706E+02  0.25214942515E+03  0.17170557827E+03 0.  0.
        -24    2    5    5    0    0 -0.54957473588E+02  0.13138788620E+03 -0.35154061323E+02  0.16707442122E+03  0.79968454131E+02 0.  0.
          5    1    3    3  501    0  0.60377462806E+02 -0.37918218669E+02 -0.17398225384E+02  0.73539224693E+02  0.47000000000E+01 0. -1.
        -13    1    4    4    0    0 -0.63270399152E+02 -0.68119932492E+02 -0.44180526126E+01  0.93075172847E+02  0.00000000000E+00 0.  1.
         14    1    4    4    0    0  0.50621390268E+01 -0.51456094814E+02  0.42896071868E+02  0.67182050629E+02  0.00000000000E+00 0. -1.
         -5    1    5    5    0  502  0.52788270907E+02  0.26106359777E+02 -0.61217013383E+02  0.85075003930E+02  0.47000000000E+01 0.  1.
         11    1    6    6    0    0 -0.29625425200E+02  0.89636657544E+02  0.16670247347E+02  0.95866017653E+02  0.00000000000E+00 0. -1.
        -12    1    6    6    0    0 -0.25332048388E+02  0.41751228653E+02 -0.51824308670E+02  0.71208403568E+02  0.00000000000E+00 0.  1.
</event>
<event>
12    1  0.8684423E-002  0.1985635E+03  0.7818608E-02  0.1152006E+00
         21   -1    0    0  501  502  0.00000000000E+00  0.00000000000E+00  0.66789457994E+03  0.66789457994E+03  0.00000000000E+00 0. -1.
         21   -1    0    0  502  503 -0.00000000000E+00 -0.00000000000E+00 -0.61602133445E+02  0.61602133445E+02  0.00000000000E+00 0. -1.
         -6    2    1    2    0  503  0.49473641896E+02 -0.81141960751E+02  0.20660954724E+03  0.28320768986E+03  0.16878220151E+03 0.  0.
        -24    2    3    3    0    0 -0.45548381121E+01  0.80826920605E+01  0.12061598024E+03  0.14794092052E+03  0.85159995386E+02 0.  0.
          6    2    1    2  501    0 -0.49473641896E+02  0.81141960751E+02  0.39968289926E+03  0.44628902353E+03  0.17434395179E+03 0.  0.
         24    2    5    5    0    0  0.22050930475E+02  0.58515590385E+02  0.12285143036E+03  0.15943458438E+03  0.80103650989E+02 0.  0.
          5    1    5    5  501    0 -0.71524572371E+02  0.22626370366E+02  0.27683146889E+03  0.28685443915E+03  0.47000000000E+01 0. -1.
        -11    1    6    6    0    0  0.23317138855E+01  0.11474311346E+02  0.10461078369E+03  0.10526401463E+03  0.00000000000E+00 0.  1.
         12    1    6    6    0    0  0.19719216589E+02  0.47041279039E+02  0.18240646669E+02  0.54170569753E+02  0.00000000000E+00 0. -1.
         -5    1    3    3    0  503  0.54028480008E+02 -0.89224652812E+02  0.85993567001E+02  0.13526676934E+03  0.47000000000E+01 0.  1.
         13    1    4    4    0    0  0.19745689725E+02 -0.31600702345E+02  0.38648300785E+02  0.53686011259E+02  0.00000000000E+00 0. -1.
        -14    1    4    4    0    0 -0.24300527837E+02  0.39683394405E+02  0.81967679454E+02  0.94254909260E+02  0.00000000000E+00 0.  1.
</event>
<event>
12    1  0.8684423E-002  0.2246579E+03  0.7818608E-02  0.1130714E+00
         21   -1    0    0  501  502  0.00000000000E+00  0.00000000000E+00  0.81249041031E+02  0.81249041031E+02  0.00000000000E+00 0. -1.
         21   -1    0    0  502  503 -0.00000000000E+00 -0.00000000000E+00 -0.73585854195E+03  0.73585854195E+03  0.00000000000E+00 0. -1.
         -6    2    1    2    0  503 -0.14303336591E+03 -0.77612916741E+01 -0.49043541895E+03  0.53885533004E+03  0.17122904293E+03 0.  0.
        -24    2    3    3    0    0 -0.39701719293E+02 -0.56073658137E+02 -0.15780044920E+03  0.18717418604E+03  0.73571139044E+02 0.  0.
          6    2    1    2  501    0  0.14303336591E+03  0.77612916741E+01 -0.16417408197E+03  0.27825225294E+03  0.17306763321E+03 0.  0.
         24    2    5    5    0    0  0.12506765980E+03 -0.48889405962E+02 -0.15054437425E+03  0.21709730979E+03  0.80221815960E+02 0.  0.
          5    1    5    5  501    0  0.17965706107E+02  0.56650697636E+02 -0.13629707711E+02  0.61154943144E+02  0.47000000000E+01 0. -1.
        -13    1    6    6    0    0  0.73739966391E+02 -0.43278258037E+02 -0.14053694664E+03  0.16450295934E+03  0.00000000000E+00 0.  1.
         14    1    6    6    0    0  0.51327693411E+02 -0.56111479257E+01 -0.10007427619E+02  0.52594350452E+02  0.00000000000E+00 0. -1.
         -5    1    3    3    0  503 -0.10333164662E+03  0.48312366463E+02 -0.33263496975E+03  0.35168114400E+03  0.47000000000E+01 0.  1.
         13    1    4    4    0    0 -0.54177328860E+02 -0.16387472791E+02 -0.72423261218E+02  0.91917685960E+02  0.00000000000E+00 0. -1.
        -14    1    4    4    0    0  0.14475609567E+02 -0.39686185347E+02 -0.85377187980E+02  0.95256500078E+02  0.00000000000E+00 0.  1.
</event>
<event>
12    1  0.8684423E-002  0.2816069E+03  0.7818608E-02  0.1094866E+00
         21   -1    0    0  503  502  0.00000000000E+00  0.00000000000E+00  0.22334491391E+03  0.22334491391E+03  0.00000000000E+00 0. -1.
         21   -1    0    0  501  503 -0.00000000000E+00 -0.00000000000E+00 -0.36782199418E+03  0.36782199418E+03  0.00000000000E+00 0. -1.
          6    2    1    2  501    0  0.32725617715E+02  0.22021356308E+03 -0.12826430175E+03  0.30909365095E+03  0.17182018082E+03 0.  0.
         24    2    3    3    0    0 -0.37420316399E+02  0.91714051108E+02 -0.10080380397E+03  0.16006766131E+03  0.75156517032E+02 0.  0.
         -6    2    1    2    0  502 -0.32725617715E+02 -0.22021356308E+03 -0.16212778529E+02  0.28207325714E+03  0.17244561109E+03 0.  0.
        -24    2    5    5    0    0 -0.10567181850E+02 -0.44262477728E+02  0.33170454411E+02  0.97925016820E+02  0.80113654307E+02 0.  0.
          5    1    3    3  501    0  0.70145934114E+02  0.12849951197E+03 -0.27460497774E+02  0.14902598964E+03  0.47000000000E+01 0. -1.
        -11    1    4    4    0    0  0.53336538705E+01  0.38222790495E+02 -0.47365376346E+00  0.38596035090E+02  0.00000000000E+00 0.  1.
         12    1    4    4    0    0 -0.42753970270E+02  0.53491260613E+02 -0.10033015021E+03  0.12147162622E+03  0.00000000000E+00 0. -1.
         -5    1    5    5    0  502 -0.22158435865E+02 -0.17595108535E+03 -0.49383232940E+02  0.18414824032E+03  0.47000000000E+01 0.  1.
         13    1    6    6    0    0 -0.26372947948E+02 -0.19841248297E+02 -0.19080753572E+02  0.38121944787E+02  0.00000000000E+00 0. -1.
        -14    1    6    6    0    0  0.15805766098E+02 -0.24421229431E+02  0.52251207984E+02  0.59803072033E+02  0.00000000000E+00 0.  1.
</event>
<event>
12    1  0.8684423E-002  0.2501302E+03  0.7818608E-02  0.1113302E+00
         21   -1    0    0  503  502  0.00000000000E+00  0.00000000000E+00  0.18724901058E+03  0.18724901058E+03  0.00000000000E+00 0.  1.
         21   -1    0    0  501  503 -0.00000000000E+00 -0.00000000000E+00 -0.39559239262E+03  0.39559239262E+03  0.00000000000E+00 0. -1.
          6    2    1    2  501    0  0.79467657318E+02 -0.16430099705E+03 -0.21975339601E+03  0.33295145935E+03  0.17104149506E+03 0.  0.
         24    2    3    3    0    0  0.50868267265E+02 -0.18626235417E+03 -0.15146462452E+03  0.25558433048E+03  0.71418291170E+02 0.  0.
         -6    2    1    2    0  502 -0.79467657318E+02  0.16430099705E+03  0.11410013966E+02  0.24988994384E+03  0.17030816018E+03 0.  0.
        -24    2    5    5    0    0  0.24605867294E+02  0.72792213925E+02  0.61255840001E+01  0.11112694044E+03  0.80046979941E+02 0.  0.
          5    1    3    3  501    0  0.28599390053E+02  0.21961357112E+02 -0.68288771489E+02  0.77367128867E+02  0.47000000000E+01 0. -1.
        -13    1    4    4    0    0 -0.15087079874E+02 -0.50419096915E+02 -0.56419759241E+02  0.77155003374E+02  0.00000000000E+00 0.  1.
         14    1    4    4    0    0  0.65955347139E+02 -0.13584325725E+03 -0.95044865276E+02  0.17842932711E+03  0.00000000000E+00 0. -1.
         -5    1    5    5    0  502 -0.10407352461E+03  0.91508783129E+02  0.52844299657E+01  0.13876300341E+03  0.47000000000E+01 0.  1.
         11    1    6    6    0    0 -0.28196325679E+02  0.36632360909E+02  0.88726614922E+01  0.47071082095E+02  0.00000000000E+00 0. -1.
        -12    1    6    6    0    0  0.52802192974E+02  0.36159853016E+02 -0.27470774921E+01  0.64055858340E+02  0.00000000000E+00 0.  1.
</event>
<event>
12    1  0.8684423E-002  0.2660548E+03  0.7818608E-02  0.1103562E+00
         21   -1    0    0  503  502  0.00000000000E+00  0.00000000000E+00  0.55188885821E+02  0.55188885821E+02  0.00000000000E+00 0.  1.
         21   -1    0    0  501  503 -0.00000000000E+00 -0.00000000000E+00 -0.13123810802E+04  0.13123810802E+04  0.00000000000E+00 0. -1.
          6    2    1    2  501    0  0.20293983170E+03  0.12171302631E+02 -0.73179801826E+03  0.77866134494E+03  0.17161711652E+03 0.  0.
         24    2    3    3    0    0  0.19368526048E+02  0.13603408127E+01 -0.25281301498E+03  0.26556873681E+03  0.78964188713E+02 0.  0.
         -6    2    1    2    0  502 -0.20293983170E+03 -0.12171302631E+02 -0.52539417615E+03  0.58890862111E+03  0.17158556986E+03 0.  0.
        -24    2    5    5    0    0 -0.15608918756E+03 -0.84036250612E+01 -0.50862147913E+03  0.53878286310E+03  0.84597335339E+02 0.  0.
          5    1    3    3  501    0  0.18357130566E+03  0.10810961818E+02 -0.47898500328E+03  0.51309260814E+03  0.47000000000E+01 0. -1.
        -13    1    4    4    0    0  0.21664049734E+02 -0.27159201103E+01 -0.12397820836E+02  0.25108031273E+02  0.00000000000E+00 0.  1.
         14    1    4    4    0    0 -0.22955236858E+01  0.40762609230E+01 -0.24041519414E+03  0.24046070553E+03  0.00000000000E+00 0. -1.
         -5    1    5    5    0  502 -0.46850644145E+02 -0.37676775697E+01 -0.16772697023E+02  0.50125758014E+02  0.47000000000E+01 0.  1.
         11    1    6    6    0    0 -0.11937851669E+03 -0.43036591194E+02 -0.37914539350E+03  0.39981821850E+03  0.00000000000E+00 0. -1.
        -12    1    6    6    0    0 -0.36710670866E+02  0.34632966133E+02 -0.12947608563E+03  0.13896464460E+03  0.00000000000E+00 0.  1.
</event>
<event>
12    1  0.8684423E-002  0.2491263E+03  0.7818608E-02  0.1113866E+00
         21   -1    0    0  501  502  0.00000000000E+00  0.00000000000E+00  0.31901711425E+03  0.31901711425E+03  0.00000000000E+00 0.  1.
         21   -1    0    0  502  503 -0.00000000000E+00 -0.00000000000E+00 -0.24756340401E+03  0.24756340401E+03  0.00000000000E+00 0.  1.
         -6    2    1    2    0  503  0.16065837005E+01 -0.18014263134E+03  0.16687406443E+03  0.29985137703E+03  0.17207540843E+03 0.  0.
        -24    2    3    3    0    0  0.28692052755E+02 -0.72154035567E+02  0.16437598201E+02  0.11263925182E+03  0.79924762599E+02 0.  0.
          6    2    1    2  501    0 -0.16065837005E+01  0.18014263134E+03 -0.95420354193E+02  0.26672914124E+03  0.17200419197E+03 0.  0.
         24    2    5    5    0    0  0.39584072064E+02  0.18014053573E+03 -0.99056766465E+02  0.22511203393E+03  0.82738585089E+02 0.  0.
          5    1    5    5  501    0 -0.41190655765E+02  0.20956111313E-02  0.36364122719E+01  0.41617107311E+02  0.47000000000E+01 0. -1.
        -13    1    6    6    0    0 -0.19253271165E+02  0.77983413079E+02 -0.62211072883E+02  0.10159881276E+03  0.00000000000E+00 0.  1.
         14    1    6    6    0    0  0.58837343229E+02  0.10215712265E+03 -0.36845693581E+02  0.12351322117E+03  0.00000000000E+00 0. -1.
         -5    1    3    3    0  503 -0.27085469054E+02 -0.10798859578E+03  0.15043646623E+03  0.18721212521E+03  0.47000000000E+01 0.  1.
         13    1    4    4    0    0  0.31193477338E+02 -0.74208868997E+02  0.39278543236E+02  0.89570046472E+02  0.00000000000E+00 0. -1.
        -14    1    4    4    0    0 -0.25014245839E+01  0.20548334299E+01 -0.22840945035E+02  0.23069205350E+02  0.00000000000E+00 0.  1.
</event>
<event>
12    1  0.8684423E-002  0.1753306E+03  0.7818608E-02  0.1172442E+00
         21   -1    0    0  503  502  0.00000000000E+00  0.00000000000E+00  0.27939977015E+03  0.27939977015E+03  0.00000000000E+00 0.  1.
         21   -1    0    0  501  503 -0.00000000000E+00 -0.00000000000E+00 -0.11200833133E+03  0.11200833133E+03  0.00000000000E+00 0.  1.
          6    2    1    2  501    0  0.31734234152E+02  0.98521795628E+01  0.56928219225E+02  0.18418127518E+03  0.17198195523E+03 0.  0.
         24    2    3    3    0    0  0.59226027541E+01  0.54737221863E+02  0.81006603125E+02  0.12688584859E+03  0.80664168878E+02 0.  0.
         -6    2    1    2    0  502 -0.31734234152E+02 -0.98521795628E+01  0.11046321960E+03  0.20722682630E+03  0.17215315157E+03 0.  0.
        -24    2    5    5    0    0 -0.36287306673E+02  0.47739053902E+02  0.88300058959E+02  0.14517220253E+03  0.98398587807E+02 0.  0.
          5    1    3    3  501    0  0.25811631398E+02 -0.44885042300E+02 -0.24078383900E+02  0.57295426597E+02  0.47000000000E+01 0. -1.
        -11    1    4    4    0    0  0.65474292296E+01 -0.17832830889E+02  0.12275679883E+01  0.19036428504E+02  0.00000000000E+00 0.  1.
         12    1    4    4    0    0 -0.62482647555E+00  0.72570052752E+02  0.79779035136E+02  0.10784942008E+03  0.00000000000E+00 0. -1.
         -5    1    5    5    0  502  0.45530725212E+01 -0.57591233465E+02  0.22163160638E+02  0.62054623767E+02  0.47000000000E+01 0.  1.
         13    1    6    6    0    0 -0.41019374498E+01 -0.93720908063E+01 -0.17755043432E+02  0.20491548116E+02  0.00000000000E+00 0. -1.
        -14    1    6    6    0    0 -0.32185369224E+02  0.57111144709E+02  0.10605510239E+03  0.12468065441E+03  0.00000000000E+00 0.  1.
</event>
<event>
12    1  0.8684423E-002  0.1969631E+03  0.7818608E-02  0.1154619E+00
         21   -1    0    0  503  502  0.00000000000E+00  0.00000000000E+00  0.52283088884E+03  0.52283088884E+03  0.00000000000E+00 0.  1.
         21   -1    0    0  501  503 -0.00000000000E+00 -0.00000000000E+00 -0.10307198053E+03  0.10307198053E+03  0.00000000000E+00 0.  1.
          6    2    1    2  501    0 -0.82411007031E+01  0.95181629023E+02  0.29738535275E+02  0.18896995349E+03  0.16030534800E+03 0.  0.
         24    2    3    3    0    0 -0.60882742144E+02  0.68962462360E+02  0.43433212188E+02  0.12840411089E+03  0.78349487974E+02 0.  0.
         -6    2    1    2    0  502  0.82411007031E+01 -0.95181629023E+02  0.39002037303E+03  0.43693291588E+03  0.17224117788E+03 0.  0.
        -24    2    5    5    0    0 -0.57019599209E+02 -0.39687082640E+02  0.26470911225E+03  0.28506584997E+03  0.79782989962E+02 0.  0.
          5    1    3    3  501    0  0.52641641441E+02  0.26219166663E+02 -0.13694676913E+02  0.60565842600E+02  0.47000000000E+01 0. -1.
        -13    1    4    4    0    0 -0.26036024855E+02  0.25446323792E+01 -0.17747483400E+02  0.31612069076E+02  0.00000000000E+00 0.  1.
         14    1    4    4    0    0 -0.34846717289E+02  0.66417829981E+02  0.61180695588E+02  0.96792041811E+02  0.00000000000E+00 0. -1.
         -5    1    5    5    0  502  0.65260699912E+02 -0.55494546383E+02  0.12531126078E+03  0.15186706591E+03  0.47000000000E+01 0.  1.
         11    1    6    6    0    0  0.43152705105E+01  0.83034888945E+01  0.23179091683E+00  0.93607272383E+01  0.00000000000E+00 0. -1.
        -12    1    6    6    0    0 -0.61334869719E+02 -0.47990571534E+02  0.26447732133E+03  0.27570512273E+03  0.00000000000E+00 0.  1.
</event>
<event>
12    1  0.8684423E-002  0.1989313E+03  0.7818608E-02  0.1150750E+00
         21   -1    0    0  503  502  0.00000000000E+00  0.00000000000E+00  0.60403561095E+02  0.60403561095E+02  0.00000000000E+00 0.  1.
         21   -1    0    0  501  503 -0.00000000000E+00 -0.00000000000E+00 -0.70093468820E+03  0.70093468820E+03  0.00000000000E+00 0.  1.
          6    2    1    2  501    0  0.34920229208E+02 -0.95364420770E+02 -0.41965625643E+03  0.46441901319E+03  0.17105511127E+03 0.  0.
         24    2    3    3    0    0  0.31237737227E+02 -0.98834472867E+02 -0.43135384989E+03  0.45083498943E+03  0.80262037241E+02 0.  0.
         -6    2    1    2    0  502 -0.34920229208E+02  0.95364420770E+02 -0.22087487067E+03  0.29691923610E+03  0.17047442365E+03 0.  0.
        -24    2    5    5    0    0 -0.16778885000E+02  0.16553993592E+02 -0.33781475345E+02  0.93041281492E+02  0.83426172749E+02 0.  0.
          5    1    3    3  501    0  0.36824919816E+01  0.34700520977E+01  0.11697593461E+02  0.13584023761E+02  0.47000000000E+01 0. -1.
        -11    1    4    4    0    0 -0.27239287242E+01  0.67533204028E+01 -0.22403373887E+01  0.76188080283E+01  0.00000000000E+00 0.  1.
         12    1    4    4    0    0  0.33961665951E+02 -0.10558779327E+03 -0.42911351250E+03  0.44321618140E+03  0.00000000000E+00 0. -1.
         -5    1    5    5    0  502 -0.18141344208E+02  0.78810427178E+02 -0.18709339533E+03  0.20387795461E+03  0.47000000000E+01 0.  1.
         13    1    6    6    0    0 -0.19896869363E+02  0.45295831928E+02 -0.12072636604E+01  0.49487930711E+02  0.00000000000E+00 0. -1.
        -14    1    6    6    0    0  0.31179843629E+01 -0.28741838336E+02 -0.32574211684E+02  0.43553350781E+02  0.00000000000E+00 0.  1.
</event>
<event>
12    1  0.8684423E-002  0.1869973E+03  0.7818608E-02  0.1162101E+00
         21   -1    0    0  501  502  0.00000000000E+00  0.00000000000E+00  0.17959440177E+03  0.17959440177E+03  0.00000000000E+00 0.  1.
         21   -1    0    0  502  503 -0.00000000000E+00 -0.00000000000E+00 -0.69389286612E+03  0.69389286612E+03  0.00000000000E+00 0.  1.
         -6    2    1    2    0  503  0.61628094235E+02 -0.29338348945E+02 -0.62980667067E+03  0.65698131465E+03  0.17409550442E+03 0.  0.
        -24    2    3    3    0    0  0.24032849671E+02  0.46669278063E+02 -0.41759943524E+03  0.42841061979E+03  0.79942300824E+02 0.  0.
          6    2    1    2  501    0 -0.61628094235E+02  0.29338348945E+02  0.11550820632E+03  0.21650595323E+03  0.16992328075E+03 0.  0.
         24    2    5    5    0    0 -0.35109963770E+01  0.27170713336E+02 -0.10379058088E+01  0.86170302086E+02  0.81692526919E+02 0.  0.
          5    1    5    5  501    0 -0.58117097858E+02  0.21676356087E+01  0.11654611213E+03  0.13033565115E+03  0.47000000000E+01 0. -1.
        -13    1    6    6    0    0 -0.45927516353E+01 -0.87710575486E+01  0.34332610956E+02  0.35731680525E+02  0.00000000000E+00 0.  1.
         14    1    6    6    0    0  0.10817552584E+01  0.35941770885E+02 -0.35370516765E+02  0.50438621561E+02  0.00000000000E+00 0. -1.
         -5    1    3    3    0  503  0.37595244564E+02 -0.76007627008E+02 -0.21220723543E+03  0.22857069486E+03  0.47000000000E+01 0.  1.
         13    1    4    4    0    0 -0.39061046122E+01  0.35920858217E+02 -0.63596439289E+02  0.73144191830E+02  0.00000000000E+00 0. -1.
        -14    1    4    4    0    0  0.27938954283E+02  0.10748419846E+02 -0.35400299595E+03  0.35526642796E+03  0.00000000000E+00 0.  1.
</event>
<event>
12    1  0.8684423E-002  0.1937916E+03  0.7818608E-02  0.1156501E+00
         21   -1    0    0  503  502  0.00000000000E+00  0.00000000000E+00  0.12451349914E+04  0.12451349914E+04  0.00000000000E+00 0. -1.
         21   -1    0    0  501  503 -0.00000000000E+00 -0.00000000000E+00 -0.68216912963E+02  0.68216912963E+02  0.00000000000E+00 0. -1.
          6    2    1    2  501    0  0.87279619874E+02 -0.53200489608E+01  0.87585946562E+02  0.20691633069E+03  0.16582229917E+03 0.  0.
         24    2    3    3    0    0  0.81283741036E+02 -0.41408346539E+02  0.11157139851E+03  0.16291965251E+03  0.75979855818E+02 0.  0.
         -6    2    1    2    0  502 -0.87279619874E+02  0.53200489608E+01  0.10893321319E+04  0.11064355737E+04  0.17294262111E+03 0.  0.
        -24    2    5    5    0    0 -0.10849374889E+03 -0.79871932895E+01  0.10537486074E+04  0.10626703000E+04  0.83948496637E+02 0.  0.
          5    1    3    3  501    0  0.59958788380E+01  0.36088297578E+02 -0.23985451946E+02  0.43996678172E+02  0.47000000000E+01 0. -1.
        -13    1    4    4    0    0  0.24847552808E+02  0.13451103831E+02  0.66425695073E+02  0.72185220376E+02  0.00000000000E+00 0.  1.
         14    1    4    4    0    0  0.56436188228E+02 -0.54859450370E+02  0.45145703434E+02  0.90734432137E+02  0.00000000000E+00 0. -1.
         -5    1    5    5    0  502  0.21214129013E+02  0.13307242250E+02  0.35583524448E+02  0.43765273657E+02  0.47000000000E+01 0.  1.
         13    1    6    6    0    0 -0.43180514097E+02  0.32786430704E+02  0.59908548725E+03  0.60153381274E+03  0.00000000000E+00 0. -1.
        -14    1    6    6    0    0 -0.65313234790E+02 -0.40773623994E+02  0.45466312015E+03  0.46113648726E+03  0.00000000000E+00 0.  1.
</event>
<event>
12    1  0.8684423E-002  0.3048417E+03  0.7818608E-02  0.1083157E+00
         21   -1    0    0  503  502  0.00000000000E+00  0.00000000000E+00  0.45546256862E+03  0.45546256862E+03  0.00000000000E+00 0.  1.
         21   -1    0    0  501  503 -0.00000000000E+00 -0.00000000000E+00 -0.43196948343E+03  0.43196948343E+03  0.00000000000E+00 0.  1.
          6    2    1    2  501    0  0.17467745974E+02  0.25031822766E+03 -0.31174645669E+03  0.43602103549E+03  0.17310156812E+03 0.  0.
         24    2    3    3    0    0  0.75978289475E+02  0.12339609593E+03 -0.16870571557E+03  0.23598240211E+03  0.78909940309E+02 0.  0.
         -6    2    1    2    0  502 -0.17467745974E+02 -0.25031822766E+03  0.33523954189E+03  0.45141101656E+03  0.16858830973E+03 0.  0.
        -24    2    5    5    0    0 -0.62495823795E+01 -0.18488398553E+03  0.15844628565E+03  0.26250513341E+03  0.97890623889E+02 0.  0.
          5    1    3    3  501    0 -0.58510543500E+02  0.12692213173E+03 -0.14304074113E+03  0.20003863338E+03  0.47000000000E+01 0. -1.
        -13    1    4    4    0    0  0.23712741528E+02  0.10789309783E+03 -0.11127920969E+03  0.15680011855E+03  0.00000000000E+00 0.  1.
         14    1    4    4    0    0  0.52265547947E+02  0.15502998105E+02 -0.57426505877E+02  0.79182283560E+02  0.00000000000E+00 0. -1.
         -5    1    5    5    0  502 -0.11218163595E+02 -0.65434242130E+02  0.17679325623E+03  0.18890588315E+03  0.47000000000E+01 0.  1.
         11    1    6    6    0    0 -0.47219556256E+02 -0.14056371057E+03  0.12181459912E+03  0.19190268310E+03  0.00000000000E+00 0. -1.
        -12    1    6    6    0    0  0.40969973876E+02 -0.44320274959E+02  0.36631686538E+02  0.70602450315E+02  0.00000000000E+00 0.  1.
</event>
<event>
12    1  0.8684423E-002  0.1889604E+03  0.7818608E-02  0.1159588E+00
         21   -1    0    0  503  502  0.00000000000E+00  0.00000000000E+00  0.32589467706E+03  0.32589467706E+03  0.00000000000E+00 0. -1.
         21   -1    0    0  501  503 -0.00000000000E+00 -0.00000000000E+00 -0.17016058063E+03  0.17016058063E+03  0.00000000000E+00 0. -1.
          6    2    1    2  501    0 -0.67288568753E+02 -0.36919540721E+02 -0.70612734827E+02  0.20172302346E+03  0.17267083107E+03 0.  0.
         24    2    3    3    0    0 -0.27346059363E+02  0.24036484903E+02  0.16222060386E+02  0.88261960641E+02  0.78749342117E+02 0.  0.
         -6    2    1    2    0  502  0.67288568753E+02  0.36919540721E+02  0.22634683126E+03  0.29433223423E+03  0.17177826438E+03 0.  0.
        -24    2    5    5    0    0  0.24991110351E+02 -0.43703406693E+02  0.12062673259E+03  0.15473293660E+03  0.82806580044E+02 0.  0.
          5    1    3    3  501    0 -0.39942509390E+02 -0.60956025623E+02 -0.86834795213E+02  0.11346106282E+03  0.47000000000E+01 0. -1.
        -13    1    4    4    0    0 -0.13862061996E+02 -0.22258659486E+02  0.28271767876E+02  0.38560310472E+02  0.00000000000E+00 0.  1.
         14    1    4    4    0    0 -0.13483997366E+02  0.46295144388E+02 -0.12049707490E+02  0.49701650169E+02  0.00000000000E+00 0. -1.
         -5    1    5    5    0  502  0.42297458402E+02  0.80622947414E+02  0.10572009866E+03  0.13959929763E+03  0.47000000000E+01 0.  1.
         11    1    6    6    0    0 -0.11398354754E+02 -0.79845189795E+01  0.97939071776E+02  0.98922883171E+02  0.00000000000E+00 0. -1.
        -12    1    6    6    0    0  0.36389465105E+02 -0.35718887714E+02  0.22687660818E+02  0.55810053427E+02  0.00000000000E+00 0.  1.
</event>
<event>
12    1  0.8684423E-002  0.1729759E+03  0.7818608E-02  0.1174963E+00
         21   -1    0    0  503  502  0.00000000000E+00  0.00000000000E+00  0.38494648625E+03  0.38494648625E+03  0.00000000000E+00 0.  1.
         21   -1    0    0  501  503 -0.00000000000E+00 -0.00000000000E+00 -0.77427520042E+02  0.77427520042E+02  0.00000000000E+00 0.  1.
          6    2    1    2  501    0  0.13225954901E+02  0.35280404756E+02  0.15747111277E+03  0.23338705254E+03  0.16808549043E+03 0.  0.
         24    2    3    3    0    0 -0.48518894234E+02  0.38352621715E+00  0.55300505245E+02  0.10892363796E+03  0.80324235671E+02 0.  0.
         -6    2    1    2    0  502 -0.13225954901E+02 -0.35280404756E+02  0.15004785343E+03  0.22898695375E+03  0.16882249206E+03 0.  0.
        -24    2    5    5    0    0 -0.60132923714E+01 -0.24491912357E+02  0.63635508531E+01  0.84641247624E+02  0.80545841381E+02 0.  0.
          5    1    3    3  501    0  0.61744849134E+02  0.34896878539E+02  0.10217060753E+03  0.12446341458E+03  0.47000000000E+01 0. -1.
        -13    1    4    4    0    0  0.13478998225E+02  0.17696303862E+02 -0.25336787625E+01  0.22388883214E+02  0.00000000000E+00 0.  1.
         14    1    4    4    0    0 -0.61997892459E+02 -0.17312777644E+02  0.57834184008E+02  0.86534754746E+02  0.00000000000E+00 0. -1.
         -5    1    5    5    0  502 -0.72126625292E+01 -0.10788492399E+02  0.14368430258E+03  0.14434570613E+03  0.47000000000E+01 0.  1.
         11    1    6    6    0    0  0.16022525309E+02  0.25191784023E+02 -0.49168029375E+00  0.29859488425E+02  0.00000000000E+00 0. -1.
        -12    1    6    6    0    0 -0.22035817680E+02 -0.49683696380E+02  0.68552311468E+01  0.54781759199E+02  0.00000000000E+00 0.  1.
</event>
<event>
12    1  0.8684423E-002  0.2002303E+03  0.7818608E-02  0.1149698E+00
         21   -1    0    0  501  502  0.00000000000E+00  0.00000000000E+00  0.28076110317E+03  0.28076110317E+03  0.00000000000E+00 0. -1.
         21   -1    0    0  502  503 -0.00000000000E+00 -0.00000000000E+00 -0.18685428357E+03  0.18685428357E+03  0.00000000000E+00 0.  1.
         -6    2    1    2    0  503  0.68622179657E+02 -0.73681582485E+02 -0.67306676275E+02  0.21055125697E+03  0.17223142572E+03 0.  0.
        -24    2    3    3    0    0  0.38146856213E+02 -0.58984993280E+02  0.27598649912E+02  0.10968577223E+03  0.79591903371E+02 0.  0.
          6    2    1    2  501    0 -0.68622179657E+02  0.73681582485E+02  0.16121349587E+03  0.25706412977E+03  0.17307280672E+03 0.  0.
         24    2    5    5    0    0  0.52992296268E+01  0.42047380732E+02  0.17001039305E+02  0.91884167004E+02  0.79734564321E+02 0.  0.
          5    1    5    5  501    0 -0.73921409283E+02  0.31634201753E+02  0.14421245657E+03  0.16517996277E+03  0.47000000000E+01 0. -1.
        -11    1    6    6    0    0 -0.40075388155E+01 -0.12111654180E+02 -0.21350639985E+02  0.24871718117E+02  0.00000000000E+00 0.  1.
         12    1    6    6    0    0  0.93067684423E+01  0.54159034912E+02  0.38351679289E+02  0.67012448887E+02  0.00000000000E+00 0. -1.
         -5    1    3    3    0  503  0.30475323444E+02 -0.14696589205E+02 -0.94905326188E+02  0.10086548474E+03  0.47000000000E+01 0.  1.
         11    1    4    4    0    0 -0.49533083169E+01  0.29556016246E+01  0.33501959661E+02  0.33994884106E+02  0.00000000000E+00 0. -1.
        -12    1    4    4    0    0  0.43100164530E+02 -0.61940594904E+02 -0.59033097483E+01  0.75690888128E+02  0.00000000000E+00 0.  1.
</event>
<event>
12    1  0.8684423E-002  0.1787500E+03  0.7818608E-02  0.1169345E+00
         21   -1    0    0  503  502  0.00000000000E+00  0.00000000000E+00  0.28673613196E+03  0.28673613196E+03  0.00000000000E+00 0. -1.
         21   -1    0    0  501  503 -0.00000000000E+00 -0.00000000000E+00 -0.15020244173E+03  0.15020244173E+03  0.00000000000E+00 0.  1.
          6    2    1    2  501    0  0.18274587045E+02  0.39761529569E+02 -0.43720664554E+02  0.18401916788E+03  0.17331075521E+03 0.  0.
         24    2    3    3    0    0  0.41893679580E+02  0.55036166596E+02  0.25701180382E+02  0.10896812776E+03  0.80183802427E+02 0.  0.
         -6    2    1    2    0  502 -0.18274587045E+02 -0.39761529569E+02  0.18025435479E+03  0.25291940582E+03  0.17193502741E+03 0.  0.
        -24    2    5    5    0    0 -0.20770957401E+02 -0.38325972312E+02  0.25703749904E+02  0.98270538506E+02  0.84238371031E+02 0.  0.
          5    1    3    3  501    0 -0.23619092535E+02 -0.15274637027E+02 -0.69421844936E+02  0.75051040118E+02  0.47000000000E+01 0. -1.
        -11    1    4    4    0    0  0.35896486768E+02  0.49838485853E+02 -0.18432680398E+02  0.64126407518E+02  0.00000000000E+00 0.  1.
         12    1    4    4    0    0  0.59971928113E+01  0.51976807426E+01  0.44133860780E+02  0.44841720240E+02  0.00000000000E+00 0. -1.
         -5    1    5    5    0  502  0.24963703568E+01 -0.14355572568E+01  0.15455060489E+03  0.15464886731E+03  0.47000000000E+01 0.  1.
         13    1    6    6    0    0 -0.46781010625E+02 -0.48064373386E+02  0.17759265092E+02  0.69383272053E+02  0.00000000000E+00 0. -1.
        -14    1    6    6    0    0  0.26010053224E+02  0.97384010740E+01  0.79444848116E+01  0.28887266453E+02  0.00000000000E+00 0.  1.
</event>
<event>
12    1  0.8684423E-002  0.1910274E+03  0.7818608E-02  0.1157917E+00
         21   -1    0    0  503  502  0.00000000000E+00  0.00000000000E+00  0.92302584432E+02  0.92302584432E+02  0.00000000000E+00 0. -1.
         21   -1    0    0  501  503 -0.00000000000E+00 -0.00000000000E+00 -0.50566515076E+03  0.50566515076E+03  0.00000000000E+00 0. -1.
          6    2    1    2  501    0 -0.23363801308E+02 -0.76098495613E+02 -0.34922236841E+03  0.39805491425E+03  0.17365081029E+03 0.  0.
         24    2    3    3    0    0  0.10024719204E+02  0.22605896194E+02 -0.11829495010E+03  0.14466408412E+03  0.79514026932E+02 0.  0.
         -6    2    1    2    0  502  0.23363801308E+02  0.76098495613E+02 -0.64140197921E+02  0.19991282094E+03  0.17179733043E+03 0.  0.
        -24    2    5    5    0    0 -0.18750913315E+01  0.99990427928E+02 -0.21791965080E+01  0.12871533624E+03  0.81001773081E+02 0.  0.
          5    1    3    3  501    0 -0.33388520512E+02 -0.98704391807E+02 -0.23092741831E+03  0.25339083012E+03  0.47000000000E+01 0. -1.
        -11    1    4    4    0    0  0.41734650214E+02 -0.20479026024E+01 -0.73102190546E+02  0.84201574784E+02  0.00000000000E+00 0.  1.
         12    1    4    4    0    0 -0.31709931010E+02  0.24653798796E+02 -0.45192759552E+02  0.60462509340E+02  0.00000000000E+00 0. -1.
         -5    1    5    5    0  502  0.25238892640E+02 -0.23891932315E+02 -0.61961001413E+02  0.71197484699E+02  0.47000000000E+01 0.  1.
         13    1    6    6    0    0 -0.38624797791E+02  0.65763440328E+02  0.10322861510E+02  0.76962760852E+02  0.00000000000E+00 0. -1.
        -14    1    6    6    0    0  0.36749706460E+02  0.34226987599E+02 -0.12502058018E+02  0.51752575392E+02  0.00000000000E+00 0.  1.
</event>
<event>
12    1  0.8684423E-002  0.2409366E+03  0.7818608E-02  0.1119202E+00
         21   -1    0    0  501  502  0.00000000000E+00  0.00000000000E+00  0.33253162463E+02  0.33253162463E+02  0.00000000000E+00 0. -1.
         21   -1    0    0  502  503 -0.00000000000E+00 -0.00000000000E+00 -0.18603932320E+04  0.18603932320E+04  0.00000000000E+00 0.  1.
         -6    2    1    2    0  503 -0.94493706155E+02 -0.13930348706E+03 -0.11497245753E+04  0.11746594674E+04  0.17211549383E+03 0.  0.
        -24    2    3    3    0    0  0.79473688299E+01 -0.24496454592E+02 -0.49149063766E+03  0.49866476679E+03  0.80251266477E+02 0.  0.
          6    2    1    2  501    0  0.94493706155E+02  0.13930348706E+03 -0.67741549422E+03  0.71898692708E+03  0.17238308354E+03 0.  0.
         24    2    5    5    0    0  0.10265799111E+03  0.35687943743E+02 -0.43242513482E+03  0.45281930590E+03  0.79003380325E+02 0.  0.
          5    1    5    5  501    0 -0.81642849511E+01  0.10361554332E+03 -0.24499035940E+03  0.26616762118E+03  0.47000000000E+01 0. -1.
        -13    1    6    6    0    0  0.66921041977E+02 -0.91460080132E+01 -0.31480508096E+03  0.32196943072E+03  0.00000000000E+00 0.  1.
         14    1    6    6    0    0  0.35736949129E+02  0.44833951756E+02 -0.11762005386E+03  0.13084987517E+03  0.00000000000E+00 0. -1.
         -5    1    3    3    0  503 -0.10244107498E+03 -0.11480703247E+03 -0.65823393764E+03  0.67599470058E+03  0.47000000000E+01 0.  1.
         11    1    4    4    0    0 -0.55859098301E+00  0.15594503233E+02 -0.19861297738E+02  0.25258101726E+02  0.00000000000E+00 0. -1.
        -12    1    4    4    0    0  0.85059598129E+01 -0.40090957825E+02 -0.47162933992E+03  0.47340666506E+03  0.00000000000E+00 0.  1.
</event>
<event>
12    1  0.8684423E-002  0.1746686E+03  0.7818608E-02  0.1173200E+00
         21   -1    0    0  501  502  0.00000000000E+00  0.00000000000E+00  0.53050044682E+03  0.53050044682E+03  0.00000000000E+00 0. -1.
         21   -1    0    0  502  503 -0.00000000000E+00 -0.00000000000E+00 -0.36688416266E+03  0.36688416266E+03  0.00000000000E+00 0. -1.
         -6    2    1    2    0  503 -0.15664651107E+02  0.24589032486E+02 -0.33031664001E+03  0.37365520257E+03  0.17221825084E+03 0.  0.
        -24    2    3    3    0    0 -0.71040682344E+02  0.51233913905E+01 -0.23866400924E+03  0.26471617950E+03  0.89672284999E+02 0.  0.
          6    2    1    2  501    0  0.15664651107E+02 -0.24589032486E+02  0.49393292417E+03  0.52372940691E+03  0.17167631247E+03 0.  0.
         24    2    5    5    0    0 -0.58753782112E+02 -0.33398441766E+02  0.31056836563E+03  0.32558713422E+03  0.70617345013E+02 0.  0.
          5    1    5    5  501    0  0.74418433219E+02  0.88094092798E+01  0.18336455854E+03  0.19814227268E+03  0.47000000000E+01 0. -1.
        -11    1    6    6    0    0  0.14076516213E+02 -0.15256888795E+02  0.43951849601E+02  0.48607469053E+02  0.00000000000E+00 0.  1.
         12    1    6    6    0    0 -0.72830298325E+02 -0.18141552971E+02  0.26661651603E+03  0.27697966517E+03  0.00000000000E+00 0. -1.
         -5    1    3    3    0  503  0.55376031237E+02  0.19465641096E+02 -0.91652630779E+02  0.10893902307E+03  0.47000000000E+01 0.  1.
         11    1    4    4    0    0 -0.19606519630E+02 -0.39638329488E+02 -0.11955664492E+03  0.12747315059E+03  0.00000000000E+00 0. -1.
        -12    1    4    4    0    0 -0.51434162713E+02  0.44761720878E+02 -0.11910736431E+03  0.13724302891E+03  0.00000000000E+00 0.  1.
</event>
<event>
12    1  0.8684423E-002  0.2261808E+03  0.7818608E-02  0.1129471E+00
         21   -1    0    0  503  502  0.00000000000E+00  0.00000000000E+00  0.44504229044E+03  0.44504229044E+03  0.00000000000E+00 0.  1.
         21   -1    0    0  501  503 -0.00000000000E+00 -0.00000000000E+00 -0.15813855082E+03  0.15813855082E+03  0.00000000000E+00 0. -1.
          6    2    1    2  501    0 -0.14185253501E+03  0.34270986485E+02 -0.14885636504E+02  0.22604081832E+03  0.17197740308E+03 0.  0.
         24    2    3    3    0    0 -0.15818028663E+03 -0.10391473950E+02 -0.14316601225E+02  0.17825227737E+03  0.80249134020E+02 0.  0.
         -6    2    1    2    0  502  0.14185253501E+03 -0.34270986485E+02  0.30178937612E+03  0.37714002294E+03  0.17280372437E+03 0.  0.
        -24    2    5    5    0    0  0.10148715694E+03 -0.74444044671E+02  0.27736954004E+03  0.31499779297E+03  0.80300616590E+02 0.  0.
          5    1    3    3  501    0  0.16327751614E+02  0.44662460435E+02 -0.56903527902E+00  0.47788540949E+02  0.47000000000E+01 0. -1.
        -11    1    4    4    0    0 -0.78789592791E+02 -0.25184992459E+02  0.27683187128E+02  0.87226387217E+02  0.00000000000E+00 0.  1.
         12    1    4    4    0    0 -0.79390693835E+02  0.14793518509E+02 -0.41999788353E+02  0.91025890158E+02  0.00000000000E+00 0. -1.
         -5    1    5    5    0  502  0.40365378070E+02  0.40173058187E+02  0.24419836088E+02  0.62142229968E+02  0.47000000000E+01 0.  1.
         13    1    6    6    0    0  0.22857555477E+02 -0.61516025888E+02  0.16196680918E+03  0.17475679259E+03  0.00000000000E+00 0. -1.
        -14    1    6    6    0    0  0.78629601464E+02 -0.12928018783E+02  0.11540273086E+03  0.14024100038E+03  0.00000000000E+00 0.  1.
</event>
<event>
12    1  0.8684423E-002  0.2002232E+03  0.7818608E-02  0.1149629E+00
         21   -1    0    0  501  502  0.00000000000E+00  0.00000000000E+00  0.55615048828E+03  0.55615048828E+03  0.00000000000E+00 0. -1.
         21   -1    0    0  502  503 -0.00000000000E+00 -0.00000000000E+00 -0.11691295806E+03  0.11691295806E+03  0.00000000000E+00 0.  1.
         -6    2    1    2    0  503  0.64040835049E+02 -0.78793175832E+02  0.11045377423E+02  0.20052765545E+03  0.17256809417E+03 0.  0.
        -24    2    3    3    0    0  0.10702098597E+03 -0.67221349270E+02 -0.13879640648E+02  0.14929732197E+03  0.78261386946E+02 0.  0.
          6    2    1    2  501    0 -0.64040835049E+02  0.78793175832E+02  0.42819215280E+03  0.47253579088E+03  0.17213936457E+03 0.  0.
         24    2    5    5    0    0 -0.29844571562E+01 -0.18903202383E+02  0.14228565008E+03  0.16425494182E+03  0.79801263463E+02 0.  0.
          5    1    5    5  501    0 -0.61056377893E+02  0.97696378215E+02  0.28590650272E+03  0.30828084906E+03  0.47000000000E+01 0. -1.
        -11    1    6    6    0    0  0.24186771044E+02  0.20461245441E+02  0.37652689754E+02  0.49207596001E+02  0.00000000000E+00 0.  1.
         12    1    6    6    0    0 -0.27171228200E+02 -0.39364447824E+02  0.10463296032E+03  0.11504734582E+03  0.00000000000E+00 0. -1.
         -5    1    3    3    0  503 -0.42980150920E+02 -0.11571826562E+02  0.24925018070E+02  0.51230333484E+02  0.47000000000E+01 0.  1.
         13    1    4    4    0    0  0.34367781473E+02 -0.55701861926E+02  0.19817855967E+02  0.68385592346E+02  0.00000000000E+00 0. -1.
        -14    1    4    4    0    0  0.72653204496E+02 -0.11519487344E+02 -0.33697496615E+02  0.80911729621E+02  0.00000000000E+00 0.  1.
</event>
<event>
12    1  0.8684423E-002  0.2082764E+03  0.7818608E-02  0.1143763E+00
         21   -1    0    0  501  502  0.00000000000E+00  0.00000000000E+00  0.58052704146E+02  0.58052704146E+02  0.00000000000E+00 0.  1.
         21   -1    0    0  502  503 -0.00000000000E+00 -0.00000000000E+00 -0.13516326519E+04  0.13516326519E+04  0.00000000000E+00 0. -1.
         -6    2    1    2    0  503  0.10618785705E+03 -0.18073134777E+02 -0.11272127044E+04  0.11462929609E+04  0.17825984388E+03 0.  0.
        -24    2    3    3    0    0 -0.89029082704E+01 -0.25853872394E+02 -0.64075899626E+03  0.64632723772E+03  0.80119426087E+02 0.  0.
          6    2    1    2  501    0 -0.10618785705E+03  0.18073134777E+02 -0.16636724330E+03  0.26339239515E+03  0.17347909094E+03 0.  0.
         24    2    5    5    0    0 -0.95003689525E+02 -0.24787641435E+02 -0.44432902077E+02  0.13357635103E+03  0.78919139477E+02 0.  0.
          5    1    5    5  501    0 -0.11184167521E+02  0.42860776211E+02 -0.12193434122E+03  0.12981604412E+03  0.47000000000E+01 0. -1.
        -13    1    6    6    0    0 -0.26099898966E+01  0.57014833819E+01  0.17265152094E+02  0.18368571987E+02  0.00000000000E+00 0.  1.
         14    1    6    6    0    0 -0.92393699629E+02 -0.30489124816E+02 -0.61698054171E+02  0.11520777904E+03  0.00000000000E+00 0. -1.
         -5    1    3    3    0  503  0.11509076532E+03  0.77807376169E+01 -0.48645370815E+03  0.49996572314E+03  0.47000000000E+01 0.  1.
         11    1    4    4    0    0  0.33006707943E+02 -0.26008725242E+02 -0.27861315923E+03  0.28176442120E+03  0.00000000000E+00 0. -1.
        -12    1    4    4    0    0 -0.41909616213E+02  0.15485284822E+00 -0.36214583703E+03  0.36456281652E+03  0.00000000000E+00 0.  1.
</event>
<event>
12    1  0.8684423E-002  0.1752473E+03  0.7818608E-02  0.1172805E+00
         21   -1    0    0  501  502  0.00000000000E+00  0.00000000000E+00  0.67628578623E+03  0.67628578623E+03  0.00000000000E+00 0. -1.
         21   -1    0    0  502  503 -0.00000000000E+00 -0.00000000000E+00 -0.98368248038E+02  0.98368248038E+02  0.00000000000E+00 0. -1.
         -6    2    1    2    0  503  0.24942956613E+02  0.24789774494E+02  0.43694290739E+01  0.17530177241E+03  0.17168265927E+03 0.  0.
        -24    2    3    3    0    0  0.32323321347E+01 -0.38891489605E+02 -0.39483153134E+02  0.94854313911E+02  0.76911803720E+02 0.  0.
          6    2    1    2  501    0 -0.24942956613E+02 -0.24789774494E+02  0.57354810912E+03  0.59935226186E+03  0.17037903720E+03 0.  0.
         24    2    5    5    0    0 -0.16889720858E+02 -0.42524414136E+02  0.15191509140E+03  0.17724343267E+03  0.79015510892E+02 0.  0.
          5    1    5    5  501    0 -0.80532357549E+01  0.17734639641E+02  0.42163301771E+03  0.42210882918E+03  0.47000000000E+01 0. -1.
        -11    1    6    6    0    0 -0.96498079407E+01  0.85727385343E+01 -0.35906286953E+01  0.13397882433E+02  0.00000000000E+00 0.  1.
         12    1    6    6    0    0 -0.72399129171E+01 -0.51097152670E+02  0.15550572010E+03  0.16384555024E+03  0.00000000000E+00 0. -1.
         -5    1    3    3    0  503  0.21710624478E+02  0.63681264100E+02  0.43852582208E+02  0.80447458498E+02  0.47000000000E+01 0.  1.
         11    1    4    4    0    0 -0.10124519873E+02 -0.42048919642E+02  0.92470941184E+01  0.44228116570E+02  0.00000000000E+00 0. -1.
        -12    1    4    4    0    0  0.13356852007E+02  0.31574300367E+01 -0.48730247252E+02  0.50626197341E+02  0.00000000000E+00 0.  1.
</event>
<event>
12    1  0.8684423E-002  0.1894937E+03  0.7818608E-02  0.1159100E+00
         21   -1    0    0  503  502  0.00000000000E+00  0.00000000000E+00  0.32220909336E+03  0.32220909336E+03  0.00000000000E+00 0.  1.
         21   -1    0    0  501  503 -0.00000000000E+00 -0.00000000000E+00 -0.23792564571E+03  0.23792564571E+03  0.00000000000E+00 0.  1.
          6    2    1    2  501    0  0.56051261984E+01 -0.78042288041E+02 -0.16247981146E+03  0.24900781193E+03  0.17170668335E+03 0.  0.
         24    2    3    3    0    0 -0.42291352199E+02 -0.10468913266E+02 -0.13189748804E+03  0.16059060700E+03  0.80586841921E+02 0.  0.
         -6    2    1    2    0  502 -0.56051261984E+01  0.78042288041E+02  0.24676325911E+03  0.31112692715E+03  0.17258575430E+03 0.  0.
        -24    2    5    5    0    0 -0.17867639908E+02 -0.48184204273E+01  0.48293361509E+02  0.95653827887E+02  0.80466988836E+02 0.  0.
          5    1    3    3  501    0  0.47896478398E+02 -0.67573374775E+02 -0.30582323422E+02  0.88417204928E+02  0.47000000000E+01 0. -1.
        -13    1    4    4    0    0 -0.56482436173E+02 -0.21488272947E+02 -0.12891657768E+03  0.14237800206E+03  0.00000000000E+00 0.  1.
         14    1    4    4    0    0  0.14191083974E+02  0.11019359682E+02 -0.29809103580E+01  0.18212604940E+02  0.00000000000E+00 0. -1.
         -5    1    5    5    0  502  0.12262513710E+02  0.82860708468E+02  0.19846989760E+03  0.21547309926E+03  0.47000000000E+01 0.  1.
         11    1    6    6    0    0  0.31948084508E+02  0.26521573727E+01  0.21483217228E+02  0.38590706976E+02  0.00000000000E+00 0. -1.
        -12    1    6    6    0    0 -0.49815724416E+02 -0.74705777999E+01  0.26810144282E+02  0.57063120911E+02  0.00000000000E+00 0.  1.
</event>
<event>
12    1  0.8684423E-002  0.2084481E+03  0.7818608E-02  0.1142839E+00
         21   -1    0    0  501  502  0.00000000000E+00  0.00000000000E+00  0.72225622424E+02  0.72225622424E+02  0.00000000000E+00 0. -1.
         21   -1    0    0  502  503 -0.00000000000E+00 -0.00000000000E+00 -0.60365351254E+03  0.60365351254E+03  0.00000000000E+00 0.  1.
         -6    2    1    2    0  503 -0.71481668532E+02  0.94090649298E+02 -0.28783214470E+03  0.35527113685E+03  0.17148631996E+03 0.  0.
        -24    2    3    3    0    0 -0.11442971821E+03  0.73976716194E+02 -0.24211489449E+03  0.28923128340E+03  0.80426352758E+02 0.  0.
          6    2    1    2  501    0  0.71481668532E+02 -0.94090649298E+02 -0.24359574542E+03  0.32060799811E+03  0.17172047650E+03 0.  0.
         24    2    5    5    0    0  0.10189374402E+03 -0.58380987038E+02 -0.22956431298E+03  0.27142420596E+03  0.84738722387E+02 0.  0.
          5    1    5    5  501    0 -0.30412075487E+02 -0.35709662260E+02 -0.14031432438E+02  0.49183792151E+02  0.47000000000E+01 0. -1.
        -11    1    6    6    0    0 -0.74002873935E+00 -0.18289121731E+02 -0.98547273953E+02  0.10023275323E+03  0.00000000000E+00 0.  1.
         12    1    6    6    0    0  0.10263377276E+03 -0.40091865307E+02 -0.13101703903E+03  0.17119145273E+03  0.00000000000E+00 0. -1.
         -5    1    3    3    0  503  0.42948049679E+02  0.20113933104E+02 -0.45717250209E+02  0.66039853443E+02  0.47000000000E+01 0.  1.
         13    1    4    4    0    0 -0.28978829024E+02  0.33194820777E+02 -0.21237658705E+02  0.48915302363E+02  0.00000000000E+00 0. -1.
        -14    1    4    4    0    0 -0.85450889187E+02  0.40781895416E+02 -0.22087723578E+03  0.24031598104E+03  0.00000000000E+00 0.  1.
</event>
<event>
12    1  0.8684423E-002  0.2233785E+03  0.7818608E-02  0.1131786E+00
         21   -1    0    0  503  502  0.00000000000E+00  0.00000000000E+00  0.56061797878E+02  0.56061797878E+02  0.00000000000E+00 0. -1.
         21   -1    0    0  501  503 -0.00000000000E+00 -0.00000000000E+00 -0.94211724113E+03  0.94211724113E+03  0.00000000000E+00 0. -1.
          6    2    1    2  501    0  0.11225805077E+03  0.85045671143E+02 -0.57166720816E+03  0.61376000616E+03  0.17338775083E+03 0.  0.
         24    2    3    3    0    0  0.19597466769E+02  0.37711636559E+02 -0.97167603141E+02  0.12796327931E+03  0.71601882071E+02 0.  0.
         -6    2    1    2    0  502 -0.11225805077E+03 -0.85045671143E+02 -0.31438823509E+03  0.38441903284E+03  0.17059716969E+03 0.  0.
        -24    2    5    5    0    0 -0.91243108899E+02 -0.12656743064E+03 -0.23763523541E+03  0.29453690307E+03  0.77051039823E+02 0.  0.
          5    1    3    3  501    0  0.92660584004E+02  0.47334034584E+02 -0.47449960502E+03  0.48579672685E+03  0.47000000000E+01 0. -1.
        -11    1    4    4    0    0  0.11158668321E+02 -0.18610264821E+02 -0.10125319990E+02  0.23945353209E+02  0.00000000000E+00 0.  1.
         12    1    4    4    0    0  0.84387984480E+01  0.56321901381E+02 -0.87042283151E+02  0.10401792610E+03  0.00000000000E+00 0. -1.
         -5    1    5    5    0  502 -0.21014941875E+02  0.41521759497E+02 -0.76752999679E+02  0.89882129778E+02  0.47000000000E+01 0.  1.
         13    1    6    6    0    0  0.23870100467E+01 -0.16820722849E+02 -0.53376159418E+00  0.16997630293E+02  0.00000000000E+00 0. -1.
        -14    1    6    6    0    0 -0.93630118945E+02 -0.10974670779E+03 -0.23710147382E+03  0.27753927277E+03  0.00000000000E+00 0.  1.
</event>
<event>
12    1  0.8684423E-002  0.2027469E+03  0.7818608E-02  0.1147557E+00
         21   -1    0    0  501  502  0.00000000000E+00  0.00000000000E+00  0.38601755808E+03  0.38601755808E+03  0.00000000000E+00 0. -1.
         21   -1    0    0  502  503 -0.00000000000E+00 -0.00000000000E+00 -0.15859961570E+03  0.15859961570E+03  0.00000000000E+00 0. -1.
         -6    2    1    2    0  503  0.89096177772E+02  0.60925598649E+02  0.27033900912E+03  0.33791933119E+03  0.17162819429E+03 0.  0.
        -24    2    3    3    0    0  0.10362077633E+03  0.22616727933E+02  0.26765911989E+03  0.29659372962E+03  0.71257661516E+02 0.  0.
          6    2    1    2  501    0 -0.89096177772E+02 -0.60925598649E+02 -0.42921066747E+02  0.20669784258E+03  0.17097287122E+03 0.  0.
         24    2    5    5    0    0 -0.51594436382E+02  0.31875621495E+02 -0.31528085741E+02  0.10584975344E+03  0.80821463746E+02 0.  0.
          5    1    5    5  501    0 -0.37501741389E+02 -0.92801220144E+02 -0.11392981006E+02  0.10084808914E+03  0.47000000000E+01 0. -1.
        -11    1    6    6    0    0  0.14013507815E+02 -0.25436523437E+01 -0.28310876925E+02  0.31691549675E+02  0.00000000000E+00 0.  1.
         12    1    6    6    0    0 -0.65607944197E+02  0.34419273838E+02 -0.32172088157E+01  0.74158203767E+02  0.00000000000E+00 0. -1.
         -5    1    3    3    0  503 -0.14524598554E+02  0.38308870716E+02  0.26798892385E+01  0.41325601569E+02  0.47000000000E+01 0.  1.
         11    1    4    4    0    0  0.74457880994E+02  0.14359641106E+02  0.25058259938E+03  0.26180491677E+03  0.00000000000E+00 0. -1.
        -12    1    4    4    0    0  0.29162895332E+02  0.82570868264E+01  0.17076520510E+02  0.34788812854E+02  0.00000000000E+00 0.  1.
</event>
<event>
12    1  0.8684423E-002  0.1820319E+03  0.7818608E-02  0.1166017E+00
         21   -1    0    0  503  502  0.00000000000E+00  0.00000000000E+00  0.73060733319E+02  0.73060733319E+02  0.00000000000E+00 0.  1.
         21   -1    0    0  501  503 -0.00000000000E+00 -0.00000000000E+00 -0.75657750912E+03  0.75657750912E+03  0.00000000000E+00 0.  1.
          6    2    1    2  501    0  0.32269610506E+02  0.44380266220E+02 -0.60542986143E+03  0.63220323210E+03  0.17356460978E+03 0.  0.
         24    2    3    3    0    0 -0.11064541270E+02  0.86505093227E+02 -0.46241697195E+03  0.47687414171E+03  0.77291240536E+02 0.  0.
         -6    2    1    2    0  502 -0.32269610506E+02 -0.44380266220E+02 -0.78086914368E+02  0.19743501034E+03  0.17283541686E+03 0.  0.
        -24    2    5    5    0    0 -0.15612124542E+02 -0.63602814158E+02 -0.11341908221E+03  0.15364653843E+03  0.80338746313E+02 0.  0.
          5    1    3    3  501    0  0.43334151776E+02 -0.42124827007E+02 -0.14301288949E+03  0.15532909039E+03  0.47000000000E+01 0. -1.
        -13    1    4    4    0    0 -0.30721435640E+02  0.13495199886E+02 -0.23084992964E+03  0.23327583896E+03  0.00000000000E+00 0.  1.
         14    1    4    4    0    0  0.19656894370E+02  0.73009893342E+02 -0.23156704231E+03  0.24359830275E+03  0.00000000000E+00 0. -1.
         -5    1    5    5    0  502 -0.16657485963E+02  0.19222547938E+02  0.35332167845E+02  0.43788471913E+02  0.47000000000E+01 0.  1.
         13    1    6    6    0    0 -0.19509095769E+02 -0.57146095070E+02 -0.25736613648E+02  0.65640340352E+02  0.00000000000E+00 0. -1.
        -14    1    6    6    0    0  0.38969712263E+01 -0.64567190888E+01 -0.87682468565E+02  0.88006198076E+02  0.00000000000E+00 0.  1.
</event>
<event>
12    1  0.8684423E-002  0.2610573E+03  0.7818608E-02  0.1106607E+00
         21   -1    0    0  503  502  0.00000000000E+00  0.00000000000E+00  0.85424649516E+02  0.85424649516E+02  0.00000000000E+00 0. -1.
         21   -1    0    0  501  503 -0.00000000000E+00 -0.00000000000E+00 -0.10880424495E+04  0.10880424495E+04  0.00000000000E+00 0. -1.
          6    2    1    2  501    0  0.12780313268E+03  0.14984832186E+03 -0.80584287192E+03  0.84707358526E+03  0.17135566617E+03 0.  0.
         24    2    3    3    0    0  0.14740943832E+03  0.16427488660E+03 -0.69229732492E+03  0.73085304390E+03  0.78452564063E+02 0.  0.
         -6    2    1    2    0  502 -0.12780313268E+03 -0.14984832186E+03 -0.19677492809E+03  0.32639351379E+03  0.17036488261E+03 0.  0.
        -24    2    5    5    0    0 -0.67979893431E+02 -0.16121877968E+03 -0.11284123983E+03  0.22259052110E+03  0.78744103547E+02 0.  0.
          5    1    3    3  501    0 -0.19606305636E+02 -0.14426564740E+02 -0.11354554700E+03  0.11622054136E+03  0.47000000000E+01 0. -1.
        -11    1    4    4    0    0  0.34110949027E+02  0.76182494932E+02 -0.17292125862E+03  0.19201325751E+03  0.00000000000E+00 0.  1.
         12    1    4    4    0    0  0.11329848929E+03  0.88092391670E+02 -0.51937606630E+03  0.53883978639E+03  0.00000000000E+00 0. -1.
         -5    1    5    5    0  502 -0.59823239251E+02  0.11370457822E+02 -0.83933688260E+02  0.10380299269E+03  0.47000000000E+01 0.  1.
         13    1    6    6    0    0 -0.38960765518E+02 -0.14127524869E+03 -0.11646676481E+03  0.18719280020E+03  0.00000000000E+00 0. -1.
        -14    1    6    6    0    0 -0.29019127913E+02 -0.19943530998E+02  0.36255249810E+01  0.35397720900E+02  0.00000000000E+00 0.  1.
</event>
<event>
12    1  0.8684423E-002  0.2775785E+03  0.7818608E-02  0.1097080E+00
         21   -1    0    0  503  502  0.00000000000E+00  0.00000000000E+00  0.19602392934E+03  0.19602392934E+03  0.00000000000E+00 0.  1.
         21   -1    0    0  501  503 -0.00000000000E+00 -0.00000000000E+00 -0.39462173724E+03  0.39462173724E+03  0.00000000000E+00 0. -1.
          6    2    1    2  501    0  0.28883616122E+01  0.21740245173E+03 -0.77267587503E+02  0.28770863638E+03  0.17185403899E+03 0.  0.
         24    2    3    3    0    0  0.57068411122E+02  0.78354236220E+02 -0.22641645089E+02  0.12872446237E+03  0.81615888393E+02 0.  0.
         -6    2    1    2    0  502 -0.28883616122E+01 -0.21740245173E+03 -0.12133022040E+03  0.30293703020E+03  0.17256202721E+03 0.  0.
        -24    2    5    5    0    0  0.82488102578E+01 -0.11393575930E+03  0.25889978524E+01  0.14104986057E+03  0.82698005651E+02 0.  0.
          5    1    3    3  501    0 -0.54180049509E+02  0.13904821551E+03 -0.54625942414E+02  0.15898417401E+03  0.47000000000E+01 0. -1.
        -11    1    4    4    0    0 -0.13934959295E+02  0.22479138718E+02  0.15495889616E+02  0.30653178677E+02  0.00000000000E+00 0.  1.
         12    1    4    4    0    0  0.71003370417E+02  0.55875097502E+02 -0.38137534705E+02  0.98071283691E+02  0.00000000000E+00 0. -1.
         -5    1    5    5    0  502 -0.11137171870E+02 -0.10346669243E+03 -0.12391921825E+03  0.16188716963E+03  0.47000000000E+01 0.  1.
         11    1    6    6    0    0 -0.19004506990E+02  0.42450526610E+01  0.33842657972E+01  0.19764741663E+02  0.00000000000E+00 0. -1.
        -12    1    6    6    0    0  0.27253317248E+02 -0.11818081196E+03 -0.79526794484E+00  0.12128511890E+03  0.00000000000E+00 0.  1.
</event>
<event>
12    1  0.8684423E-002  0.2166473E+03  0.7818608E-02  0.1136753E+00
         21   -1    0    0  503  502  0.00000000000E+00  0.00000000000E+00  0.16491931611E+03  0.16491931611E+03  0.00000000000E+00 0.  1.
         21   -1    0    0  501  503 -0.00000000000E+00 -0.00000000000E+00 -0.28361978712E+03  0.28361978712E+03  0.00000000000E+00 0.  1.
          6    2    1    2  501    0 -0.43651370960E+02  0.12428761220E+03 -0.43890406755E+02  0.22104848288E+03  0.17199770710E+03 0.  0.
         24    2    3    3    0    0 -0.23879902212E+02  0.14343743685E+03  0.37715014447E+01  0.16580923729E+03  0.79585997048E+02 0.  0.
         -6    2    1    2    0  502  0.43651370960E+02 -0.12428761220E+03 -0.74810064257E+02  0.22749062035E+03  0.16971324020E+03 0.  0.
        -24    2    5    5    0    0 -0.17801837960E+02 -0.19244163575E+02  0.71025307458E+01  0.80717372766E+02  0.76010558851E+02 0.  0.
          5    1    3    3  501    0 -0.19771468748E+02 -0.19149824653E+02 -0.47661908200E+02  0.55239245595E+02  0.47000000000E+01 0. -1.
        -11    1    4    4    0    0  0.20409143676E+02  0.56122153442E+02 -0.23501768362E+02  0.64176026433E+02  0.00000000000E+00 0.  1.
         12    1    4    4    0    0 -0.44289045887E+02  0.87315283410E+02  0.27273269807E+02  0.10163321085E+03  0.00000000000E+00 0. -1.
         -5    1    5    5    0  502  0.61453208921E+02 -0.10504344862E+03 -0.81912595003E+02  0.14677324758E+03  0.47000000000E+01 0.  1.
         11    1    6    6    0    0  0.21465900386E+02  0.16351139943E+02 -0.14913122298E+01  0.27025333836E+02  0.00000000000E+00 0. -1.
        -12    1    6    6    0    0 -0.39267738346E+02 -0.35595303518E+02  0.85938429755E+01  0.53692038930E+02  0.00000000000E+00 0.  1.
</event>
<event>
12    1  0.8684423E-002  0.2956275E+03  0.7818608E-02  0.1087632E+00
         21   -1    0    0  503  502  0.00000000000E+00  0.00000000000E+00  0.15610235557E+04  0.15610235557E+04  0.00000000000E+00 0.  1.
         21   -1    0    0  501  503 -0.00000000000E+00 -0.00000000000E+00 -0.68095653046E+02  0.68095653046E+02  0.00000000000E+00 0. -1.
          6    2    1    2  501    0  0.29600090807E+02 -0.23811309476E+03  0.39759137285E+03  0.49458947611E+03  0.17019353349E+03 0.  0.
         24    2    3    3    0    0 -0.24818114477E+02 -0.50436035317E+02  0.13878584256E+03  0.17026492844E+03  0.81048771118E+02 0.  0.
         -6    2    1    2    0  502 -0.29600090807E+02  0.23811309476E+03  0.10953365298E+04  0.11345297327E+04  0.17268928582E+03 0.  0.
        -24    2    5    5    0    0 -0.60844939439E+02  0.23500883687E+03  0.85985966959E+03  0.89692224395E+03  0.78610433417E+02 0.  0.
          5    1    3    3  501    0  0.54418205284E+02 -0.18767705944E+03  0.25880553029E+03  0.32432454766E+03  0.47000000000E+01 0. -1.
        -13    1    4    4    0    0  0.24598413347E+02  0.99328131267E+00  0.20031147571E+02  0.31738232779E+02  0.00000000000E+00 0.  1.
         14    1    4    4    0    0 -0.49416527823E+02 -0.51429316630E+02  0.11875469498E+03  0.13852669567E+03  0.00000000000E+00 0. -1.
         -5    1    5    5    0  502  0.31244848632E+02  0.31042578935E+01  0.23547686026E+03  0.23760748873E+03  0.47000000000E+01 0.  1.
         11    1    6    6    0    0  0.11212610599E+02  0.42537882972E+01  0.24355202590E+02  0.27147619500E+02  0.00000000000E+00 0. -1.
        -12    1    6    6    0    0 -0.72057550038E+02  0.23075504857E+03  0.83550446700E+03  0.86977462445E+03  0.00000000000E+00 0.  1.
</event>
<event>
12    1  0.8684423E-002  0.1815900E+03  0.7818608E-02  0.1166582E+00
         21   -1    0    0  501  502  0.00000000000E+00  0.00000000000E+00  0.27179387951E+03  0.27179387951E+03  0.00000000000E+00 0.  1.
         21   -1    0    0  502  503 -0.00000000000E+00 -0.00000000000E+00 -0.18333773156E+03  0.18333773156E+03  0.00000000000E+00 0.  1.
         -6    2    1    2    0  503 -0.47076190026E+02  0.34914888701E+02 -0.89137936347E+02  0.20113441955E+03  0.17051177646E+03 0.  0.
        -24    2    3    3    0    0 -0.87589952242E+02  0.44728928794E+02 -0.32944822552E+02  0.13100998479E+03  0.80034854766E+02 0.  0.
          6    2    1    2  501    0  0.47076190026E+02 -0.34914888701E+02  0.17759408430E+03  0.25399719153E+03  0.17187116514E+03 0.  0.
         24    2    5    5    0    0 -0.32408623125E+02 -0.20497681554E+02  0.44905735814E+02  0.98581686486E+02  0.78938900420E+02 0.  0.
          5    1    5    5  501    0  0.79484813151E+02 -0.14417207147E+02  0.13268834849E+03  0.15541550504E+03  0.47000000000E+01 0. -1.
        -13    1    6    6    0    0  0.62545367916E+01 -0.20347528930E+02  0.54700751539E+02  0.58696791931E+02  0.00000000000E+00 0.  1.
         14    1    6    6    0    0 -0.38663159917E+02 -0.15015262449E+00 -0.97950157258E+01  0.39884894555E+02  0.00000000000E+00 0. -1.
         -5    1    3    3    0  503  0.40513762217E+02 -0.98140400929E+01 -0.56193113795E+02  0.70124434756E+02  0.47000000000E+01 0.  1.
         13    1    4    4    0    0 -0.52007171759E+02  0.63726493252E+02 -0.37533228233E+02  0.90413246143E+02  0.00000000000E+00 0. -1.
        -14    1    4    4    0    0 -0.35582780483E+02 -0.18997564458E+02  0.45884056809E+01  0.40596738649E+02  0.00000000000E+00 0.  1.
</event>
<event>
12    1  0.8684423E-002  0.2574003E+03  0.7818608E-02  0.1108927E+00
         21   -1    0    0  501  502  0.00000000000E+00  0.00000000000E+00  0.18164254774E+03  0.18164254774E+03  0.00000000000E+00 0.  1.
         21   -1    0    0  502  503 -0.00000000000E+00 -0.00000000000E+00 -0.36641695553E+03  0.36641695553E+03  0.00000000000E+00 0.  1.
         -6    2    1    2    0  503 -0.18750667294E+03 -0.36502811249E+02 -0.65389163758E+02  0.26557608028E+03  0.17252160461E+03 0.  0.
        -24    2    3    3    0    0 -0.13355295898E+03  0.40935192452E+02 -0.42615291689E+02  0.16837326697E+03  0.83793860818E+02 0.  0.
          6    2    1    2  501    0  0.18750667294E+03  0.36502811249E+02 -0.11938524403E+03  0.28248342300E+03  0.17044893707E+03 0.  0.
         24    2    5    5    0    0  0.14358434035E+03 -0.37527164519E+02 -0.67275654262E+02  0.18175056858E+03  0.80514002836E+02 0.  0.
          5    1    5    5  501    0  0.43922332587E+02  0.74029975768E+02 -0.52109589771E+02  0.10073285441E+03  0.47000000000E+01 0. -1.
        -13    1    6    6    0    0  0.12412607215E+03 -0.30046031737E+01 -0.30880414323E+02  0.12794494682E+03  0.00000000000E+00 0.  1.
         14    1    6    6    0    0  0.19458268203E+02 -0.34522561346E+02 -0.36395239939E+02  0.53805621765E+02  0.00000000000E+00 0. -1.
         -5    1    3    3    0  503 -0.53953713962E+02 -0.77438003701E+02 -0.22773872069E+02  0.97202813316E+02  0.47000000000E+01 0.  1.
         13    1    4    4    0    0 -0.36283261119E+02  0.28226417571E+02  0.21944359969E+02  0.50938792886E+02  0.00000000000E+00 0. -1.
        -14    1    4    4    0    0 -0.97269697859E+02  0.12708774881E+02 -0.64559651658E+02  0.11743447408E+03  0.00000000000E+00 0.  1.
</event>
<event>
12    1  0.8684423E-002  0.2081323E+03  0.7818608E-02  0.1143492E+00
         21   -1    0    0  501  502  0.00000000000E+00  0.00000000000E+00  0.53488898230E+02  0.53488898230E+02  0.00000000000E+00 0. -1.
         21   -1    0    0  502  503 -0.00000000000E+00 -0.00000000000E+00 -0.10929032818E+04  0.10929032818E+04  0.00000000000E+00 0. -1.
         -6    2    1    2    0  503  0.53262666584E+02  0.10139191355E+03 -0.81371664074E+03  0.83937666463E+03  0.17117588009E+03 0.  0.
        -24    2    3    3    0    0  0.39329695596E+02  0.85637656112E+02 -0.80763211197E+03  0.81698390244E+03  0.79450836764E+02 0.  0.
          6    2    1    2  501    0 -0.53262666584E+02 -0.10139191355E+03 -0.22569774282E+03  0.30701551539E+03  0.17378671926E+03 0.  0.
         24    2    5    5    0    0 -0.14041289366E+02 -0.13266465358E+03 -0.18932784462E+03  0.24487728083E+03  0.79515921680E+02 0.  0.
          5    1    5    5  501    0 -0.39221377218E+02  0.31272740027E+02 -0.36369898199E+02  0.62138234563E+02  0.47000000000E+01 0. -1.
        -13    1    6    6    0    0  0.25660667582E+02 -0.57199204925E+02 -0.44744618557E+02  0.77021424258E+02  0.00000000000E+00 0.  1.
         14    1    6    6    0    0 -0.39701956948E+02 -0.75465448650E+02 -0.14458322606E+03  0.16785585657E+03  0.00000000000E+00 0. -1.
         -5    1    3    3    0  503  0.13932970988E+02  0.15754257436E+02 -0.60845287643E+01  0.22392762183E+02  0.47000000000E+01 0.  1.
         13    1    4    4    0    0  0.49481047109E+02  0.15718970046E+02 -0.30010663436E+03  0.30456436435E+03  0.00000000000E+00 0. -1.
        -14    1    4    4    0    0 -0.10151351513E+02  0.69918686066E+02 -0.50752547761E+03  0.51241953810E+03  0.00000000000E+00 0.  1.
</event>
<event>
12    1  0.8684423E-002  0.1876135E+03  0.7818608E-02  0.1163220E+00
         21   -1    0    0  501  502  0.00000000000E+00  0.00000000000E+00  0.67003604837E+02  0.67003604837E+02  0.00000000000E+00 0. -1.
         21   -1    0    0  502  503 -0.00000000000E+00 -0.00000000000E+00 -0.50427907550E+03  0.50427907550E+03  0.00000000000E+00 0. -1.
         -6    2    1    2    0  503  0.15829783978E+02  0.37887003987E+02 -0.17378841597E+03  0.24782598353E+03  0.17184090739E+03 0.  0.
        -24    2    3    3    0    0  0.71949359796E+02  0.17479811208E+02 -0.72160689797E+02  0.12985927198E+03  0.78574876335E+02 0.  0.
          6    2    1    2  501    0 -0.15829783978E+02 -0.37887003987E+02 -0.26348705469E+03  0.32345669681E+03  0.18306501465E+03 0.  0.
         24    2    5    5    0    0 -0.67594671873E+02 -0.14007511360E+02 -0.81658357933E+02  0.13284295451E+03  0.78828377526E+02 0.  0.
          5    1    5    5  501    0  0.51764887895E+02 -0.23879492627E+02 -0.18182869675E+03  0.19061374229E+03  0.47000000000E+01 0. -1.
        -11    1    6    6    0    0 -0.28477206713E+02  0.32439583594E+02 -0.25524172184E+02  0.50147395262E+02  0.00000000000E+00 0.  1.
         12    1    6    6    0    0 -0.39117465160E+02 -0.46447094953E+02 -0.56134185749E+02  0.82695559251E+02  0.00000000000E+00 0. -1.
         -5    1    3    3    0  503 -0.56119575818E+02  0.20407192778E+02 -0.10162772617E+03  0.11796671155E+03  0.47000000000E+01 0.  1.
         13    1    4    4    0    0  0.65583029347E+02  0.23531941860E+02 -0.87699629173E+02  0.11200942364E+03  0.00000000000E+00 0. -1.
        -14    1    4    4    0    0  0.63663304492E+01 -0.60521306524E+01  0.15538939376E+02  0.17849848340E+02  0.00000000000E+00 0.  1.
</event>
<event>
12    1  0.8684423E-002  0.1937645E+03  0.7818608E-02  0.1156008E+00
         21   -1    0    0  503  502  0.00000000000E+00  0.00000000000E+00  0.69131754017E+02  0.69131754017E+02  0.00000000000E+00 0.  1.
         21   -1    0    0  501  503 -0.00000000000E+00 -0.00000000000E+00 -0.53367223983E+03  0.53367223983E+03  0.00000000000E+00 0.  1.
          6    2    1    2  501    0  0.77247580516E+02 -0.86090062534E+01 -0.21202652180E+03  0.28451485941E+03  0.17306691074E+03 0.  0.
         24    2    3    3    0    0  0.10923120013E+03 -0.91901408710E+01 -0.21214349135E+03  0.25218231662E+03  0.81087274720E+02 0.  0.
         -6    2    1    2    0  502 -0.77247580516E+02  0.86090062534E+01 -0.25251396402E+03  0.31828913444E+03  0.17749187981E+03 0.  0.
        -24    2    5    5    0    0  0.18286176691E+02  0.69423270254E+00 -0.54619585867E+02  0.98349103276E+02  0.79714369708E+02 0.  0.
          5    1    3    3  501    0 -0.31983619616E+02  0.58113461760E+00  0.11696955069E+00  0.32332542787E+02  0.47000000000E+01 0. -1.
        -13    1    4    4    0    0  0.98516294370E+02 -0.12344284101E+02 -0.21801853319E+03  0.23956193859E+03  0.00000000000E+00 0.  1.
         14    1    4    4    0    0  0.10714905763E+02  0.31541432299E+01  0.58750418390E+01  0.12620378030E+02  0.00000000000E+00 0. -1.
         -5    1    5    5    0  502 -0.95533757207E+02  0.79147735508E+01 -0.19789437815E+03  0.21994003117E+03  0.47000000000E+01 0.  1.
         11    1    6    6    0    0  0.29971816307E+02  0.22395850658E+02 -0.62179119771E+02  0.72568084135E+02  0.00000000000E+00 0. -1.
        -12    1    6    6    0    0 -0.11685639616E+02 -0.21701617956E+02  0.75595339041E+01  0.25781019142E+02  0.00000000000E+00 0.  1.
</event>
<event>
12    1  0.8684423E-002  0.2181415E+03  0.7818608E-02  0.1135451E+00
         21   -1    0    0  503  502  0.00000000000E+00  0.00000000000E+00  0.30115445705E+02  0.30115445705E+02  0.00000000000E+00 0.  1.
         21   -1    0    0  501  503 -0.00000000000E+00 -0.00000000000E+00 -0.24864874784E+04  0.24864874784E+04  0.00000000000E+00 0.  1.
          6    2    1    2  501    0  0.11051302978E+03  0.72086401299E+02 -0.46402578027E+03  0.51235011971E+03  0.17254895368E+03 0.  0.
         24    2    3    3    0    0  0.13833947915E+03  0.29322218400E+02 -0.31064138610E+03  0.35063447731E+03  0.80304806450E+02 0.  0.
         -6    2    1    2    0  502 -0.11051302978E+03 -0.72086401299E+02 -0.19923462524E+04  0.20042528043E+04  0.17371279556E+03 0.  0.
        -24    2    5    5    0    0 -0.97905665411E+02 -0.88609497660E+02 -0.19551071591E+04  0.19613482776E+04  0.83701254176E+02 0.  0.
          5    1    3    3  501    0 -0.27826449370E+02  0.42764182899E+02 -0.15338439416E+03  0.16171564240E+03  0.47000000000E+01 0. -1.
        -11    1    4    4    0    0  0.19843720170E+02 -0.58072114923E+00 -0.36141755749E+01  0.20178521559E+02  0.00000000000E+00 0.  1.
         12    1    4    4    0    0  0.11849575898E+03  0.29902939549E+02 -0.30702721053E+03  0.33045595576E+03  0.00000000000E+00 0. -1.
         -5    1    5    5    0  502 -0.12607364364E+02  0.16523096361E+02 -0.37239093269E+02  0.42904526766E+02  0.47000000000E+01 0.  1.
         11    1    6    6    0    0 -0.92395650497E+01 -0.57603092618E+02 -0.97733353800E+03  0.97907319969E+03  0.00000000000E+00 0. -1.
        -12    1    6    6    0    0 -0.88666100361E+02 -0.31006405042E+02 -0.97777362111E+03  0.98227507789E+03  0.00000000000E+00 0.  1.
</event>
<event>
12    1  0.8684423E-002  0.1821751E+03  0.7818608E-02  0.1167818E+00
         21   -1    0    0  501  502  0.00000000000E+00  0.00000000000E+00  0.72384265940E+02  0.72384265940E+02  0.00000000000E+00 0. -1.
         21   -1    0    0  502  503 -0.00000000000E+00 -0.00000000000E+00 -0.43906566633E+03  0.43906566633E+03  0.00000000000E+00 0. -1.
         -6    2    1    2    0  503 -0.54695153359E+01  0.31354900592E+02 -0.19604779703E+03  0.26184302452E+03  0.17062820805E+03 0.  0.
        -24    2    3    3    0    0  0.16161217272E+02  0.95224487344E+00 -0.20674263243E+03  0.22274469243E+03  0.81305536272E+02 0.  0.
          6    2    1    2  501    0  0.54695153359E+01 -0.31354900592E+02 -0.17063360337E+03  0.24960690775E+03  0.17937317639E+03 0.  0.
         24    2    5    5    0    0  0.54337608609E+02  0.18198277972E+02 -0.48589204913E+02  0.10903474393E+03  0.79018425195E+02 0.  0.
          5    1    5    5  501    0 -0.48868093273E+02 -0.49553178564E+02 -0.12204439845E+03  0.14057216381E+03  0.47000000000E+01 0. -1.
        -11    1    6    6    0    0  0.16865703721E+02 -0.30928143605E+02 -0.23511058784E+02  0.42352944573E+02  0.00000000000E+00 0.  1.
         12    1    6    6    0    0  0.37471904888E+02  0.49126421577E+02 -0.25078146129E+02  0.66681799362E+02  0.00000000000E+00 0. -1.
         -5    1    3    3    0  503 -0.21630732608E+02  0.30402655718E+02  0.10694835404E+02  0.39098332090E+02  0.47000000000E+01 0.  1.
         11    1    4    4    0    0  0.42439264728E+02  0.22941670204E+02 -0.11003298102E+03  0.12014436456E+03  0.00000000000E+00 0. -1.
        -12    1    4    4    0    0 -0.26278047455E+02 -0.21989425331E+02 -0.96709651407E+02  0.10260032787E+03  0.00000000000E+00 0.  1.
</event>
<event>
12    1  0.8684423E-002  0.1944991E+03  0.7818608E-02  0.1157562E+00
         21   -1    0    0  503  502  0.00000000000E+00  0.00000000000E+00  0.21360183039E+04  0.21360183039E+04  0.00000000000E+00 0.  1.
         21   -1    0    0  501  503 -0.00000000000E+00 -0.00000000000E+00 -0.39948208688E+02  0.39948208688E+02  0.00000000000E+00 0.  1.
          6    2    1    2  501    0  0.47483028568E+02 -0.26741582911E+02  0.19887710881E+03  0.26882961705E+03  0.17247465998E+03 0.  0.
         24    2    3    3    0    0  0.62808840604E+02 -0.33137143825E+02  0.48752914728E+02  0.11771658862E+03  0.80232959450E+02 0.  0.
         -6    2    1    2    0  502 -0.47483028568E+02  0.26741582911E+02  0.18971929864E+04  0.19071368955E+04  0.18670875825E+03 0.  0.
        -24    2    5    5    0    0 -0.80349807447E+02  0.46849725056E+02  0.17677371097E+04  0.17719870655E+04  0.79954256602E+02 0.  0.
          5    1    3    3  501    0 -0.15325812036E+02  0.63955609144E+01  0.15012419408E+03  0.15111302843E+03  0.47000000000E+01 0. -1.
        -13    1    4    4    0    0  0.23430455206E+02 -0.46199877754E+02  0.55234449417E+02  0.75724892460E+02  0.00000000000E+00 0.  1.
         14    1    4    4    0    0  0.39378385398E+02  0.13062733928E+02 -0.64815346887E+01  0.41991696157E+02  0.00000000000E+00 0. -1.
         -5    1    5    5    0  502  0.32866778878E+02 -0.20108142146E+02  0.12945587669E+03  0.13514982998E+03  0.47000000000E+01 0.  1.
         11    1    6    6    0    0 -0.51322401174E+02 -0.15521775086E+02  0.82958266741E+03  0.83131360896E+03  0.00000000000E+00 0. -1.
        -12    1    6    6    0    0 -0.29027406272E+02  0.62371500142E+02  0.93815444229E+03  0.94067345659E+03  0.00000000000E+00 0.  1.
</event>
<event>
12    1  0.8684423E-002  0.1842129E+03  0.7818608E-02  0.1163877E+00
         21   -1    0    0  503  502  0.00000000000E+00  0.00000000000E+00  0.58368988634E+02  0.58368988634E+02  0.00000000000E+00 0. -1.
         21   -1    0    0  501  503 -0.00000000000E+00 -0.00000000000E+00 -0.62904006170E+03  0.62904006170E+03  0.00000000000E+00 0. -1.
          6    2    1    2  501    0  0.35624916649E+02  0.52578455347E+02 -0.38141257242E+03  0.42356808799E+03  0.17291832208E+03 0.  0.
         24    2    3    3    0    0  0.42738456706E+02 -0.15633990603E+02 -0.11496869429E+03  0.14839910277E+03  0.82057880133E+02 0.  0.
         -6    2    1    2    0  502 -0.35624916649E+02 -0.52578455347E+02 -0.18925850065E+03  0.26384096234E+03  0.17250983940E+03 0.  0.
        -24    2    5    5    0    0 -0.56521543094E+02  0.14052842347E+02 -0.15970020145E+03  0.18786608570E+03  0.79983402050E+02 0.  0.
          5    1    3    3  501    0 -0.71135400565E+01  0.68212445950E+02 -0.26644387813E+03  0.27516898522E+03  0.47000000000E+01 0. -1.
        -13    1    4    4    0    0  0.41686279033E+02  0.88043299996E+01 -0.14515634475E+02  0.45010729060E+02  0.00000000000E+00 0.  1.
         14    1    4    4    0    0  0.10521776733E+01 -0.24438320602E+02 -0.10045305982E+03  0.10338837371E+03  0.00000000000E+00 0. -1.
         -5    1    5    5    0  502  0.20896626445E+02 -0.66631297694E+02 -0.29558299200E+02  0.75974876642E+02  0.47000000000E+01 0.  1.
         11    1    6    6    0    0  0.84628148230E+01  0.28776298267E+02 -0.32207770064E+02  0.44011760123E+02  0.00000000000E+00 0. -1.
        -12    1    6    6    0    0 -0.64984357917E+02 -0.14723455920E+02 -0.12749243138E+03  0.14385432558E+03  0.00000000000E+00 0.  1.
</event>
<event>
12    1  0.8684423E-002  0.1799270E+03  0.7818608E-02  0.1168163E+00
         21   -1    0    0  501  502  0.00000000000E+00  0.00000000000E+00  0.18797312713E+03  0.18797312713E+03  0.00000000000E+00 0. -1.
         21   -1    0    0  502  503 -0.00000000000E+00 -0.00000000000E+00 -0.17235362903E+03  0.17235362903E+03  0.00000000000E+00 0. -1.
         -6    2    1    2    0  503  0.33554098484E+02  0.42096165181E+02  0.23225589293E+02  0.18023910910E+03  0.17043692031E+03 0.  0.
        -24    2    3    3    0    0  0.81893177438E+02  0.64081011331E+01  0.43803902100E+02  0.11655346372E+03  0.70131104332E+02 0.  0.
          6    2    1    2  501    0 -0.33554098484E+02 -0.42096165181E+02 -0.76060911897E+01  0.18008764706E+03  0.17168501202E+03 0.  0.
         24    2    5    5    0    0 -0.52167414238E+02  0.15431645158E+02  0.49743401734E+02  0.96619336761E+02  0.62460511041E+02 0.  0.
          5    1    5    5  501    0  0.18613315754E+02 -0.57527810339E+02 -0.57349492923E+02  0.83468310300E+02  0.47000000000E+01 0. -1.
        -11    1    6    6    0    0 -0.11054043588E+02 -0.69081248313E+01  0.48062097991E+02  0.49798386838E+02  0.00000000000E+00 0.  1.
         12    1    6    6    0    0 -0.41113370650E+02  0.22339769990E+02  0.16813037423E+01  0.46820949923E+02  0.00000000000E+00 0. -1.
         -5    1    3    3    0  503 -0.48339078954E+02  0.35688064048E+02 -0.20578312807E+02  0.63685645381E+02  0.47000000000E+01 0.  1.
         13    1    4    4    0    0  0.14835142056E+02  0.30310153344E+02  0.27470230896E+02  0.43513221221E+02  0.00000000000E+00 0. -1.
        -14    1    4    4    0    0  0.67058035382E+02 -0.23902052211E+02  0.16333671204E+02  0.73040242498E+02  0.00000000000E+00 0.  1.
</event>
<event>
12    1  0.8684423E-002  0.2010031E+03  0.7818608E-02  0.1148964E+00
         21   -1    0    0  501  502  0.00000000000E+00  0.00000000000E+00  0.17824136871E+04  0.17824136871E+04  0.00000000000E+00 0.  1.
         21   -1    0    0  502  503 -0.00000000000E+00 -0.00000000000E+00 -0.23557455283E+02  0.23557455283E+02  0.00000000000E+00 0.  1.
         -6    2    1    2    0  503 -0.93587977176E+02  0.47430847803E+02  0.70099106432E+03  0.72923983063E+03  0.17144638673E+03 0.  0.
        -24    2    3    3    0    0  0.22579444706E+01 -0.23060941521E+02  0.27006127422E+03  0.28216253636E+03  0.78394513537E+02 0.  0.
          6    2    1    2  501    0  0.93587977176E+02 -0.47430847803E+02  0.10578651675E+04  0.10767313117E+04  0.17106493011E+03 0.  0.
         24    2    5    5    0    0  0.11311188551E+03 -0.56565270521E+02  0.10316685886E+04  0.10424826414E+04  0.80225011129E+02 0.  0.
          5    1    5    5  501    0 -0.19523908338E+02  0.91344227183E+01  0.26196578830E+02  0.34248670304E+02  0.47000000000E+01 0. -1.
        -11    1    6    6    0    0  0.62471907840E+02 -0.77271704998E+01  0.73044648660E+03  0.73315381621E+03  0.00000000000E+00 0.  1.
         12    1    6    6    0    0  0.50639977673E+02 -0.48838100021E+02  0.30122210202E+03  0.30932882520E+03  0.00000000000E+00 0. -1.
         -5    1    3    3    0  503 -0.95845921646E+02  0.70491789324E+02  0.43092979010E+03  0.44707729428E+03  0.47000000000E+01 0.  1.
         11    1    4    4    0    0 -0.19861975238E+02 -0.41118265907E+02  0.21851816112E+03  0.22323842992E+03  0.00000000000E+00 0. -1.
        -12    1    4    4    0    0  0.22119919708E+02  0.18057324386E+02  0.51543113097E+02  0.58924106439E+02  0.00000000000E+00 0.  1.
</event>
<event>
12    1  0.8684423E-002  0.2241958E+03  0.7818608E-02  0.1130883E+00
         21   -1    0    0  503  502  0.00000000000E+00  0.00000000000E+00  0.66119259106E+02  0.66119259106E+02  0.00000000000E+00 0.  1.
         21   -1    0    0  501  503 -0.00000000000E+00 -0.00000000000E+00 -0.85752751942E+03  0.85752751942E+03  0.00000000000E+00 0. -1.
          6    2    1    2  501    0 -0.97810579879E+02  0.10425094062E+03 -0.55223755270E+03  0.59582610909E+03  0.17206763062E+03 0.  0.
         24    2    3    3    0    0 -0.12214019666E+03  0.43848741940E+02 -0.44874216247E+03  0.47345886814E+03  0.77154595700E+02 0.  0.
         -6    2    1    2    0  502  0.97810579879E+02 -0.10425094062E+03 -0.23917070762E+03  0.32782066944E+03  0.17270957059E+03 0.  0.
        -24    2    5    5    0    0  0.11887002793E+03 -0.10587437972E+03 -0.24703350740E+03  0.30479786495E+03  0.80849965232E+02 0.  0.
          5    1    3    3  501    0  0.24329616781E+02  0.60402198679E+02 -0.10349539023E+03  0.12236724095E+03  0.47000000000E+01 0. -1.
        -13    1    4    4    0    0 -0.44806241713E+02 -0.10596876884E+02 -0.23878227761E+03  0.24318073361E+03  0.00000000000E+00 0.  1.
         14    1    4    4    0    0 -0.77333954946E+02  0.54445618824E+02 -0.20995988485E+03  0.23027813453E+03  0.00000000000E+00 0. -1.
         -5    1    5    5    0  502 -0.21059448047E+02  0.16234391057E+01  0.78627997752E+01  0.23022804496E+02  0.47000000000E+01 0.  1.
         11    1    6    6    0    0  0.35462534774E+01 -0.29175775289E+02 -0.93571328666E+02  0.98078516128E+02  0.00000000000E+00 0. -1.
        -12    1    6    6    0    0  0.11532377445E+03 -0.76698604435E+02 -0.15346217873E+03  0.20671934882E+03  0.00000000000E+00 0.  1.
</event>
<event>
12    1  0.8684423E-002  0.1994338E+03  0.7818608E-02  0.1151102E+00
         21   -1    0    0  501  502  0.00000000000E+00  0.00000000000E+00  0.20023445648E+03  0.20023445648E+03  0.00000000000E+00 0.  1.
         21   -1    0    0  502  503 -0.00000000000E+00 -0.00000000000E+00 -0.28238969901E+03  0.28238969901E+03  0.00000000000E+00 0.  1.
         -6    2    1    2    0  503  0.91655398217E+02 -0.41073502098E+01 -0.17536648658E+03  0.26248291567E+03  0.17241314931E+03 0.  0.
        -24    2    3    3    0    0 -0.30931107944E+02 -0.13201060086E+02 -0.26015992242E+02  0.68994396086E+02  0.54335931141E+02 0.  0.
          6    2    1    2  501    0 -0.91655398217E+02  0.41073502098E+01  0.93211244049E+02  0.22014123982E+03  0.17707695250E+03 0.  0.
         24    2    5    5    0    0 -0.11716199478E+03 -0.20076748441E+02  0.29265303996E+02  0.14702058375E+03  0.81416123573E+02 0.  0.
          5    1    5    5  501    0  0.25506596567E+02  0.24184098651E+02  0.63945940053E+02  0.73120656077E+02  0.47000000000E+01 0. -1.
        -13    1    6    6    0    0 -0.36055833667E+02  0.29125158886E+02  0.23539536314E+02  0.51984688048E+02  0.00000000000E+00 0.  1.
         14    1    6    6    0    0 -0.81106161117E+02 -0.49201907327E+02  0.57257676819E+01  0.95035895699E+02  0.00000000000E+00 0. -1.
         -5    1    3    3    0  503  0.12258650616E+03  0.90937098764E+01 -0.14935049434E+03  0.19348851959E+03  0.47000000000E+01 0.  1.
         13    1    4    4    0    0 -0.91332201245E+01 -0.32719975921E+02 -0.18929021417E+02  0.38888563691E+02  0.00000000000E+00 0. -1.
        -14    1    4    4    0    0 -0.21797887820E+02  0.19518915835E+02 -0.70869708246E+01  0.30105832396E+02  0.00000000000E+00 0.  1.
</event>
<event>
12    1  0.8684423E-002  0.2458599E+03  0.7818608E-02  0.1116080E+00
         21   -1    0    0  503  502  0.00000000000E+00  0.00000000000E+00  0.44215982763E+03  0.44215982763E+03  0.00000000000E+00 0.  1.
         21   -1    0    0  501  503 -0.00000000000E+00 -0.00000000000E+00 -0.13653261557E+03  0.13653261557E+03  0.00000000000E+00 0. -1.
          6    2    1    2  501    0 -0.46668050000E+02 -0.16942215508E+03  0.16551196679E+03  0.29570946485E+03  0.17078671767E+03 0.  0.
         24    2    3    3    0    0 -0.19641018741E+02 -0.90665205021E+01  0.26061777252E+02  0.81436659017E+02  0.74059042575E+02 0.  0.
         -6    2    1    2    0  502  0.46668050000E+02  0.16942215508E+03  0.14011524527E+03  0.28298297835E+03  0.17194566164E+03 0.  0.
        -24    2    5    5    0    0  0.31545781738E+02  0.45260873324E+02  0.24285705792E+01  0.96906603518E+02  0.79632335460E+02 0.  0.
          5    1    3    3  501    0 -0.27027031258E+02 -0.16035563458E+03  0.13945018954E+03  0.21427280584E+03  0.47000000000E+01 0. -1.
        -11    1    4    4    0    0  0.17809739544E+02 -0.84904568137E+01 -0.15791128428E+02  0.25271217156E+02  0.00000000000E+00 0.  1.
         12    1    4    4    0    0 -0.37450758285E+02 -0.57606368833E+00  0.41852905681E+02  0.56165441861E+02  0.00000000000E+00 0. -1.
         -5    1    5    5    0  502  0.15122268262E+02  0.12416128176E+03  0.13768667469E+03  0.18607637484E+03  0.47000000000E+01 0.  1.
         11    1    6    6    0    0  0.57605209955E+02  0.21324503605E+02 -0.18740238229E+00  0.61425807179E+02  0.00000000000E+00 0. -1.
        -12    1    6    6    0    0 -0.26059428217E+02  0.23936369719E+02  0.26159729615E+01  0.35480796339E+02  0.00000000000E+00 0.  1.
</event>
<event>
12    1  0.8684423E-002  0.2047177E+03  0.7818608E-02  0.1146175E+00
         21   -1    0    0  501  502  0.00000000000E+00  0.00000000000E+00  0.27876048686E+03  0.27876048686E+03  0.00000000000E+00 0. -1.
         21   -1    0    0  502  503 -0.00000000000E+00 -0.00000000000E+00 -0.18304122554E+03  0.18304122554E+03  0.00000000000E+00 0. -1.
         -6    2    1    2    0  503 -0.41984091409E+02 -0.10290928140E+03  0.14749517711E+03  0.25231760273E+03  0.17191963601E+03 0.  0.
        -24    2    3    3    0    0 -0.46413213941E+02  0.20650100287E+01  0.33543650027E+02  0.97249038822E+02  0.78573204083E+02 0.  0.
          6    2    1    2  501    0  0.41984091409E+02  0.10290928140E+03 -0.51775915791E+02  0.20948410967E+03  0.16985247310E+03 0.  0.
         24    2    5    5    0    0  0.55851365035E+02  0.18526772113E+02 -0.66014492371E+02  0.12266512434E+03  0.85007077730E+02 0.  0.
          5    1    5    5  501    0 -0.13867273626E+02  0.84382509289E+02  0.14238576581E+02  0.86818985336E+02  0.47000000000E+01 0. -1.
        -11    1    6    6    0    0  0.18204948396E+02  0.32618786937E+02 -0.72870452270E+02  0.81887167623E+02  0.00000000000E+00 0.  1.
         12    1    6    6    0    0  0.37646416638E+02 -0.14092014824E+02  0.68559598986E+01  0.40777956712E+02  0.00000000000E+00 0. -1.
         -5    1    3    3    0  503  0.44291225324E+01 -0.10497429143E+03  0.11395152708E+03  0.15506856391E+03  0.47000000000E+01 0.  1.
         13    1    4    4    0    0 -0.58359198531E+02  0.70456181294E+01 -0.26177571089E+01  0.58841222288E+02  0.00000000000E+00 0. -1.
        -14    1    4    4    0    0  0.11945984590E+02 -0.49806081007E+01  0.36161407136E+02  0.38407816534E+02  0.00000000000E+00 0.  1.
</event>
<event>
12    1  0.8684423E-002  0.1811627E+03  0.7818608E-02  0.1166845E+00
         21   -1    0    0  503  502  0.00000000000E+00  0.00000000000E+00  0.88366938531E+03  0.88366938531E+03  0.00000000000E+00 0. -1.
         21   -1    0    0  501  503 -0.00000000000E+00 -0.00000000000E+00 -0.43382553191E+02  0.43382553191E+02  0.00000000000E+00 0. -1.
          6    2    1    2  501    0  0.27277759226E+02  0.47705167272E+02  0.24304587651E+03  0.30313563792E+03  0.17262693230E+03 0.  0.
         24    2    3    3    0    0 -0.15861642145E+02 -0.33948081920E+02  0.10309319879E+03  0.13539445914E+03  0.79368683831E+02 0.  0.
         -6    2    1    2    0  502 -0.27277759226E+02 -0.47705167272E+02  0.59724095561E+03  0.62391630058E+03  0.17191547907E+03 0.  0.
        -24    2    5    5    0    0 -0.22781685090E+02 -0.53015370184E+02  0.60476303668E+03  0.61264311819E+03  0.79143067168E+02 0.  0.
          5    1    3    3  501    0  0.43139401371E+02  0.81653249192E+02  0.13995267772E+03  0.16774117877E+03  0.47000000000E+01 0. -1.
        -11    1    4    4    0    0 -0.45844620761E+02 -0.60615572164E+01  0.62385451341E+02  0.77655754890E+02  0.00000000000E+00 0.  1.
         12    1    4    4    0    0  0.29982978616E+02 -0.27886524704E+02  0.40707747445E+02  0.57738704253E+02  0.00000000000E+00 0. -1.
         -5    1    5    5    0  502 -0.44960741360E+01  0.53102029120E+01 -0.75220810713E+01  0.11273182392E+02  0.47000000000E+01 0.  1.
         11    1    6    6    0    0 -0.84367648704E+01 -0.48723784514E+02  0.15641727160E+03  0.16404739874E+03  0.00000000000E+00 0. -1.
        -12    1    6    6    0    0 -0.14344920220E+02 -0.42915856707E+01  0.44834576508E+03  0.44859571945E+03  0.00000000000E+00 0.  1.
</event>
<event>
12    1  0.8684423E-002  0.1850001E+03  0.7818608E-02  0.1163348E+00
         21   -1    0    0  501  502  0.00000000000E+00  0.00000000000E+00  0.98576323768E+02  0.98576323768E+02  0.00000000000E+00 0.  1.
         21   -1    0    0  502  503 -0.00000000000E+00 -0.00000000000E+00 -0.34484083374E+03  0.34484083374E+03  0.00000000000E+00 0.  1.
         -6    2    1    2    0  503 -0.62404712504E+02 -0.19494610185E+02 -0.12560316196E+03  0.22360946823E+03  0.17306256678E+03 0.  0.
        -24    2    3    3    0    0  0.12856558594E+02 -0.56182131216E+02 -0.49865270615E+02  0.11061145359E+03  0.80166236571E+02 0.  0.
          6    2    1    2  501    0  0.62404712504E+02  0.19494610185E+02 -0.12066134801E+03  0.21980768928E+03  0.17170285784E+03 0.  0.
         24    2    5    5    0    0  0.78610042789E+02 -0.29898166139E+02 -0.36332586518E+02  0.12063264656E+03  0.78477636350E+02 0.  0.
          5    1    5    5  501    0 -0.16205330286E+02  0.49392776324E+02 -0.84328761493E+02  0.99175042715E+02  0.47000000000E+01 0. -1.
        -13    1    6    6    0    0  0.32653884831E+02 -0.48432461570E+02  0.12729413395E+01  0.58426020813E+02  0.00000000000E+00 0.  1.
         14    1    6    6    0    0  0.45956157958E+02  0.18534295431E+02 -0.37605527858E+02  0.62206625747E+02  0.00000000000E+00 0. -1.
         -5    1    3    3    0  503 -0.75261271097E+02  0.36687521031E+02 -0.75737891343E+02  0.11299801464E+03  0.47000000000E+01 0.  1.
         13    1    4    4    0    0 -0.31602045743E+02 -0.73253370913E+01 -0.20061519464E+02  0.38142029598E+02  0.00000000000E+00 0. -1.
        -14    1    4    4    0    0  0.44458604337E+02 -0.48856794124E+02 -0.29803751151E+02  0.72469423996E+02  0.00000000000E+00 0.  1.
</event>
<event>
12    1  0.8684423E-002  0.1774293E+03  0.7818608E-02  0.1170848E+00
         21   -1    0    0  501  502  0.00000000000E+00  0.00000000000E+00  0.57784732965E+03  0.57784732965E+03  0.00000000000E+00 0. -1.
         21   -1    0    0  502  503 -0.00000000000E+00 -0.00000000000E+00 -0.54283158035E+02  0.54283158035E+02  0.00000000000E+00 0. -1.
         -6    2    1    2    0  503 -0.21082950046E+02  0.40693798739E+02  0.23423647464E+03  0.29385009093E+03  0.17140791654E+03 0.  0.
        -24    2    3    3    0    0  0.18484279620E+02  0.84358508760E+02  0.14577158375E+03  0.18745319491E+03  0.80195505228E+02 0.  0.
          6    2    1    2  501    0  0.21082950046E+02 -0.40693798739E+02  0.28932769698E+03  0.33828039675E+03  0.16918225246E+03 0.  0.
         24    2    5    5    0    0 -0.10772902111E+02 -0.50064850654E+02  0.74854149559E+02  0.12120067758E+03  0.80398481637E+02 0.  0.
          5    1    5    5  501    0  0.31855852157E+02  0.93710519151E+01  0.21447354742E+03  0.21707971917E+03  0.47000000000E+01 0. -1.
        -11    1    6    6    0    0 -0.14743293336E+02  0.11633778387E+02 -0.57265948959E+01  0.19634240170E+02  0.00000000000E+00 0.  1.
         12    1    6    6    0    0  0.39703912245E+01 -0.61698629041E+02  0.80580744455E+02  0.10156643741E+03  0.00000000000E+00 0. -1.
         -5    1    3    3    0  503 -0.39567229666E+02 -0.43664710021E+02  0.88464890886E+02  0.10639689603E+03  0.47000000000E+01 0.  1.
         13    1    4    4    0    0  0.40832724799E+02  0.28871896795E+02  0.33354141336E+02  0.60111534528E+02  0.00000000000E+00 0. -1.
        -14    1    4    4    0    0 -0.22348445179E+02  0.55486611965E+02  0.11241744241E+03  0.12734166038E+03  0.00000000000E+00 0.  1.
</event>
<event>
12    1  0.8684423E-002  0.2587560E+03  0.7818608E-02  0.1107921E+00
         21   -1    0    0  503  502  0.00000000000E+00  0.00000000000E+00  0.47433671953E+03  0.47433671953E+03  0.00000000000E+00 0.  1.
         21   -1    0    0  501  503 -0.00000000000E+00 -0.00000000000E+00 -0.16018937327E+03  0.16018937327E+03  0.00000000000E+00 0. -1.
          6    2    1    2  501    0  0.15075366935E+03 -0.12054744611E+03  0.26678408536E+03  0.37165628098E+03  0.17232610773E+03 0.  0.
         24    2    3    3    0    0  0.17323288029E+03 -0.92981103462E+02  0.18275731667E+03  0.28028995224E+03  0.80666623304E+02 0.  0.
         -6    2    1    2    0  502 -0.15075366935E+03  0.12054744611E+03  0.47363260901E+02  0.26286981182E+03  0.17204331983E+03 0.  0.
        -24    2    5    5    0    0 -0.16302284794E+03  0.60028711382E+02  0.12072727575E+02  0.19159175252E+03  0.79885879480E+02 0.  0.
          5    1    3    3  501    0 -0.22479210941E+02 -0.27566342644E+02  0.84026768689E+02  0.91366328741E+02  0.47000000000E+01 0. -1.
        -13    1    4    4    0    0 -0.45047967456E+01  0.46401919503E+01  0.17632977410E+02  0.18781545927E+02  0.00000000000E+00 0.  1.
         14    1    4    4    0    0  0.17773767704E+03 -0.97621295412E+02  0.16512433926E+03  0.26150840631E+03  0.00000000000E+00 0. -1.
         -5    1    5    5    0  502  0.12269178590E+02  0.60518734724E+02  0.35290533326E+02  0.71278059305E+02  0.47000000000E+01 0.  1.
         11    1    6    6    0    0 -0.86053832169E+01 -0.13794152182E+02  0.12379601264E+02  0.20434915761E+02  0.00000000000E+00 0. -1.
        -12    1    6    6    0    0 -0.15441746472E+03  0.73822863564E+02 -0.30687368876E+00  0.17115683676E+03  0.00000000000E+00 0.  1.
</event>
<event>
12    1  0.8684423E-002  0.1928933E+03  0.7818608E-02  0.1156935E+00
         21   -1    0    0  501  502  0.00000000000E+00  0.00000000000E+00  0.88210785165E+02  0.88210785165E+02  0.00000000000E+00 0. -1.
         21   -1    0    0  502  503 -0.00000000000E+00 -0.00000000000E+00 -0.60109214218E+03  0.60109214218E+03  0.00000000000E+00 0. -1.
         -6    2    1    2    0  503 -0.29871609766E+02  0.65612994312E+02 -0.44779278149E+03  0.48572405701E+03  0.17381630049E+03 0.  0.
        -24    2    3    3    0    0  0.49820206408E+02  0.36779939687E+02 -0.27671124562E+03  0.29474470598E+03  0.80439488587E+02 0.  0.
          6    2    1    2  501    0  0.29871609766E+02 -0.65612994312E+02 -0.65088575528E+02  0.20357887033E+03  0.17891466035E+03 0.  0.
         24    2    5    5    0    0  0.32489306062E+02 -0.97467077547E+02  0.14981569673E+01  0.12956929057E+03  0.78933962079E+02 0.  0.
          5    1    5    5  501    0 -0.26176962955E+01  0.31854083235E+02 -0.66586732495E+02  0.74009579765E+02  0.47000000000E+01 0. -1.
        -13    1    6    6    0    0  0.11177847808E+01 -0.59228924773E+02 -0.34355457926E+02  0.68480745191E+02  0.00000000000E+00 0.  1.
         14    1    6    6    0    0  0.31371521281E+02 -0.38238152774E+02  0.35853614894E+02  0.61088545375E+02  0.00000000000E+00 0. -1.
         -5    1    3    3    0  503 -0.79691816174E+02  0.28833054625E+02 -0.17108153587E+03  0.19097935103E+03  0.47000000000E+01 0.  1.
         11    1    4    4    0    0  0.36977772721E+02  0.44826336381E+02 -0.27303497318E+03  0.27915023319E+03  0.00000000000E+00 0. -1.
        -12    1    4    4    0    0  0.12842433687E+02 -0.80463966944E+01 -0.36762724375E+01  0.15594472797E+02  0.00000000000E+00 0.  1.
</event>
<event>
12    1  0.8684423E-002  0.2121611E+03  0.7818608E-02  0.1139967E+00
         21   -1    0    0  503  502  0.00000000000E+00  0.00000000000E+00  0.37240260547E+03  0.37240260547E+03  0.00000000000E+00 0.  1.
         21   -1    0    0  501  503 -0.00000000000E+00 -0.00000000000E+00 -0.12120359153E+03  0.12120359153E+03  0.00000000000E+00 0.  1.
          6    2    1    2  501    0 -0.10224539692E+03  0.67293715685E+02  0.14320550107E+03  0.25554125933E+03  0.17265849044E+03 0.  0.
         24    2    3    3    0    0 -0.47691471236E+02 -0.11401162320E+02  0.12877039269E+03  0.15859035946E+03  0.78515126875E+02 0.  0.
         -6    2    1    2    0  502  0.10224539692E+03 -0.67293715685E+02  0.10799351287E+03  0.23806493767E+03  0.17329094138E+03 0.  0.
        -24    2    5    5    0    0  0.11612157074E+03 -0.49278315740E+01  0.43843210190E+02  0.14740401426E+03  0.79354984870E+02 0.  0.
          5    1    3    3  501    0 -0.54553925682E+02  0.78694878006E+02  0.14435108372E+02  0.96950899869E+02  0.47000000000E+01 0. -1.
        -11    1    4    4    0    0 -0.67891823657E+02 -0.43578854973E+01  0.11342380695E+03  0.13226205377E+03  0.00000000000E+00 0.  1.
         12    1    4    4    0    0  0.20200352421E+02 -0.70432768229E+01  0.15346585746E+02  0.26328305688E+02  0.00000000000E+00 0. -1.
         -5    1    5    5    0  502 -0.13876173822E+02 -0.62365884111E+02  0.64150302679E+02  0.90660923417E+02  0.47000000000E+01 0.  1.
         13    1    6    6    0    0 -0.15974872302E+01  0.18153571816E+02  0.16008681800E+02  0.24256587313E+02  0.00000000000E+00 0. -1.
        -14    1    6    6    0    0  0.11771905797E+03 -0.23081403390E+02  0.27834528391E+02  0.12314742694E+03  0.00000000000E+00 0.  1.
</event>
<event>
12    1  0.8684423E-002  0.1777364E+03  0.7818608E-02  0.1170731E+00
         21   -1    0    0  501  502  0.00000000000E+00  0.00000000000E+00  0.63565047725E+03  0.63565047725E+03  0.00000000000E+00 0.  1.
         21   -1    0    0  502  503 -0.00000000000E+00 -0.00000000000E+00 -0.51856403048E+02  0.51856403048E+02  0.00000000000E+00 0.  1.
         -6    2    1    2    0  503  0.12392748654E+02  0.32416368570E+02  0.21194959230E+03  0.27660955243E+03  0.17431527084E+03 0.  0.
        -24    2    3    3    0    0  0.81160661660E+01  0.30508378415E+02  0.25608568444E+02  0.90150448033E+02  0.80465351669E+02 0.  0.
          6    2    1    2  501    0 -0.12392748654E+02 -0.32416368570E+02  0.37184448190E+03  0.41089732787E+03  0.17135896288E+03 0.  0.
         24    2    5    5    0    0 -0.46906427239E+02 -0.73090987064E+02  0.23578587578E+03  0.26467950099E+03  0.83173034807E+02 0.  0.
          5    1    5    5  501    0  0.34513678585E+02  0.40674618494E+02  0.13605860612E+03  0.14621782688E+03  0.47000000000E+01 0. -1.
        -11    1    6    6    0    0 -0.76820761669E+01 -0.77537757080E+02  0.18186059300E+03  0.19784942090E+03  0.00000000000E+00 0.  1.
         12    1    6    6    0    0 -0.39224351072E+02  0.44467700157E+01  0.53925282787E+02  0.66830080086E+02  0.00000000000E+00 0. -1.
         -5    1    3    3    0  503  0.42766824879E+01  0.19079901546E+01  0.18634102386E+03  0.18645910439E+03  0.47000000000E+01 0.  1.
         13    1    4    4    0    0  0.10393752408E+02  0.61680788821E+01  0.52461836005E+02  0.53836042975E+02  0.00000000000E+00 0. -1.
        -14    1    4    4    0    0 -0.22776862418E+01  0.24340299533E+02 -0.26853267561E+02  0.36314405058E+02  0.00000000000E+00 0.  1.
</event>
<event>
12    1  0.8684423E-002  0.2113647E+03  0.7818608E-02  0.1140568E+00
         21   -1    0    0  503  502  0.00000000000E+00  0.00000000000E+00  0.91627475131E+02  0.91627475131E+02  0.00000000000E+00 0.  1.
         21   -1    0    0  501  503 -0.00000000000E+00 -0.00000000000E+00 -0.48795206231E+03  0.48795206231E+03  0.00000000000E+00 0. -1.
          6    2    1    2  501    0 -0.46514371022E+00 -0.12078223984E+03 -0.18340923962E+03  0.27984637690E+03  0.17345454639E+03 0.  0.
         24    2    3    3    0    0 -0.13027182282E+02 -0.69784657971E+01 -0.25578271557E+02  0.84803283504E+02  0.79491776016E+02 0.  0.
         -6    2    1    2    0  502  0.46514371022E+00  0.12078223984E+03 -0.21291534756E+03  0.29973316055E+03  0.17296952473E+03 0.  0.
        -24    2    5    5    0    0  0.19684058251E+02  0.53648236111E+02 -0.20788645823E+03  0.22956393039E+03  0.78849370529E+02 0.  0.
          5    1    3    3  501    0  0.12562038572E+02 -0.11380377404E+03 -0.15783096806E+03  0.19504309339E+03  0.47000000000E+01 0. -1.
        -13    1    4    4    0    0 -0.34596029247E+02 -0.30759519552E+01 -0.44080040756E+02  0.56119486037E+02  0.00000000000E+00 0.  1.
         14    1    4    4    0    0  0.21568846965E+02 -0.39025138419E+01  0.18501769198E+02  0.28683797467E+02  0.00000000000E+00 0. -1.
         -5    1    5    5    0  502 -0.19218914541E+02  0.67134003730E+02 -0.50288893266E+01  0.70169230156E+02  0.47000000000E+01 0.  1.
         11    1    6    6    0    0 -0.51726005733E+01  0.66669090604E+02 -0.12086143703E+03  0.13812679103E+03  0.00000000000E+00 0. -1.
        -12    1    6    6    0    0  0.24856658825E+02 -0.13020854493E+02 -0.87025021198E+02  0.91437139359E+02  0.00000000000E+00 0.  1.
</event>
<event>
12    1  0.8684423E-002  0.1999729E+03  0.7818608E-02  0.1149786E+00
         21   -1    0    0  503  502  0.00000000000E+00  0.00000000000E+00  0.69174228709E+02  0.69174228709E+02  0.00000000000E+00 0. -1.
         21   -1    0    0  501  503 -0.00000000000E+00 -0.00000000000E+00 -0.67997435109E+03  0.67997435109E+03  0.00000000000E+00 0. -1.
          6    2    1    2  501    0  0.35635167544E+01 -0.10261500440E+03 -0.45069669963E+03  0.49306862775E+03  0.17160017142E+03 0.  0.
         24    2    3    3    0    0 -0.72783060307E+01  0.10447067372E+02 -0.24876561128E+03  0.26133854416E+03  0.79065734398E+02 0.  0.
         -6    2    1    2    0  502 -0.35635167544E+01  0.10261500440E+03 -0.16010342276E+03  0.25607995206E+03  0.17146806725E+03 0.  0.
        -24    2    5    5    0    0 -0.11415951540E+02  0.13278726644E+03 -0.91058732475E+02  0.18017682047E+03  0.80057553026E+02 0.  0.
          5    1    3    3  501    0  0.10841822785E+02 -0.11306207177E+03 -0.20193108835E+03  0.23173008358E+03  0.47000000000E+01 0. -1.
        -13    1    4    4    0    0 -0.17413822387E+02  0.16545475608E+02 -0.24834327733E+03  0.24950225924E+03  0.00000000000E+00 0.  1.
         14    1    4    4    0    0  0.10135516356E+02 -0.60984082360E+01 -0.42233395249E+00  0.11836284924E+02  0.00000000000E+00 0. -1.
         -5    1    5    5    0  502  0.78524347853E+01 -0.30172262039E+02 -0.69044690283E+02  0.75903131588E+02  0.47000000000E+01 0.  1.
         11    1    6    6    0    0  0.23073093511E+01  0.13976098549E+03 -0.85240184083E+02  0.16372032776E+03  0.00000000000E+00 0. -1.
        -12    1    6    6    0    0 -0.13723260891E+02 -0.69737190459E+01 -0.58185483919E+01  0.16456492706E+02  0.00000000000E+00 0.  1.
</event>
<event>
12    1  0.8684423E-002  0.1841881E+03  0.7818608E-02  0.1163934E+00
         21   -1    0    0  503  502  0.00000000000E+00  0.00000000000E+00  0.18646499706E+03  0.18646499706E+03  0.00000000000E+00 0. -1.
         21   -1    0    0  501  503 -0.00000000000E+00 -0.00000000000E+00 -0.23713271192E+03  0.23713271192E+03  0.00000000000E+00 0. -1.
          6    2    1    2  501    0  0.61931524572E+02  0.11610798300E+02 -0.12802319253E+03  0.22431049153E+03  0.17307493872E+03 0.  0.
         24    2    3    3    0    0  0.34700941715E+02 -0.55284620386E+01  0.63911690025E+01  0.86018881251E+02  0.78253956080E+02 0.  0.
         -6    2    1    2    0  502 -0.61931524572E+02 -0.11610798300E+02  0.77355477671E+02  0.19928721744E+03  0.17251434936E+03 0.  0.
        -24    2    5    5    0    0 -0.32579130084E+02 -0.27101709456E+02  0.11615559705E+03  0.14801275348E+03  0.81361846672E+02 0.  0.
          5    1    3    3  501    0  0.27230582857E+02  0.17139260339E+02 -0.13441436153E+03  0.13829161028E+03  0.47000000000E+01 0. -1.
        -11    1    4    4    0    0 -0.28297650490E+01 -0.36404352638E+02 -0.25540489260E+01  0.36603382728E+02  0.00000000000E+00 0.  1.
         12    1    4    4    0    0  0.37530706764E+02  0.30875890600E+02  0.89452179285E+01  0.49415498523E+02  0.00000000000E+00 0. -1.
         -5    1    5    5    0  502 -0.29352394488E+02  0.15490911156E+02 -0.38800119379E+02  0.51274463960E+02  0.47000000000E+01 0.  1.
         11    1    6    6    0    0 -0.34005593040E+02 -0.20041573216E+02  0.88324849395E+01  0.40448211396E+02  0.00000000000E+00 0. -1.
        -12    1    6    6    0    0  0.14264629559E+01 -0.70601362403E+01  0.10732311211E+03  0.10756454208E+03  0.00000000000E+00 0.  1.
</event>
<event>
12    1  0.8684423E-002  0.1972729E+03  0.7818608E-02  0.1152269E+00
         21   -1    0    0  501  502  0.00000000000E+00  0.00000000000E+00  0.79052627408E+03  0.79052627408E+03  0.00000000000E+00 0.  1.
         21   -1    0    0  502  503 -0.00000000000E+00 -0.00000000000E+00 -0.88812162940E+02  0.88812162940E+02  0.00000000000E+00 0.  1.
         -6    2    1    2    0  503 -0.82430904286E+02 -0.52417436412E+02  0.56913652775E+02  0.20531872867E+03  0.17138895778E+03 0.  0.
        -24    2    3    3    0    0  0.46645039272E+01  0.15883808792E+01 -0.12782291246E+02  0.81295129922E+02  0.80132581569E+02 0.  0.
          6    2    1    2  501    0  0.82430904286E+02  0.52417436412E+02  0.64480045836E+03  0.67401970835E+03  0.17027182537E+03 0.  0.
         24    2    5    5    0    0  0.95559710263E+02  0.35281298498E+02  0.63891764677E+03  0.65115685111E+03  0.73573481262E+02 0.  0.
          5    1    5    5  501    0 -0.13128805977E+02  0.17136137914E+02  0.58828115969E+01  0.22862857242E+02  0.47000000000E+01 0. -1.
        -13    1    6    6    0    0  0.41732539574E+02  0.42908496414E+02  0.19657503514E+03  0.20548598095E+03  0.00000000000E+00 0.  1.
         14    1    6    6    0    0  0.53827170689E+02 -0.76271979160E+01  0.44234261162E+03  0.44567087016E+03  0.00000000000E+00 0. -1.
         -5    1    3    3    0  503 -0.87095408213E+02 -0.54005817291E+02  0.69695944020E+02  0.12402359875E+03  0.47000000000E+01 0.  1.
         11    1    4    4    0    0  0.33455019585E+01  0.22287526186E+02  0.27759170053E+02  0.35756086599E+02  0.00000000000E+00 0. -1.
        -12    1    4    4    0    0  0.13190019687E+01 -0.20699145306E+02 -0.40541461299E+02  0.45539043324E+02  0.00000000000E+00 0.  1.
</event>
<event>
12    1  0.8684423E-002  0.2579480E+03  0.7818608E-02  0.1108458E+00
         21   -1    0    0  501  502  0.00000000000E+00  0.00000000000E+00  0.18896888366E+03  0.18896888366E+03  0.00000000000E+00 0.  1.
         21   -1    0    0  502  503 -0.00000000000E+00 -0.00000000000E+00 -0.51794910349E+03  0.51794910349E+03  0.00000000000E+00 0.  1.
         -6    2    1    2    0  503  0.72607057505E+02  0.17775543873E+03 -0.36501252876E+03  0.44695782531E+03  0.17224508892E+03 0.  0.
        -24    2    3    3    0    0  0.25928517435E+02  0.18619852688E+03 -0.25832495701E+03  0.33010535505E+03  0.83039644692E+02 0.  0.
          6    2    1    2  501    0 -0.72607057505E+02 -0.17775543873E+03  0.36032308931E+02  0.25996016183E+03  0.17149978908E+03 0.  0.
         24    2    5    5    0    0 -0.10596811342E+03 -0.89586193476E+02  0.91767259311E+01  0.16182714904E+03  0.82758001095E+02 0.  0.
          5    1    5    5  501    0  0.33361055916E+02 -0.88169245252E+02  0.26855583000E+02  0.98133012786E+02  0.47000000000E+01 0. -1.
        -11    1    6    6    0    0 -0.24003503201E+02 -0.32100576198E+02  0.40446682061E+02  0.56943386341E+02  0.00000000000E+00 0.  1.
         12    1    6    6    0    0 -0.81964610220E+02 -0.57485617278E+02 -0.31269956130E+02  0.10488376270E+03  0.00000000000E+00 0. -1.
         -5    1    3    3    0  503  0.46678540070E+02 -0.84430881496E+01 -0.10668757175E+03  0.11685247026E+03  0.47000000000E+01 0.  1.
         11    1    4    4    0    0 -0.45187007126E+01  0.22395049480E+02 -0.91586301629E+02  0.94392836293E+02  0.00000000000E+00 0. -1.
        -12    1    4    4    0    0  0.30447218148E+02  0.16380347740E+03 -0.16673865538E+03  0.23571251876E+03  0.00000000000E+00 0.  1.
</event>
<event>
12    1  0.8684423E-002  0.1848108E+03  0.7818608E-02  0.1164347E+00
         21   -1    0    0  503  502  0.00000000000E+00  0.00000000000E+00  0.12882663650E+02  0.12882663650E+02  0.00000000000E+00 0. -1.
         21   -1    0    0  501  503 -0.00000000000E+00 -0.00000000000E+00 -0.31266497690E+04  0.31266497690E+04  0.00000000000E+00 0.  1.
          6    2    1    2  501    0 -0.57881959187E+02  0.33949160565E+02 -0.21942104876E+04  0.22015881956E+04  0.16711688243E+03 0.  0.
         24    2    3    3    0    0 -0.75450500523E+02 -0.54455049808E+01 -0.89385331294E+03  0.90050731225E+03  0.78849494667E+02 0.  0.
         -6    2    1    2    0  502  0.57881959187E+02 -0.33949160565E+02 -0.91955661772E+03  0.93794423702E+03  0.17219800193E+03 0.  0.
        -24    2    5    5    0    0  0.56077189129E+02 -0.87696703646E+02 -0.63462970357E+03  0.64794856121E+03  0.79038688958E+02 0.  0.
          5    1    3    3  501    0  0.17568541337E+02  0.39394665546E+02 -0.13003571746E+04  0.13010808833E+04  0.47000000000E+01 0. -1.
        -13    1    4    4    0    0 -0.15794931281E+02  0.56872819970E+01 -0.61039054191E+03  0.61062135460E+03  0.00000000000E+00 0.  1.
         14    1    4    4    0    0 -0.59655569243E+02 -0.11132786978E+02 -0.28346277103E+03  0.28988595766E+03  0.00000000000E+00 0. -1.
         -5    1    5    5    0  502  0.18047700575E+01  0.53747543081E+02 -0.28492691415E+03  0.28999567581E+03  0.47000000000E+01 0.  1.
         11    1    6    6    0    0  0.66949915278E+02 -0.32470576753E+02 -0.36416608456E+03  0.37169014872E+03  0.00000000000E+00 0. -1.
        -12    1    6    6    0    0 -0.10872726149E+02 -0.55226126893E+02 -0.27046361901E+03  0.27625841249E+03  0.00000000000E+00 0.  1.
</event>
<event>
12    1  0.8684423E-002  0.1850139E+03  0.7818608E-02  0.1163102E+00
         21   -1    0    0  503  502  0.00000000000E+00  0.00000000000E+00  0.37741344335E+02  0.37741344335E+02  0.00000000000E+00 0. -1.
         21   -1    0    0  501  503 -0.00000000000E+00 -0.00000000000E+00 -0.95984366342E+03  0.95984366342E+03  0.00000000000E+00 0.  1.
          6    2    1    2  501    0  0.64231335216E+02  0.17593188804E+02 -0.34280435344E+03  0.38954457954E+03  0.17261219539E+03 0.  0.
         24    2    3    3    0    0 -0.36907048417E+01  0.55627215190E+02 -0.13063124454E+03  0.16349257484E+03  0.80977105442E+02 0.  0.
         -6    2    1    2    0  502 -0.64231335216E+02 -0.17593188804E+02 -0.57929796565E+03  0.60804042821E+03  0.17231321663E+03 0.  0.
        -24    2    5    5    0    0 -0.23842168714E+02 -0.53599969484E-01 -0.11778495039E+03  0.14440773394E+03  0.80074010779E+02 0.  0.
          5    1    3    3  501    0  0.67922040058E+02 -0.38034026387E+02 -0.21217310890E+03  0.22605200470E+03  0.47000000000E+01 0. -1.
        -11    1    4    4    0    0  0.40505818455E+01 -0.19230884823E+02 -0.47233448635E+02  0.51158897704E+02  0.00000000000E+00 0.  1.
         12    1    4    4    0    0 -0.77412866872E+01  0.74858100013E+02 -0.83397795907E+02  0.11233367714E+03  0.00000000000E+00 0. -1.
         -5    1    5    5    0  502 -0.40389166502E+02 -0.17539588834E+02 -0.46151301525E+03  0.46363269427E+03  0.47000000000E+01 0.  1.
         11    1    6    6    0    0  0.26542727019E+02  0.14753204370E+02 -0.52173642705E+02  0.60367726394E+02  0.00000000000E+00 0. -1.
        -12    1    6    6    0    0 -0.50384895733E+02 -0.14806804340E+02 -0.65611307686E+02  0.84040007550E+02  0.00000000000E+00 0.  1.
</event>
<event>
12    1  0.8684423E-002  0.1849593E+03  0.7818608E-02  0.1163499E+00
         21   -1    0    0  501  502  0.00000000000E+00  0.00000000000E+00  0.12298127729E+03  0.12298127729E+03  0.00000000000E+00 0. -1.
         21   -1    0    0  502  503 -0.00000000000E+00 -0.00000000000E+00 -0.29622629272E+03  0.29622629272E+03  0.00000000000E+00 0. -1.
         -6    2    1    2    0  503  0.52813503697E+02 -0.36706702123E+02 -0.30856933846E+02  0.18578880307E+03  0.17154789660E+03 0.  0.
        -24    2    3    3    0    0  0.97161847586E+01 -0.42741546300E+02  0.39944807879E+02  0.10254954025E+03  0.83663471732E+02 0.  0.
          6    2    1    2  501    0 -0.52813503697E+02  0.36706702123E+02 -0.14238808159E+03  0.23341876694E+03  0.17341657022E+03 0.  0.
         24    2    5    5    0    0 -0.88710807277E+02 -0.60622430855E+01 -0.12796375535E+03  0.17555729214E+03  0.80865827275E+02 0.  0.
          5    1    5    5  501    0  0.35897303581E+02  0.42768945208E+02 -0.14424326236E+02  0.57861474799E+02  0.47000000000E+01 0. -1.
        -13    1    6    6    0    0 -0.59865202084E+01 -0.30100692372E+02 -0.53552460779E+02  0.61723222218E+02  0.00000000000E+00 0.  1.
         14    1    6    6    0    0 -0.82724287069E+02  0.24038449286E+02 -0.74411294573E+02  0.11383406992E+03  0.00000000000E+00 0. -1.
         -5    1    3    3    0  503  0.43097318938E+02  0.60348441778E+01 -0.70801741725E+02  0.83239262822E+02  0.47000000000E+01 0.  1.
         11    1    4    4    0    0 -0.27155994949E+01 -0.18399212867E+02 -0.25537124806E+02  0.31591933434E+02  0.00000000000E+00 0. -1.
        -12    1    4    4    0    0  0.12431784254E+02 -0.24342333433E+02  0.65481932684E+02  0.70957606814E+02  0.00000000000E+00 0.  1.
</event>
<event>
12    1  0.8684423E-002  0.2291230E+03  0.7818608E-02  0.1127765E+00
         21   -1    0    0  501  502  0.00000000000E+00  0.00000000000E+00  0.24901519001E+03  0.24901519001E+03  0.00000000000E+00 0. -1.
         21   -1    0    0  502  503 -0.00000000000E+00 -0.00000000000E+00 -0.23728220258E+03  0.23728220258E+03  0.00000000000E+00 0. -1.
         -6    2    1    2    0  503  0.27021637796E+02 -0.14944661159E+03 -0.79205384535E+02  0.24242701988E+03  0.17156021801E+03 0.  0.
        -24    2    3    3    0    0  0.81337056631E+02 -0.93627949639E+02 -0.71715626177E+02  0.16404287464E+03  0.79906344846E+02 0.  0.
          6    2    1    2  501    0 -0.27021637796E+02  0.14944661159E+03  0.90938371961E+02  0.24387037271E+03  0.16774538016E+03 0.  0.
         24    2    5    5    0    0 -0.37546025058E+01  0.41133771307E+02 -0.14521708943E+02  0.90844410970E+02  0.79597379304E+02 0.  0.
          5    1    5    5  501    0 -0.23267035290E+02  0.10831284029E+03  0.10546008090E+03  0.15302596174E+03  0.47000000000E+01 0. -1.
        -11    1    6    6    0    0  0.19446346915E+02 -0.17725186037E+02 -0.23451760280E+01  0.26416708330E+02  0.00000000000E+00 0.  1.
         12    1    6    6    0    0 -0.23200949421E+02  0.58858957344E+02 -0.12176532915E+02  0.64427702640E+02  0.00000000000E+00 0. -1.
         -5    1    3    3    0  503 -0.54315418835E+02 -0.55818661953E+02 -0.74897583573E+01  0.78384145245E+02  0.47000000000E+01 0.  1.
         11    1    4    4    0    0  0.82485234434E+01 -0.65437635576E+02 -0.15869433094E+02  0.67837756415E+02  0.00000000000E+00 0. -1.
        -12    1    4    4    0    0  0.73088533187E+02 -0.28190314064E+02 -0.55846193083E+02  0.96205118223E+02  0.00000000000E+00 0.  1.
</event>
<event>
12    1  0.8684423E-002  0.1858562E+03  0.7818608E-02  0.1162309E+00
         21   -1    0    0  503  502  0.00000000000E+00  0.00000000000E+00  0.12805579643E+03  0.12805579643E+03  0.00000000000E+00 0. -1.
         21   -1    0    0  501  503 -0.00000000000E+00 -0.00000000000E+00 -0.53018147365E+03  0.53018147365E+03  0.00000000000E+00 0. -1.
          6    2    1    2  501    0 -0.21464010801E+02 -0.66652150488E+02 -0.43182074919E+03  0.47002377282E+03  0.17190106066E+03 0.  0.
         24    2    3    3    0    0 -0.22224069963E+02  0.15608135929E+02 -0.11339642665E+03  0.14111121362E+03  0.79473906658E+02 0.  0.
         -6    2    1    2    0  502  0.21464010801E+02  0.66652150488E+02  0.29695071975E+02  0.18821349725E+03  0.17216071075E+03 0.  0.
        -24    2    5    5    0    0 -0.20069876980E+02 -0.85966548867E+01  0.55623750072E+02  0.98314482286E+02  0.78070695000E+02 0.  0.
          5    1    3    3  501    0  0.76005916177E+00 -0.82260286417E+02 -0.31842432254E+03  0.32891255920E+03  0.47000000000E+01 0. -1.
        -11    1    4    4    0    0 -0.24579363521E+02 -0.87653259472E+01 -0.11366567840E+03  0.11662273576E+03  0.00000000000E+00 0.  1.
         12    1    4    4    0    0  0.23552935587E+01  0.24373461876E+02  0.26925174503E+00  0.24488477864E+02  0.00000000000E+00 0. -1.
         -5    1    5    5    0  502  0.41533887781E+02  0.75248805375E+02 -0.25928678097E+02  0.89899014969E+02  0.47000000000E+01 0.  1.
         11    1    6    6    0    0  0.25504906899E+02 -0.21537290405E+02  0.18812856687E+02  0.38318125354E+02  0.00000000000E+00 0. -1.
        -12    1    6    6    0    0 -0.45574783879E+02  0.12940635519E+02  0.36810893384E+02  0.59996356931E+02  0.00000000000E+00 0.  1.
</event>
<event>
12    1  0.8684423E-002  0.3036333E+03  0.7818608E-02  0.1083548E+00
         21   -1    0    0  501  502  0.00000000000E+00  0.00000000000E+00  0.13817932583E+03  0.13817932583E+03  0.00000000000E+00 0.  1.
         21   -1    0    0  502  503 -0.00000000000E+00 -0.00000000000E+00 -0.14191730362E+04  0.14191730362E+04  0.00000000000E+00 0.  1.
         -6    2    1    2    0  503  0.27335882278E+02 -0.24794463919E+03 -0.12084864383E+04  0.12460468068E+04  0.17311666163E+03 0.  0.
        -24    2    3    3    0    0 -0.12500669288E+01 -0.14187451678E+03 -0.95914688736E+03  0.97353932243E+03  0.87670517246E+02 0.  0.
          6    2    1    2  501    0 -0.27335882278E+02  0.24794463919E+03 -0.72507272042E+02  0.31130555524E+03  0.17155188620E+03 0.  0.
         24    2    5    5    0    0  0.64335356761E+01  0.20803597684E+03 -0.10722783049E+03  0.24837160495E+03  0.82887203309E+02 0.  0.
          5    1    5    5  501    0 -0.33769417954E+02  0.39908662351E+02  0.34720558451E+02  0.62933950287E+02  0.47000000000E+01 0. -1.
        -11    1    6    6    0    0 -0.16940639530E+02  0.19311427752E+03 -0.80657708009E+02  0.20996612896E+03  0.00000000000E+00 0.  1.
         12    1    6    6    0    0  0.23374175206E+02  0.14921699320E+02 -0.26570122484E+02  0.38405475989E+02  0.00000000000E+00 0. -1.
         -5    1    3    3    0  503  0.28585949207E+02 -0.10607012241E+03 -0.24933955094E+03  0.27250748435E+03  0.47000000000E+01 0.  1.
         13    1    4    4    0    0 -0.30699662823E+02 -0.11069823104E+02 -0.17695319191E+03  0.17993732911E+03  0.00000000000E+00 0. -1.
        -14    1    4    4    0    0  0.29449595894E+02 -0.13080469368E+03 -0.78219369545E+03  0.79360199331E+03  0.00000000000E+00 0.  1.
</event>
<event>
12    1  0.8684423E-002  0.3889280E+03  0.7818608E-02  0.1048111E+00
         21   -1    0    0  501  502  0.00000000000E+00  0.00000000000E+00  0.25779820361E+03  0.25779820361E+03  0.00000000000E+00 0.  1.
         21   -1    0    0  502  503 -0.00000000000E+00 -0.00000000000E+00 -0.76994461285E+03  0.76994461285E+03  0.00000000000E+00 0. -1.
         -6    2    1    2    0  503  0.29747771819E+03  0.17128644886E+03 -0.17729392830E+01  0.38893199646E+03  0.18284669583E+03 0.  0.
        -24    2    3    3    0    0  0.55031655853E+02  0.95573360569E+02  0.67377210005E+01  0.13475275612E+03  0.77137267273E+02 0.  0.
          6    2    1    2  501    0 -0.29747771819E+03 -0.17128644886E+03 -0.51037346995E+03  0.63881081999E+03  0.17252867739E+03 0.  0.
         24    2    5    5    0    0 -0.18052890841E+03 -0.54073427793E+02 -0.19052206128E+03  0.27861236074E+03  0.76233649774E+02 0.  0.
          5    1    5    5  501    0 -0.11694880978E+03 -0.11721302106E+03 -0.31985140867E+03  0.36019845925E+03  0.47000000000E+01 0. -1.
        -13    1    6    6    0    0 -0.76480237784E+02 -0.62508509636E+02 -0.97479278180E+02  0.13877589929E+03  0.00000000000E+00 0.  1.
         14    1    6    6    0    0 -0.10404867063E+03  0.84350818437E+01 -0.93042783102E+02  0.13983646145E+03  0.00000000000E+00 0. -1.
         -5    1    3    3    0  503  0.24244606234E+03  0.75713088287E+02 -0.85106602835E+01  0.25417924034E+03  0.47000000000E+01 0.  1.
         13    1    4    4    0    0  0.77556317433E+01  0.44649068356E+02  0.37442944700E+02  0.58784889526E+02  0.00000000000E+00 0. -1.
        -14    1    4    4    0    0  0.47276024110E+02  0.50924292213E+02 -0.30705223699E+02  0.75967866598E+02  0.00000000000E+00 0.  1.
</event>
<event>
12    1  0.8684423E-002  0.2134591E+03  0.7818608E-02  0.1139511E+00
         21   -1    0    0  501  502  0.00000000000E+00  0.00000000000E+00  0.95681482523E+02  0.95681482523E+02  0.00000000000E+00 0.  1.
         21   -1    0    0  502  503 -0.00000000000E+00 -0.00000000000E+00 -0.50221013101E+03  0.50221013101E+03  0.00000000000E+00 0.  1.
         -6    2    1    2    0  503  0.72150100957E+02 -0.97424040975E+02 -0.28191181869E+03  0.35360861559E+03  0.17569205638E+03 0.  0.
        -24    2    3    3    0    0  0.86771863938E+02 -0.23051295966E+02 -0.97926555715E+02  0.15456648903E+03  0.78996649302E+02 0.  0.
          6    2    1    2  501    0 -0.72150100957E+02  0.97424040975E+02 -0.12461682979E+03  0.24428299794E+03  0.17160346146E+03 0.  0.
         24    2    5    5    0    0 -0.11492056573E+03  0.89841089108E+02 -0.93162423772E+02  0.19044728977E+03  0.79452975143E+02 0.  0.
          5    1    5    5  501    0  0.42770464770E+02  0.75829518665E+01 -0.31454406020E+02  0.53835708165E+02  0.47000000000E+01 0. -1.
        -11    1    6    6    0    0 -0.14212186338E+02  0.59004007905E+02 -0.31054772910E+02  0.68175201575E+02  0.00000000000E+00 0.  1.
         12    1    6    6    0    0 -0.10070837939E+03  0.30837081204E+02 -0.62107650862E+02  0.12227208820E+03  0.00000000000E+00 0. -1.
         -5    1    3    3    0  503 -0.14621762981E+02 -0.74372745009E+02 -0.18398526298E+03  0.19904212656E+03  0.47000000000E+01 0.  1.
         13    1    4    4    0    0  0.26331359401E+01  0.11026869243E+02  0.88752545464E+01  0.14397756542E+02  0.00000000000E+00 0. -1.
        -14    1    4    4    0    0  0.84138727998E+02 -0.34078165209E+02 -0.10680181026E+03  0.14016873249E+03  0.00000000000E+00 0.  1.
</event>
<event>
12    1  0.8684423E-002  0.1770346E+03  0.7818608E-02  0.1171219E+00
         21   -1    0    0  501  502  0.00000000000E+00  0.00000000000E+00  0.98420260161E+02  0.98420260161E+02  0.00000000000E+00 0. -1.
         21   -1    0    0  502  503 -0.00000000000E+00 -0.00000000000E+00 -0.38052737407E+03  0.38052737407E+03  0.00000000000E+00 0. -1.
         -6    2    1    2    0  503 -0.31622996303E+02 -0.18673849029E+02 -0.23994514123E+03  0.29696171874E+03  0.17106684385E+03 0.  0.
        -24    2    3    3    0    0  0.31115336857E+02 -0.47056332831E+02 -0.18261821734E+03  0.20723920185E+03  0.80101253614E+02 0.  0.
          6    2    1    2  501    0  0.31622996303E+02  0.18673849029E+02 -0.42161972677E+02  0.18198591549E+03  0.17318347197E+03 0.  0.
         24    2    5    5    0    0  0.55093500938E+02 -0.48608529229E+02 -0.29789006779E+02  0.10950858595E+03  0.75542455034E+02 0.  0.
          5    1    5    5  501    0 -0.23470504635E+02  0.67282378258E+02 -0.12372965898E+02  0.72477329538E+02  0.47000000000E+01 0. -1.
        -11    1    6    6    0    0 -0.91048008815E+01 -0.85453121990E+01 -0.31427554594E+02  0.33817317271E+02  0.00000000000E+00 0.  1.
         12    1    6    6    0    0  0.64198301820E+02 -0.40063217030E+02  0.16385478154E+01  0.75691268679E+02  0.00000000000E+00 0. -1.
         -5    1    3    3    0  503 -0.62738333160E+02  0.28382483802E+02 -0.57326923884E+02  0.89722516887E+02  0.47000000000E+01 0.  1.
         13    1    4    4    0    0  0.25598014608E+01 -0.45771942801E+02 -0.16985854617E+03  0.17593620730E+03  0.00000000000E+00 0. -1.
        -14    1    4    4    0    0  0.28555535396E+02 -0.12843900306E+01 -0.12759671174E+02  0.31302994553E+02  0.00000000000E+00 0.  1.
</event>
<event>
12    1  0.8684423E-002  0.1816237E+03  0.7818608E-02  0.1166333E+00
         21   -1    0    0  501  502  0.00000000000E+00  0.00000000000E+00  0.10015873351E+04  0.10015873351E+04  0.00000000000E+00 0.  1.
         21   -1    0    0  502  503 -0.00000000000E+00 -0.00000000000E+00 -0.36802010425E+02  0.36802010425E+02  0.00000000000E+00 0. -1.
         -6    2    1    2    0  503  0.18378416961E+02 -0.52156771386E+02  0.31211286526E+03  0.36091718956E+03  0.17259398034E+03 0.  0.
        -24    2    3    3    0    0 -0.31664766618E+02 -0.77005983497E+02  0.13979422885E+03  0.17970569429E+03  0.76283230137E+02 0.  0.
          6    2    1    2  501    0 -0.18378416961E+02  0.52156771386E+02  0.65267245944E+03  0.67747215598E+03  0.17300025381E+03 0.  0.
         24    2    5    5    0    0 -0.21771675783E+02  0.37676994407E+02  0.15721309033E+03  0.18176735010E+03  0.80186358041E+02 0.  0.
          5    1    5    5  501    0  0.33932588217E+01  0.14479776979E+02  0.49545936910E+03  0.49570480589E+03  0.47000000000E+01 0. -1.
        -13    1    6    6    0    0  0.17753055083E+02  0.34933400444E+00  0.10465438172E+03  0.10615004763E+03  0.00000000000E+00 0.  1.
         14    1    6    6    0    0 -0.39524730866E+02  0.37327660403E+02  0.52558708610E+02  0.75617302464E+02  0.00000000000E+00 0. -1.
         -5    1    3    3    0  503  0.50043183579E+02  0.24849212111E+02  0.17231863641E+03  0.18121149527E+03  0.47000000000E+01 0.  1.
         13    1    4    4    0    0  0.21077214532E+02 -0.43196065438E+02  0.78591781198E+02  0.92123922592E+02  0.00000000000E+00 0. -1.
        -14    1    4    4    0    0 -0.52741981150E+02 -0.33809918059E+02  0.61202447652E+02  0.87581771696E+02  0.00000000000E+00 0.  1.
</event>
<event>
12    1  0.8684423E-002  0.1825107E+03  0.7818608E-02  0.1165768E+00
         21   -1    0    0  501  502  0.00000000000E+00  0.00000000000E+00  0.98972402935E+02  0.98972402935E+02  0.00000000000E+00 0.  1.
         21   -1    0    0  502  503 -0.00000000000E+00 -0.00000000000E+00 -0.34102161926E+03  0.34102161926E+03  0.00000000000E+00 0.  1.
         -6    2    1    2    0  503  0.67488400342E+02 -0.95313558157E+01 -0.15380322644E+03  0.23867467765E+03  0.16930634472E+03 0.  0.
        -24    2    3    3    0    0  0.53028596521E+02  0.35861805082E+02 -0.33771654076E+02  0.10944893197E+03  0.82100200833E+02 0.  0.
          6    2    1    2  501    0 -0.67488400342E+02  0.95313558157E+01 -0.88245989882E+02  0.20131934454E+03  0.16762038311E+03 0.  0.
         24    2    5    5    0    0 -0.31626098108E+02 -0.55511716314E+02 -0.72618743459E+02  0.12527326125E+03  0.79612482396E+02 0.  0.
          5    1    5    5  501    0 -0.35862302234E+02  0.65043072129E+02 -0.15627246423E+02  0.76046083294E+02  0.47000000000E+01 0. -1.
        -13    1    6    6    0    0 -0.32456019435E+02 -0.60312133067E+01  0.48308685489E+01  0.33363243585E+02  0.00000000000E+00 0.  1.
         14    1    6    6    0    0  0.82992132739E+00 -0.49480503007E+02 -0.77449612008E+02  0.91910017666E+02  0.00000000000E+00 0. -1.
         -5    1    3    3    0  503  0.14459803821E+02 -0.45393160898E+02 -0.12003157237E+03  0.12922574568E+03  0.47000000000E+01 0.  1.
         13    1    4    4    0    0 -0.20538708024E+02 -0.18176930474E+01 -0.12456360178E+02  0.24089488251E+02  0.00000000000E+00 0. -1.
        -14    1    4    4    0    0  0.73567304546E+02  0.37679498130E+02 -0.21315293898E+02  0.85359443715E+02  0.00000000000E+00 0.  1.
</event>
<event>
12    1  0.8684423E-002  0.2876525E+03  0.7818608E-02  0.1091795E+00
         21   -1    0    0  501  502  0.00000000000E+00  0.00000000000E+00  0.53717459824E+03  0.53717459824E+03  0.00000000000E+00 0. -1.
         21   -1    0    0  502  503 -0.00000000000E+00 -0.00000000000E+00 -0.18036068371E+03  0.18036068371E+03  0.00000000000E+00 0.  1.
         -6    2    1    2    0  503  0.17406085017E+03 -0.14841386845E+03  0.38682398019E+02  0.28863946248E+03  0.17173396715E+03 0.  0.
        -24    2    3    3    0    0  0.11277695197E+03 -0.15718937705E+03  0.62722779016E+02  0.22206051950E+03  0.89160451775E+02 0.  0.
          6    2    1    2  501    0 -0.17406085017E+03  0.14841386845E+03  0.31813151651E+03  0.42889581948E+03  0.17441360685E+03 0.  0.
         24    2    5    5    0    0 -0.17570996432E+03  0.12684149988E+03  0.33073999349E+03  0.40341739027E+03  0.79961802283E+02 0.  0.
          5    1    5    5  501    0  0.16491141483E+01  0.21572368573E+02 -0.12608476976E+02  0.25478429210E+02  0.47000000000E+01 0. -1.
        -13    1    6    6    0    0 -0.13278708178E+03  0.12912928346E+03  0.29058083150E+03  0.34459251381E+03  0.00000000000E+00 0.  1.
         14    1    6    6    0    0 -0.42922882534E+02 -0.22877835867E+01  0.40159161990E+02  0.58824876460E+02  0.00000000000E+00 0. -1.
         -5    1    3    3    0  503  0.61283898199E+02  0.87755085949E+01 -0.24040380997E+02  0.66578942977E+02  0.47000000000E+01 0.  1.
         11    1    4    4    0    0  0.31092248227E+02 -0.11657240812E+03  0.24284436223E+02  0.12306741273E+03  0.00000000000E+00 0. -1.
        -12    1    4    4    0    0  0.81684703743E+02 -0.40616968929E+02  0.38438342792E+02  0.98993106766E+02  0.00000000000E+00 0.  1.
</event>
<event>
12    1  0.8684423E-002  0.2051819E+03  0.7818608E-02  0.1145607E+00
         21   -1    0    0  501  502  0.00000000000E+00  0.00000000000E+00  0.28851684171E+03  0.28851684171E+03  0.00000000000E+00 0. -1.
         21   -1    0    0  502  503 -0.00000000000E+00 -0.00000000000E+00 -0.17810990578E+03  0.17810990578E+03  0.00000000000E+00 0. -1.
         -6    2    1    2    0  503  0.42291418596E+02  0.10010872584E+03 -0.44971702981E+02  0.20925127979E+03  0.17307028326E+03 0.  0.
        -24    2    3    3    0    0  0.69201381481E+02  0.29932274384E+02  0.17887284666E+02  0.11115835053E+03  0.79695995457E+02 0.  0.
          6    2    1    2  501    0 -0.42291418596E+02 -0.10010872584E+03  0.15537863891E+03  0.25737546771E+03  0.17403818223E+03 0.  0.
         24    2    5    5    0    0 -0.43692872176E+02 -0.20176576060E+01  0.24177418432E+02  0.93486261248E+02  0.79006300122E+02 0.  0.
          5    1    5    5  501    0  0.14014535801E+01 -0.98091068234E+02  0.13120122048E+03  0.16388920646E+03  0.47000000000E+01 0. -1.
        -13    1    6    6    0    0  0.31446917615E+01 -0.69529679498E+01 -0.24555847634E+02  0.25714247074E+02  0.00000000000E+00 0.  1.
         14    1    6    6    0    0 -0.46837563938E+02  0.49353103438E+01  0.48733266066E+02  0.67772014174E+02  0.00000000000E+00 0. -1.
         -5    1    3    3    0  503 -0.26909962885E+02  0.70176451455E+02 -0.62858987648E+02  0.98092929253E+02  0.47000000000E+01 0.  1.
         13    1    4    4    0    0  0.43711373669E+02  0.10235094156E+02 -0.29601559332E+02  0.53774470293E+02  0.00000000000E+00 0. -1.
        -14    1    4    4    0    0  0.25490007813E+02  0.19697180228E+02  0.47488843998E+02  0.57383880241E+02  0.00000000000E+00 0.  1.
</event>
<event>
12    1  0.8684423E-002  0.1911228E+03  0.7818608E-02  0.1157540E+00
         21   -1    0    0  503  502  0.00000000000E+00  0.00000000000E+00  0.15752920010E+03  0.15752920010E+03  0.00000000000E+00 0.  1.
         21   -1    0    0  501  503 -0.00000000000E+00 -0.00000000000E+00 -0.26168693133E+03  0.26168693133E+03  0.00000000000E+00 0.  1.
          6    2    1    2  501    0  0.39746413781E+02 -0.70595273657E+02 -0.12333077507E+03  0.22713407463E+03  0.17267292118E+03 0.  0.
         24    2    3    3    0    0  0.62305574577E+02 -0.46138369846E+02 -0.77795658732E+01  0.10679610130E+03  0.73035277858E+02 0.  0.
         -6    2    1    2    0  502 -0.39746413781E+02  0.70595273657E+02  0.19173043840E+02  0.19208205679E+03  0.17310239993E+03 0.  0.
        -24    2    5    5    0    0  0.43694986034E+02  0.56657904012E+02  0.29247797357E+02  0.10675733509E+03  0.73636438351E+02 0.  0.
          5    1    3    3  501    0 -0.22559160797E+02 -0.24456903812E+02 -0.11555120920E+03  0.12033797334E+03  0.47000000000E+01 0. -1.
        -11    1    4    4    0    0  0.67218754258E+02 -0.60184818085E+02 -0.49185220626E+00  0.90226466021E+02  0.00000000000E+00 0.  1.
         12    1    4    4    0    0 -0.49131796812E+01  0.14046448240E+02 -0.72877136669E+01  0.16569635277E+02  0.00000000000E+00 0. -1.
         -5    1    5    5    0  502 -0.83441399814E+02  0.13937369645E+02 -0.10074753517E+02  0.85324721705E+02  0.47000000000E+01 0.  1.
         13    1    6    6    0    0 -0.89226818238E+01  0.41998576628E+02 -0.34878569028E+01  0.43077370341E+02  0.00000000000E+00 0. -1.
        -14    1    6    6    0    0  0.52617667858E+02  0.14659327384E+02  0.32735654260E+02  0.63679964745E+02  0.00000000000E+00 0.  1.
</event>
<event>
12    1  0.8684423E-002  0.1877385E+03  0.7818608E-02  0.1161299E+00
         21   -1    0    0  501  502  0.00000000000E+00  0.00000000000E+00  0.28889138471E+03  0.28889138471E+03  0.00000000000E+00 0.  1.
         21   -1    0    0  502  503 -0.00000000000E+00 -0.00000000000E+00 -0.11982054250E+03  0.11982054250E+03  0.00000000000E+00 0.  1.
         -6    2    1    2    0  503  0.38793608769E+02  0.53556811744E+02  0.84247693037E+02  0.20577517122E+03  0.17570563777E+03 0.  0.
        -24    2    3    3    0    0 -0.24023198216E+02  0.13469228782E+02  0.93503744239E+02  0.13053734808E+03  0.86824621388E+02 0.  0.
          6    2    1    2  501    0 -0.38793608769E+02 -0.53556811744E+02  0.84823149182E+02  0.20293675599E+03  0.17209033712E+03 0.  0.
         24    2    5    5    0    0 -0.48535924939E+02 -0.54936179236E+02  0.12246739459E+03  0.16374498911E+03  0.80252345264E+02 0.  0.
          5    1    5    5  501    0  0.97423161697E+01  0.13793674923E+01 -0.37644245410E+02  0.39191766884E+02  0.47000000000E+01 0. -1.
        -13    1    6    6    0    0  0.17742385869E+02 -0.10429107878E+02  0.56664648148E+02  0.60286324297E+02  0.00000000000E+00 0.  1.
         14    1    6    6    0    0 -0.66278310808E+02 -0.44507071358E+02  0.65802746443E+02  0.10345866481E+03  0.00000000000E+00 0. -1.
         -5    1    3    3    0  503  0.62816806986E+02  0.40087582961E+02 -0.92560512023E+01  0.75237823144E+02  0.47000000000E+01 0.  1.
         13    1    4    4    0    0 -0.41919309441E+01 -0.21332910198E+02  0.87345924793E+02  0.90010976667E+02  0.00000000000E+00 0. -1.
        -14    1    4    4    0    0 -0.19831267272E+02  0.34802138980E+02  0.61578194463E+01  0.40526371409E+02  0.00000000000E+00 0.  1.
</event>
<event>
12    1  0.8684423E-002  0.2420435E+03  0.7818608E-02  0.1119535E+00
         21   -1    0    0  501  502  0.00000000000E+00  0.00000000000E+00  0.27489238049E+03  0.27489238049E+03  0.00000000000E+00 0.  1.
         21   -1    0    0  502  503 -0.00000000000E+00 -0.00000000000E+00 -0.24696131667E+03  0.24696131667E+03  0.00000000000E+00 0.  1.
         -6    2    1    2    0  503 -0.16023930654E+03  0.17338769012E+02 -0.90317293037E+02  0.25834528561E+03  0.18057631325E+03 0.  0.
        -24    2    3    3    0    0 -0.17402576240E+03  0.57836880145E+02 -0.85733288532E+02  0.21506403715E+03  0.72610416828E+02 0.  0.
          6    2    1    2  501    0  0.16023930654E+03 -0.17338769012E+02  0.11824835686E+03  0.26350841154E+03  0.17168791682E+03 0.  0.
         24    2    5    5    0    0  0.46210778073E+02 -0.16719679255E+02  0.11602421575E+03  0.14935971300E+03  0.80198014570E+02 0.  0.
          5    1    5    5  501    0  0.11402852846E+03 -0.61908975724E+00  0.22241411043E+01  0.11414869854E+03  0.47000000000E+01 0. -1.
        -11    1    6    6    0    0  0.34831877391E+02  0.27315659661E+02  0.34950512435E+02  0.56399851638E+02  0.00000000000E+00 0.  1.
         12    1    6    6    0    0  0.11378900682E+02 -0.44035338916E+02  0.81073703318E+02  0.92959861359E+02  0.00000000000E+00 0. -1.
         -5    1    3    3    0  503  0.13786455861E+02 -0.40498111133E+02 -0.45840045051E+01  0.43281248455E+02  0.47000000000E+01 0.  1.
         11    1    4    4    0    0 -0.39018480988E+02  0.45246812386E+02 -0.12808449733E+02  0.61104601089E+02  0.00000000000E+00 0. -1.
        -12    1    4    4    0    0 -0.13500728141E+03  0.12590067759E+02 -0.72924838799E+02  0.15395943607E+03  0.00000000000E+00 0.  1.
</event>
<event>
12    1  0.8684423E-002  0.2387403E+03  0.7818608E-02  0.1120723E+00
         21   -1    0    0  503  502  0.00000000000E+00  0.00000000000E+00  0.13408410629E+03  0.13408410629E+03  0.00000000000E+00 0.  1.
         21   -1    0    0  501  503 -0.00000000000E+00 -0.00000000000E+00 -0.44878510029E+03  0.44878510029E+03  0.00000000000E+00 0.  1.
          6    2    1    2  501    0 -0.14220439199E+03 -0.85939371709E+02 -0.22579688966E+03  0.32860486772E+03  0.17143295772E+03 0.  0.
         24    2    3    3    0    0 -0.16578029375E+03 -0.64359081495E+02 -0.14860627284E+03  0.24492683360E+03  0.79247285897E+02 0.  0.
         -6    2    1    2    0  502  0.14220439199E+03  0.85939371709E+02 -0.88904104337E+02  0.25426433886E+03  0.17070076021E+03 0.  0.
        -24    2    5    5    0    0  0.14040617506E+03  0.95902493698E+02 -0.25453574329E+02  0.18983952111E+03  0.80498304548E+02 0.  0.
          5    1    3    3  501    0  0.23575901752E+02 -0.21580290214E+02 -0.77190616817E+02  0.83678034118E+02  0.47000000000E+01 0. -1.
        -13    1    4    4    0    0 -0.57486698758E+02 -0.47607890244E+02 -0.10066222433E+03  0.12531606104E+03  0.00000000000E+00 0.  1.
         14    1    4    4    0    0 -0.10829359499E+03 -0.16751191251E+02 -0.47944048514E+02  0.11961077256E+03  0.00000000000E+00 0. -1.
         -5    1    5    5    0  502  0.17982169326E+01 -0.99631219890E+01 -0.63450530008E+02  0.64424817751E+02  0.47000000000E+01 0.  1.
         13    1    6    6    0    0 -0.97266638013E+01  0.35130177622E+01  0.40467701881E+01  0.11105207403E+02  0.00000000000E+00 0. -1.
        -14    1    6    6    0    0  0.15013283886E+03  0.92389475936E+02 -0.29500344517E+02  0.17873431371E+03  0.00000000000E+00 0.  1.
</event>
<event>
12    1  0.8684423E-002  0.1761001E+03  0.7818608E-02  0.1172574E+00
         21   -1    0    0  501  502  0.00000000000E+00  0.00000000000E+00  0.41442608683E+03  0.41442608683E+03  0.00000000000E+00 0. -1.
         21   -1    0    0  502  503 -0.00000000000E+00 -0.00000000000E+00 -0.78726727567E+02  0.78726727567E+02  0.00000000000E+00 0. -1.
         -6    2    1    2    0  503  0.36307853074E+02 -0.17371143008E+02  0.10448252641E+03  0.20476286584E+03  0.17143866570E+03 0.  0.
        -24    2    3    3    0    0  0.68878775888E+02 -0.33447985499E+02  0.12190724429E+03  0.16420376488E+03  0.78983838141E+02 0.  0.
          6    2    1    2  501    0 -0.36307853074E+02  0.17371143008E+02  0.23121683285E+03  0.28838994856E+03  0.16759332275E+03 0.  0.
         24    2    5    5    0    0 -0.53280602238E+02  0.46741375276E+02  0.78532162847E+02  0.13191188872E+03  0.78802709633E+02 0.  0.
          5    1    5    5  501    0  0.16972749164E+02 -0.29370232268E+02  0.15268467000E+03  0.15647805984E+03  0.47000000000E+01 0. -1.
        -13    1    6    6    0    0  0.18427198544E+02  0.33331992857E+00  0.25177476743E+02  0.31202212798E+02  0.00000000000E+00 0.  1.
         14    1    6    6    0    0 -0.71707800782E+02  0.46408055347E+02  0.53354686104E+02  0.10070967592E+03  0.00000000000E+00 0. -1.
         -5    1    3    3    0  503 -0.32570922814E+02  0.16076842491E+02 -0.17424717882E+02  0.40559100960E+02  0.47000000000E+01 0.  1.
         11    1    4    4    0    0  0.86130403042E+02 -0.20798306328E+02  0.97385077376E+02  0.13166195035E+03  0.00000000000E+00 0. -1.
        -12    1    4    4    0    0 -0.17251627154E+02 -0.12649679170E+02  0.24522166918E+02  0.32541814530E+02  0.00000000000E+00 0.  1.
</event>
<event>
12    1  0.8684423E-002  0.1878958E+03  0.7818608E-02  0.1162875E+00
         21   -1    0    0  503  502  0.00000000000E+00  0.00000000000E+00  0.52141726348E+03  0.52141726348E+03  0.00000000000E+00 0.  1.
         21   -1    0    0  501  503 -0.00000000000E+00 -0.00000000000E+00 -0.93406202877E+02  0.93406202877E+02  0.00000000000E+00 0.  1.
          6    2    1    2  501    0  0.40153980586E+02 -0.13733373431E+02  0.37149835057E+02  0.18114461314E+03  0.17214038725E+03 0.  0.
         24    2    3    3    0    0  0.39032210233E+02  0.42370830969E+02 -0.21711822864E+02  0.99684654307E+02  0.78401698320E+02 0.  0.
         -6    2    1    2    0  502 -0.40153980586E+02  0.13733373431E+02  0.39086122554E+03  0.43367885321E+03  0.18304071238E+03 0.  0.
        -24    2    5    5    0    0 -0.42967182124E+02  0.55419962989E+02  0.12087733677E+03  0.16044072255E+03  0.78818423416E+02 0.  0.
          5    1    3    3  501    0  0.11217703532E+01 -0.56104204401E+02  0.58861657921E+02  0.81459958835E+02  0.47000000000E+01 0. -1.
        -13    1    4    4    0    0  0.40725256194E+02 -0.89138776007E+01 -0.24394146615E+02  0.48301947114E+02  0.00000000000E+00 0.  1.
         14    1    4    4    0    0 -0.16930459609E+01  0.51284708570E+02  0.26823237504E+01  0.51382707193E+02  0.00000000000E+00 0. -1.
         -5    1    5    5    0  502  0.28132015375E+01 -0.41686589557E+02  0.26998388877E+03  0.27323813067E+03  0.47000000000E+01 0.  1.
         13    1    6    6    0    0 -0.39812301255E+01 -0.13944414690E+02 -0.13834060205E+01  0.14567453675E+02  0.00000000000E+00 0. -1.
        -14    1    6    6    0    0 -0.38985951998E+02  0.69364377678E+02  0.12226074279E+03  0.14587326887E+03  0.00000000000E+00 0.  1.
</event>
<event>
12    1  0.8684423E-002  0.1757415E+03  0.7818608E-02  0.1173151E+00
         21   -1    0    0  501  502  0.00000000000E+00  0.00000000000E+00  0.64978665524E+03  0.64978665524E+03  0.00000000000E+00 0.  1.
         21   -1    0    0  502  503 -0.00000000000E+00 -0.00000000000E+00 -0.54432722172E+02  0.54432722172E+02  0.00000000000E+00 0.  1.
         -6    2    1    2    0  503 -0.12239262153E+02  0.11962769977E+02  0.15822367730E+03  0.23308463210E+03  0.17029623090E+03 0.  0.
        -24    2    3    3    0    0 -0.30769222735E+02  0.42742795329E+02  0.17074160012E+03  0.19474982035E+03  0.77466811566E+02 0.  0.
          6    2    1    2  501    0  0.12239262153E+02 -0.11962769977E+02  0.43713025577E+03  0.47113474532E+03  0.17490620438E+03 0.  0.
         24    2    5    5    0    0  0.52461570468E+02  0.44161313326E+02  0.29381479070E+03  0.31198337290E+03  0.79398084133E+02 0.  0.
          5    1    5    5  501    0 -0.40222308315E+02 -0.56124083303E+02  0.14331546507E+03  0.15915137241E+03  0.47000000000E+01 0. -1.
        -11    1    6    6    0    0 -0.93309330630E+01  0.37641706690E+02  0.15701883987E+03  0.16173707203E+03  0.00000000000E+00 0.  1.
         12    1    6    6    0    0  0.61792503531E+02  0.65196066360E+01  0.13679595083E+03  0.15024630088E+03  0.00000000000E+00 0. -1.
         -5    1    3    3    0  503  0.18529960582E+02 -0.30780025352E+02 -0.12517922821E+02  0.38334811746E+02  0.47000000000E+01 0.  1.
         13    1    4    4    0    0  0.23053418265E+02  0.27194030245E+02  0.86733163474E+02  0.93774287631E+02  0.00000000000E+00 0. -1.
        -14    1    4    4    0    0 -0.53822641000E+02  0.15548765084E+02  0.84008436649E+02  0.10097553272E+03  0.00000000000E+00 0.  1.
</event>
<event>
12    1  0.8684423E-002  0.1786714E+03  0.7818608E-02  0.1169222E+00
         21   -1    0    0  503  502  0.00000000000E+00  0.00000000000E+00  0.14646016239E+03  0.14646016239E+03  0.00000000000E+00 0. -1.
         21   -1    0    0  501  503 -0.00000000000E+00 -0.00000000000E+00 -0.22102579528E+03  0.22102579528E+03  0.00000000000E+00 0.  1.
          6    2    1    2  501    0 -0.41789290399E+02  0.22491476677E+02 -0.61075162170E+02  0.18882170257E+03  0.17225344296E+03 0.  0.
         24    2    3    3    0    0 -0.81178962799E+02 -0.24274525132E+02 -0.21867538113E+02  0.11603480127E+03  0.76201110958E+02 0.  0.
         -6    2    1    2    0  502  0.41789290399E+02 -0.22491476677E+02 -0.13490470713E+02  0.17866425510E+03  0.17171695296E+03 0.  0.
        -24    2    5    5    0    0  0.33380180385E+02 -0.19620614270E+02  0.57350803774E+02  0.10711335606E+03  0.81761552129E+02 0.  0.
          5    1    3    3  501    0  0.39389672399E+02  0.46766001809E+02 -0.39207624056E+02  0.72786901301E+02  0.47000000000E+01 0. -1.
        -11    1    4    4    0    0 -0.94829434654E+01 -0.14334954768E+02 -0.38151103654E+02  0.41844042048E+02  0.00000000000E+00 0.  1.
         12    1    4    4    0    0 -0.71696019333E+02 -0.99395703639E+01  0.16283565540E+02  0.74190759222E+02  0.00000000000E+00 0. -1.
         -5    1    5    5    0  502  0.84091100146E+01 -0.28708624075E+01 -0.70841274487E+02  0.71550899038E+02  0.47000000000E+01 0.  1.
         13    1    6    6    0    0  0.52310002744E+02  0.11840023367E+02  0.31361547328E+02  0.62129455101E+02  0.00000000000E+00 0. -1.
        -14    1    6    6    0    0 -0.18929822359E+02 -0.31460637636E+02  0.25989256446E+02  0.44983900961E+02  0.00000000000E+00 0.  1.
</event>
<event>
12    1  0.8684423E-002  0.2592878E+03  0.7818608E-02  0.1107668E+00
         21   -1    0    0  503  502  0.00000000000E+00  0.00000000000E+00  0.79459291071E+03  0.79459291071E+03  0.00000000000E+00 0. -1.
         21   -1    0    0  501  503 -0.00000000000E+00 -0.00000000000E+00 -0.10648183373E+03  0.10648183373E+03  0.00000000000E+00 0.  1.
          6    2    1    2  501    0  0.27690164586E+02 -0.19276044193E+03  0.13923070955E+03  0.29430484164E+03  0.17119233669E+03 0.  0.
         24    2    3    3    0    0  0.40620887113E+02 -0.18478627595E+03  0.59120087308E+02  0.21263114511E+03  0.76946701669E+02 0.  0.
         -6    2    1    2    0  502 -0.27690164586E+02  0.19276044193E+03  0.54888036742E+03  0.60676990280E+03  0.17022550930E+03 0.  0.
        -24    2    5    5    0    0 -0.63216269209E+02  0.19126651594E+03  0.51046908123E+03  0.55421656959E+03  0.77447700467E+02 0.  0.
          5    1    3    3  501    0 -0.12930722527E+02 -0.79741659828E+01  0.80110622245E+02  0.81673696529E+02  0.47000000000E+01 0. -1.
        -13    1    4    4    0    0  0.17638725466E+02 -0.77241155503E+02 -0.14152303987E+02  0.80483591171E+02  0.00000000000E+00 0.  1.
         14    1    4    4    0    0  0.22982161647E+02 -0.10754512045E+03  0.73272391295E+02  0.13214755394E+03  0.00000000000E+00 0. -1.
         -5    1    5    5    0  502  0.35526104622E+02  0.14939259932E+01  0.38411286194E+02  0.52553333211E+02  0.47000000000E+01 0.  1.
         13    1    6    6    0    0 -0.33950724039E+00  0.11502360218E+03  0.31145116764E+03  0.33201261143E+03  0.00000000000E+00 0. -1.
        -14    1    6    6    0    0 -0.62876761968E+02  0.76242913759E+02  0.19901791359E+03  0.22220395816E+03  0.00000000000E+00 0.  1.
</event>
<event>
12    1  0.8684423E-002  0.2066384E+03  0.7818608E-02  0.1144346E+00
         21   -1    0    0  501  502  0.00000000000E+00  0.00000000000E+00  0.83506415375E+03  0.83506415375E+03  0.00000000000E+00 0. -1.
         21   -1    0    0  502  503 -0.00000000000E+00 -0.00000000000E+00 -0.85215703189E+02  0.85215703189E+02  0.00000000000E+00 0.  1.
         -6    2    1    2    0  503  0.81053167174E+02 -0.78280708556E+02  0.83208641032E+02  0.22234857296E+03  0.17267809564E+03 0.  0.
        -24    2    3    3    0    0  0.54313614732E+01 -0.96004653414E+02  0.73466335708E+02  0.14392792369E+03  0.77920161510E+02 0.  0.
          6    2    1    2  501    0 -0.81053167174E+02  0.78280708556E+02  0.66663980952E+03  0.69793128398E+03  0.17321072794E+03 0.  0.
         24    2    5    5    0    0  0.15949674889E+02  0.70728451869E+01  0.20540709532E+03  0.22123660410E+03  0.80306555879E+02 0.  0.
          5    1    5    5  501    0 -0.97002842063E+02  0.71207863369E+02  0.46123271420E+03  0.47669467988E+03  0.47000000000E+01 0. -1.
        -11    1    6    6    0    0 -0.30651975418E+02  0.16161610067E+02  0.90440889681E+02  0.96851926998E+02  0.00000000000E+00 0.  1.
         12    1    6    6    0    0  0.46601650306E+02 -0.90887648802E+01  0.11496620564E+03  0.12438467710E+03  0.00000000000E+00 0. -1.
         -5    1    3    3    0  503  0.75621805701E+02  0.17723944858E+02  0.97423053239E+01  0.78420649269E+02  0.47000000000E+01 0.  1.
         11    1    4    4    0    0  0.13295805468E+02  0.10340728082E+02  0.67784201600E+01  0.18156433575E+02  0.00000000000E+00 0. -1.
        -12    1    4    4    0    0 -0.78644439947E+01 -0.10634538150E+03  0.66687915548E+02  0.12577149011E+03  0.00000000000E+00 0.  1.
</event>
<event>
12    1  0.8684423E-002  0.2749085E+03  0.7818608E-02  0.1098554E+00
         21   -1    0    0  503  502  0.00000000000E+00  0.00000000000E+00  0.12269575822E+04  0.12269575822E+04  0.00000000000E+00 0.  1.
         21   -1    0    0  501  503 -0.00000000000E+00 -0.00000000000E+00 -0.70742307824E+02  0.70742307824E+02  0.00000000000E+00 0. -1.
          6    2    1    2  501    0 -0.62524793319E+02  0.20541388393E+03  0.34341286630E+03  0.43966582893E+03  0.17108311108E+03 0.  0.
         24    2    3    3    0    0 -0.10626637491E+03  0.13866470353E+03  0.26238531505E+03  0.32583993950E+03  0.82493455344E+02 0.  0.
         -6    2    1    2    0  502  0.62524793319E+02 -0.20541388393E+03  0.81280240805E+03  0.85803406107E+03  0.17166968845E+03 0.  0.
        -24    2    5    5    0    0  0.44626578372E+02 -0.12153699354E+03  0.28322027017E+03  0.32153148922E+03  0.80037521375E+02 0.  0.
          5    1    3    3  501    0  0.43741581588E+02  0.66749180401E+02  0.81027551243E+02  0.11382588943E+03  0.47000000000E+01 0. -1.
        -13    1    4    4    0    0 -0.31164479564E+02  0.67958146777E+02  0.17626735224E+03  0.19146726605E+03  0.00000000000E+00 0.  1.
         14    1    4    4    0    0 -0.75101895343E+02  0.70706556752E+02  0.86117962811E+02  0.13437267345E+03  0.00000000000E+00 0. -1.
         -5    1    5    5    0  502  0.17898214947E+02 -0.83876890389E+02  0.52958213788E+03  0.53650257185E+03  0.47000000000E+01 0.  1.
         11    1    6    6    0    0 -0.15621631377E+01  0.11092269107E+02  0.14483664859E+02  0.18309979119E+02  0.00000000000E+00 0. -1.
        -12    1    6    6    0    0  0.46188741510E+02 -0.13262926265E+03  0.26873660531E+03  0.30322151010E+03  0.00000000000E+00 0.  1.
</event>
<event>
12    1  0.8684423E-002  0.2409209E+03  0.7818608E-02  0.1119308E+00
         21   -1    0    0  501  502  0.00000000000E+00  0.00000000000E+00  0.22309566831E+03  0.22309566831E+03  0.00000000000E+00 0. -1.
         21   -1    0    0  502  503 -0.00000000000E+00 -0.00000000000E+00 -0.26212436431E+03  0.26212436431E+03  0.00000000000E+00 0. -1.
         -6    2    1    2    0  503  0.16458585316E+03  0.32069638274E+02  0.54546887429E+01  0.24098261324E+03  0.17299104454E+03 0.  0.
        -24    2    3    3    0    0  0.14935381300E+02 -0.18161689087E+02 -0.28766649125E+01  0.82837264171E+02  0.79377733460E+02 0.  0.
          6    2    1    2  501    0 -0.16458585316E+03 -0.32069638274E+02 -0.44483384739E+02  0.24423741938E+03  0.17191911106E+03 0.  0.
         24    2    5    5    0    0 -0.84375737807E+02  0.20659645490E+02  0.33472385348E+02  0.12049077473E+03  0.76495360202E+02 0.  0.
          5    1    5    5  501    0 -0.80210115357E+02 -0.52729283764E+02 -0.77955770087E+02  0.12374664465E+03  0.47000000000E+01 0. -1.
        -11    1    6    6    0    0 -0.76988124677E+02  0.26375828328E+02 -0.43840838056E+01  0.81498931601E+02  0.00000000000E+00 0.  1.
         12    1    6    6    0    0 -0.73876131292E+01 -0.57161828378E+01  0.37856469153E+02  0.38991843131E+02  0.00000000000E+00 0. -1.
         -5    1    3    3    0  503  0.14965047186E+03  0.50231327361E+02  0.83313536554E+01  0.15814534907E+03  0.47000000000E+01 0.  1.
         11    1    4    4    0    0  0.14594808972E+02  0.22623522457E+02 -0.24737116344E+02  0.36561689544E+02  0.00000000000E+00 0. -1.
        -12    1    4    4    0    0  0.34057232808E+00 -0.40785211544E+02  0.21860451432E+02  0.46275574626E+02  0.00000000000E+00 0.  1.
</event>
<event>
12    1  0.8684423E-002  0.2228449E+03  0.7818608E-02  0.1131916E+00
         21   -1    0    0  503  502  0.00000000000E+00  0.00000000000E+00  0.95122535861E+03  0.95122535861E+03  0.00000000000E+00 0.  1.
         21   -1    0    0  501  503 -0.00000000000E+00 -0.00000000000E+00 -0.10579178810E+03  0.10579178810E+03  0.00000000000E+00 0. -1.
          6    2    1    2  501    0  0.14012636124E+03  0.13509999801E+02  0.45618164538E+02  0.22673736503E+03  0.17178736437E+03 0.  0.
         24    2    3    3    0    0  0.47340617268E+02  0.32961036505E+02  0.78369259517E+02  0.12632690076E+03  0.80555453240E+02 0.  0.
         -6    2    1    2    0  502 -0.14012636124E+03 -0.13509999801E+02  0.79981540597E+03  0.83027978168E+03  0.17274812597E+03 0.  0.
        -24    2    5    5    0    0 -0.66093914425E+02 -0.50952002359E+02  0.27462944792E+03  0.29856078891E+03  0.82174807218E+02 0.  0.
          5    1    3    3  501    0  0.92785743970E+02 -0.19451036704E+02 -0.32751094979E+02  0.10041046427E+03  0.47000000000E+01 0. -1.
        -11    1    4    4    0    0  0.20994300652E+02 -0.25049032963E+02  0.13379442451E+02  0.35316061396E+02  0.00000000000E+00 0.  1.
         12    1    4    4    0    0  0.26346316616E+02  0.58010069468E+02  0.64989817066E+02  0.91010839361E+02  0.00000000000E+00 0. -1.
         -5    1    5    5    0  502 -0.74032446813E+02  0.37442002558E+02  0.52518595805E+03  0.53171899277E+03  0.47000000000E+01 0.  1.
         13    1    6    6    0    0  0.75452532313E+01 -0.36664393921E+02  0.55464996257E+02  0.66914680286E+02  0.00000000000E+00 0. -1.
        -14    1    6    6    0    0 -0.73639167656E+02 -0.14287608437E+02  0.21916445167E+03  0.23164610863E+03  0.00000000000E+00 0.  1.
</event>
<event>
12    1  0.8684423E-002  0.1917695E+03  0.7818608E-02  0.1157186E+00
         21   -1    0    0  503  502  0.00000000000E+00  0.00000000000E+00  0.63676451613E+02  0.63676451613E+02  0.00000000000E+00 0. -1.
         21   -1    0    0  501  503 -0.00000000000E+00 -0.00000000000E+00 -0.86373335826E+03  0.86373335826E+03  0.00000000000E+00 0. -1.
          6    2    1    2  501    0  0.23055841658E+02 -0.81123652257E+02 -0.66985741566E+03  0.69676717204E+03  0.17222925401E+03 0.  0.
         24    2    3    3    0    0  0.13272629820E+02  0.25531843758E+02 -0.32060941048E+03  0.33143531580E+03  0.78936282691E+02 0.  0.
         -6    2    1    2    0  502 -0.23055841658E+02  0.81123652257E+02 -0.13019949099E+03  0.23064263783E+03  0.17067952467E+03 0.  0.
        -24    2    5    5    0    0 -0.36766188724E+02  0.21814040276E+02  0.16474898029E+02  0.71768253223E+02  0.55241785988E+02 0.  0.
          5    1    3    3  501    0  0.97832118372E+01 -0.10665549602E+03 -0.34924800518E+03  0.36533185624E+03  0.47000000000E+01 0. -1.
        -13    1    4    4    0    0  0.38255141715E+02  0.29691525638E+02 -0.12267320360E+03  0.13188539512E+03  0.00000000000E+00 0.  1.
         14    1    4    4    0    0 -0.24982511895E+02 -0.41596818799E+01 -0.19793620687E+03  0.19954992069E+03  0.00000000000E+00 0. -1.
         -5    1    5    5    0  502  0.13710347066E+02  0.59309611981E+02 -0.14667438902E+03  0.15887438461E+03  0.47000000000E+01 0.  1.
         13    1    6    6    0    0 -0.23871913444E+02  0.35950306408E+02 -0.44870379953E+01  0.43386936885E+02  0.00000000000E+00 0. -1.
        -14    1    6    6    0    0 -0.12894275280E+02 -0.14136266132E+02  0.20961936025E+02  0.28381316337E+02  0.00000000000E+00 0.  1.
</event>
<event>
12    1  0.8684423E-002  0.2021704E+03  0.7818608E-02  0.1147974E+00
         21   -1    0    0  503  502  0.00000000000E+00  0.00000000000E+00  0.20910964739E+03  0.20910964739E+03  0.00000000000E+00 0. -1.
         21   -1    0    0  501  503 -0.00000000000E+00 -0.00000000000E+00 -0.26473573572E+03  0.26473573572E+03  0.00000000000E+00 0.  1.
          6    2    1    2  501    0  0.10064861746E+03  0.33371343936E+02 -0.14923920759E+03  0.25128711588E+03  0.17213100456E+03 0.  0.
         24    2    3    3    0    0  0.65982655953E+02 -0.47526622064E+02 -0.71233028485E+02  0.13358722731E+03  0.78478737645E+02 0.  0.
         -6    2    1    2    0  502 -0.10064861746E+03 -0.33371343936E+02  0.93613119255E+02  0.22255826723E+03  0.17182833127E+03 0.  0.
        -24    2    5    5    0    0 -0.33813648943E+02  0.33479770436E+02  0.86548532358E+02  0.12764787319E+03  0.80864536072E+02 0.  0.
          5    1    3    3  501    0  0.34665961503E+02  0.80897966000E+02 -0.78006179105E+02  0.11769988857E+03  0.47000000000E+01 0. -1.
        -13    1    4    4    0    0  0.88817575887E+00  0.13772929597E+02 -0.34066455405E+02  0.36756031202E+02  0.00000000000E+00 0.  1.
         14    1    4    4    0    0  0.65094480195E+02 -0.61299551662E+02 -0.37166573080E+02  0.96831196111E+02  0.00000000000E+00 0. -1.
         -5    1    5    5    0  502 -0.66834968514E+02 -0.66851114372E+02  0.70645868971E+01  0.94910394041E+02  0.47000000000E+01 0.  1.
         13    1    6    6    0    0 -0.16129911201E+02  0.59898522545E+02  0.57688736766E+02  0.84711258922E+02  0.00000000000E+00 0. -1.
        -14    1    6    6    0    0 -0.17683737742E+02 -0.26418752109E+02  0.28859795592E+02  0.42936614272E+02  0.00000000000E+00 0.  1.
</event>
<event>
12    1  0.8684423E-002  0.2343747E+03  0.7818608E-02  0.1125150E+00
         21   -1    0    0  501  502  0.00000000000E+00  0.00000000000E+00  0.78173523743E+02  0.78173523743E+02  0.00000000000E+00 0.  1.
         21   -1    0    0  502  503 -0.00000000000E+00 -0.00000000000E+00 -0.75128529696E+03  0.75128529696E+03  0.00000000000E+00 0.  1.
         -6    2    1    2    0  503  0.14740912099E+03 -0.21607436575E+02 -0.46163778541E+03  0.51378059256E+03  0.16930659204E+03 0.  0.
        -24    2    3    3    0    0  0.61363823549E+02  0.47802583573E+02 -0.23450354309E+03  0.26112747435E+03  0.84528340226E+02 0.  0.
          6    2    1    2  501    0 -0.14740912099E+03  0.21607436575E+02 -0.21147398781E+03  0.31567822815E+03  0.18092862112E+03 0.  0.
         24    2    5    5    0    0 -0.77955389229E+02  0.76581646963E+02 -0.16844076004E+03  0.21708850579E+03  0.82542948453E+02 0.  0.
          5    1    5    5  501    0 -0.69453731758E+02 -0.54974210388E+02 -0.43033227768E+02  0.98589722360E+02  0.47000000000E+01 0. -1.
        -11    1    6    6    0    0  0.14921534280E+02  0.26249540690E+02 -0.26656740300E+02  0.40277442510E+02  0.00000000000E+00 0.  1.
         12    1    6    6    0    0 -0.92876923509E+02  0.50332106272E+02 -0.14178401974E+03  0.17681106328E+03  0.00000000000E+00 0. -1.
         -5    1    3    3    0  503  0.86045297438E+02 -0.69410020147E+02 -0.22713424232E+03  0.25265311821E+03  0.47000000000E+01 0.  1.
         11    1    4    4    0    0 -0.66106003268E+00  0.25825162166E+02 -0.10894003838E+02  0.28036678136E+02  0.00000000000E+00 0. -1.
        -12    1    4    4    0    0  0.62024883582E+02  0.21977421407E+02 -0.22360953925E+03  0.23309079621E+03  0.00000000000E+00 0.  1.
</event>
<event>
12    1  0.8684423E-002  0.1810751E+03  0.7818608E-02  0.1169096E+00
         21   -1    0    0  503  502  0.00000000000E+00  0.00000000000E+00  0.21848468928E+03  0.21848468928E+03  0.00000000000E+00 0.  1.
         21   -1    0    0  501  503 -0.00000000000E+00 -0.00000000000E+00 -0.19697988239E+03  0.19697988239E+03  0.00000000000E+00 0.  1.
          6    2    1    2  501    0 -0.11535400188E+02  0.28553697329E+02 -0.98817547529E+02  0.19805788242E+03  0.16885981760E+03 0.  0.
         24    2    3    3    0    0  0.44894830337E+02  0.16917701174E+02 -0.10421851798E+03  0.13999732950E+03  0.80224674335E+02 0.  0.
         -6    2    1    2    0  502  0.11535400188E+02 -0.28553697329E+02  0.12032235442E+03  0.21740668926E+03  0.17843716113E+03 0.  0.
        -24    2    5    5    0    0  0.71037436857E+02  0.31147349318E+01  0.10555665236E+03  0.14824385294E+03  0.76013249298E+02 0.  0.
          5    1    3    3  501    0 -0.56430230525E+02  0.11635996155E+02  0.54009704533E+01  0.58060552921E+02  0.47000000000E+01 0. -1.
        -13    1    4    4    0    0  0.69304189808E+01  0.37234537622E+02 -0.84577550880E+02  0.92670403108E+02  0.00000000000E+00 0.  1.
         14    1    4    4    0    0  0.37964411356E+02 -0.20316836448E+02 -0.19640967102E+02  0.47326926391E+02  0.00000000000E+00 0. -1.
         -5    1    5    5    0  502 -0.59502036669E+02 -0.31668432261E+02  0.14765702057E+02  0.69162836313E+02  0.47000000000E+01 0.  1.
         11    1    6    6    0    0  0.44190223832E+02 -0.49462799976E+01  0.60639547090E+01  0.44877757462E+02  0.00000000000E+00 0. -1.
        -12    1    6    6    0    0  0.26847213025E+02  0.80610149295E+01  0.99492697651E+02  0.10336609548E+03  0.00000000000E+00 0.  1.
</event>
<event>
12    1  0.8684423E-002  0.1920919E+03  0.7818608E-02  0.1161276E+00
         21   -1    0    0  503  502  0.00000000000E+00  0.00000000000E+00  0.49073658261E+03  0.49073658261E+03  0.00000000000E+00 0.  1.
         21   -1    0    0  501  503 -0.00000000000E+00 -0.00000000000E+00 -0.67950648804E+02  0.67950648804E+02  0.00000000000E+00 0.  1.
          6    2    1    2  501    0 -0.15801632602E+02  0.15012481073E+01  0.18002576435E+03  0.24912013908E+03  0.17146318126E+03 0.  0.
         24    2    3    3    0    0 -0.12921281249E+02  0.44887665486E+02  0.18568127378E+03  0.20502079188E+03  0.73308441864E+02 0.  0.
         -6    2    1    2    0  502  0.15801632602E+02 -0.15012481073E+01  0.24276016946E+03  0.30956709233E+03  0.19143494833E+03 0.  0.
        -24    2    5    5    0    0 -0.70525514156E+02 -0.53049177751E+01  0.14219643985E+03  0.17689457113E+03  0.77909379979E+02 0.  0.
          5    1    3    3  501    0 -0.28803513534E+01 -0.43386417379E+02 -0.56555094279E+01  0.44099347204E+02  0.47000000000E+01 0. -1.
        -11    1    4    4    0    0 -0.37445090758E+02  0.14082400245E+02  0.51683805249E+02  0.65357972303E+02  0.00000000000E+00 0.  1.
         12    1    4    4    0    0  0.24523809509E+02  0.30805265241E+02  0.13399746853E+03  0.13966281958E+03  0.00000000000E+00 0. -1.
         -5    1    5    5    0  502  0.86327146759E+02  0.38036696678E+01  0.10056372961E+03  0.13267252120E+03  0.47000000000E+01 0.  1.
         11    1    6    6    0    0 -0.56956590043E+02  0.30481005498E+02  0.70489407278E+02  0.95613290832E+02  0.00000000000E+00 0. -1.
        -12    1    6    6    0    0 -0.13568924114E+02 -0.35785923273E+02  0.71707032573E+02  0.81281280296E+02  0.00000000000E+00 0.  1.
</event>
<event>
12    1  0.8684423E-002  0.1907477E+03  0.7818608E-02  0.1157886E+00
         21   -1    0    0  501  502  0.00000000000E+00  0.00000000000E+00  0.48334876688E+02  0.48334876688E+02  0.00000000000E+00 0. -1.
         21   -1    0    0  502  503 -0.00000000000E+00 -0.00000000000E+00 -0.15600474961E+04  0.15600474961E+04  0.00000000000E+00 0. -1.
         -6    2    1    2    0  503  0.13597153919E+02 -0.82541336118E+02 -0.13345540014E+04  0.13480559177E+04  0.17094566318E+03 0.  0.
        -24    2    3    3    0    0  0.33616137688E+02 -0.12034529187E+03 -0.99815378155E+03  0.10089142117E+04  0.77355549629E+02 0.  0.
          6    2    1    2  501    0 -0.13597153919E+02  0.82541336118E+02 -0.17715861804E+03  0.26032645514E+03  0.17142558892E+03 0.  0.
         24    2    5    5    0    0  0.55458166834E+02  0.50177981061E+02 -0.77206551216E+02  0.13451497022E+03  0.80870189881E+02 0.  0.
          5    1    5    5  501    0 -0.69055320753E+02  0.32363355058E+02 -0.99952066822E+02  0.12581148492E+03  0.47000000000E+01 0. -1.
        -13    1    6    6    0    0 -0.41134666234E+01 -0.14193187627E+02  0.36534601621E+01  0.15222186237E+02  0.00000000000E+00 0.  1.
         14    1    6    6    0    0  0.59571633457E+02  0.64371168688E+02 -0.80860011378E+02  0.11929278399E+03  0.00000000000E+00 0. -1.
         -5    1    3    3    0  503 -0.20018983769E+02  0.37803955756E+02 -0.33640021983E+03  0.33914170591E+03  0.47000000000E+01 0.  1.
         11    1    4    4    0    0 -0.14090086483E+02 -0.21101312434E+02 -0.74122790388E+02  0.78345286894E+02  0.00000000000E+00 0. -1.
        -12    1    4    4    0    0  0.47706224172E+02 -0.99243979441E+02 -0.92403099116E+03  0.93056892485E+03  0.00000000000E+00 0.  1.
</event>
<event>
12    1  0.8684423E-002  0.1738787E+03  0.7818608E-02  0.1173895E+00
         21   -1    0    0  503  502  0.00000000000E+00  0.00000000000E+00  0.11244051280E+03  0.11244051280E+03  0.00000000000E+00 0. -1.
         21   -1    0    0  501  503 -0.00000000000E+00 -0.00000000000E+00 -0.29726272186E+03  0.29726272186E+03  0.00000000000E+00 0. -1.
          6    2    1    2  501    0  0.18423761364E+01 -0.26525403118E+02 -0.15595572543E+03  0.23357225847E+03  0.17183369946E+03 0.  0.
         24    2    3    3    0    0 -0.34340884324E+02 -0.62547734053E+02 -0.14644412461E+03  0.18142441850E+03  0.79858766725E+02 0.  0.
         -6    2    1    2    0  502 -0.18423761364E+01  0.26525403118E+02 -0.28866483635E+02  0.17613097619E+03  0.17170281167E+03 0.  0.
        -24    2    5    5    0    0  0.66316983805E+02  0.40231600294E+02  0.99133700671E+01  0.96384344651E+02  0.56348407116E+02 0.  0.
          5    1    3    3  501    0  0.36183260461E+02  0.36022330934E+02 -0.95116008222E+01  0.52147839972E+02  0.47000000000E+01 0. -1.
        -13    1    4    4    0    0  0.14124191389E+02  0.11220406806E+02 -0.17257221344E+02  0.24964014096E+02  0.00000000000E+00 0.  1.
         14    1    4    4    0    0 -0.48465075713E+02 -0.73768140859E+02 -0.12918690327E+03  0.15646040440E+03  0.00000000000E+00 0. -1.
         -5    1    5    5    0  502 -0.68159359941E+02 -0.13706197176E+02 -0.38779853702E+02  0.79746631538E+02  0.47000000000E+01 0.  1.
         11    1    6    6    0    0  0.43844671520E+02  0.50115075874E+02 -0.64222909015E+01  0.66896351701E+02  0.00000000000E+00 0. -1.
        -12    1    6    6    0    0  0.22472312285E+02 -0.98834755790E+01  0.16335660969E+02  0.29487992950E+02  0.00000000000E+00 0.  1.
</event>
<event>
12    1  0.8684423E-002  0.3140998E+03  0.7818608E-02  0.1078428E+00
         21   -1    0    0  503  502  0.00000000000E+00  0.00000000000E+00  0.10506397869E+04  0.10506397869E+04  0.00000000000E+00 0.  1.
         21   -1    0    0  501  503 -0.00000000000E+00 -0.00000000000E+00 -0.94232182425E+02  0.94232182425E+02  0.00000000000E+00 0. -1.
          6    2    1    2  501    0 -0.24926971369E+03 -0.86804651504E+02  0.44042346887E+03  0.54080382958E+03  0.16978077768E+03 0.  0.
         24    2    3    3    0    0 -0.17676563494E+03 -0.10154553860E+03  0.22966787404E+03  0.31738908983E+03  0.80192991401E+02 0.  0.
         -6    2    1    2    0  502  0.24926971369E+03  0.86804651504E+02  0.51598413556E+03  0.60406813970E+03  0.17025936558E+03 0.  0.
        -24    2    5    5    0    0  0.10363592746E+03  0.46349496827E+02  0.36450361541E+03  0.39002548691E+03  0.79801713461E+02 0.  0.
          5    1    3    3  501    0 -0.72504078752E+02  0.14740887094E+02  0.21075559483E+03  0.22341473976E+03  0.47000000000E+01 0. -1.
        -11    1    4    4    0    0 -0.99223515038E+02 -0.83054332742E+02  0.18574639633E+03  0.22637369961E+03  0.00000000000E+00 0.  1.
         12    1    4    4    0    0 -0.77542119898E+02 -0.18491205856E+02  0.43921477711E+02  0.91015390218E+02  0.00000000000E+00 0. -1.
         -5    1    5    5    0  502  0.14563378623E+03  0.40455154678E+02  0.15148052015E+03  0.21404265279E+03  0.47000000000E+01 0.  1.
         11    1    6    6    0    0  0.71123122335E+02  0.33684054543E+02  0.12304550545E+03  0.14605927041E+03  0.00000000000E+00 0. -1.
        -12    1    6    6    0    0  0.32512805125E+02  0.12665442284E+02  0.24145810996E+03  0.24396621650E+03  0.00000000000E+00 0.  1.
</event>
<event>
12    1  0.8684423E-002  0.1829889E+03  0.7818608E-02  0.1165532E+00
         21   -1    0    0  503  502  0.00000000000E+00  0.00000000000E+00  0.73309414371E+03  0.73309414371E+03  0.00000000000E+00 0. -1.
         21   -1    0    0  501  503 -0.00000000000E+00 -0.00000000000E+00 -0.47031014413E+02  0.47031014413E+02  0.00000000000E+00 0. -1.
          6    2    1    2  501    0 -0.58580807893E+02 -0.24787544716E+02  0.26541882441E+03  0.32238498093E+03  0.17157735909E+03 0.  0.
         24    2    3    3    0    0  0.14303073942E+02 -0.60410741455E+02  0.13685908459E+03  0.17029695024E+03  0.80103724120E+02 0.  0.
         -6    2    1    2    0  502  0.58580807893E+02  0.24787544716E+02  0.42064430488E+03  0.45774017719E+03  0.16893284215E+03 0.  0.
        -24    2    5    5    0    0  0.37282475146E+02 -0.22786494651E+02  0.38252534292E+03  0.39299410812E+03  0.78800531374E+02 0.  0.
          5    1    3    3  501    0 -0.72883881835E+02  0.35623196740E+02  0.12855973982E+03  0.15208803069E+03  0.47000000000E+01 0. -1.
        -13    1    4    4    0    0 -0.18088890091E+02 -0.44940929620E+02  0.12232709196E+03  0.13157056102E+03  0.00000000000E+00 0.  1.
         14    1    4    4    0    0  0.32391964033E+02 -0.15469811835E+02  0.14531992634E+02  0.38726389220E+02  0.00000000000E+00 0. -1.
         -5    1    5    5    0  502  0.21298332747E+02  0.47574039367E+02  0.38118961961E+02  0.64746069073E+02  0.47000000000E+01 0.  1.
         11    1    6    6    0    0 -0.63239310781E+01 -0.38333270825E+02  0.24039261011E+03  0.24351188626E+03  0.00000000000E+00 0. -1.
        -12    1    6    6    0    0  0.43606406224E+02  0.15546776174E+02  0.14213273281E+03  0.14948222185E+03  0.00000000000E+00 0.  1.
</event>
<event>
12    1  0.8684423E-002  0.2116443E+03  0.7818608E-02  0.1140435E+00
         21   -1    0    0  501  502  0.00000000000E+00  0.00000000000E+00  0.11165092961E+03  0.11165092961E+03  0.00000000000E+00 0.  1.
         21   -1    0    0  502  503 -0.00000000000E+00 -0.00000000000E+00 -0.43468696882E+03  0.43468696882E+03  0.00000000000E+00 0. -1.
         -6    2    1    2    0  503 -0.12134751041E+03  0.19583702915E+02 -0.23941396117E+03  0.31955024432E+03  0.17229211863E+03 0.  0.
        -24    2    3    3    0    0  0.84693728346E+01  0.24912722732E+02 -0.96772331563E+02  0.12654882950E+03  0.77183858814E+02 0.  0.
          6    2    1    2  501    0  0.12134751041E+03 -0.19583702915E+02 -0.83622078040E+02  0.22678765411E+03  0.17126368097E+03 0.  0.
         24    2    5    5    0    0  0.89639785015E+02  0.25126062607E+02 -0.11047060918E+03  0.16557265099E+03  0.80894605401E+02 0.  0.
          5    1    5    5  501    0  0.31707725391E+02 -0.44709765521E+02  0.26848531145E+02  0.61215003121E+02  0.47000000000E+01 0. -1.
        -13    1    6    6    0    0  0.21083970076E+02 -0.21504232441E+01  0.10672749514E+02  0.23729005384E+02  0.00000000000E+00 0.  1.
         14    1    6    6    0    0  0.68555814939E+02  0.27276485851E+02 -0.12114335870E+03  0.14184364561E+03  0.00000000000E+00 0. -1.
         -5    1    3    3    0  503 -0.12981688324E+03 -0.53290198172E+01 -0.14264162961E+03  0.19300141482E+03  0.47000000000E+01 0.  1.
         11    1    4    4    0    0 -0.22597936696E+01  0.40273615682E+02 -0.99731260336E+02  0.10757971498E+03  0.00000000000E+00 0. -1.
        -12    1    4    4    0    0  0.10729166504E+02 -0.15360892950E+02  0.29589287728E+01  0.18969114517E+02  0.00000000000E+00 0.  1.
</event>
<event>
12    1  0.8684423E-002  0.1910450E+03  0.7818608E-02  0.1158087E+00
         21   -1    0    0  501  502  0.00000000000E+00  0.00000000000E+00  0.57827634071E+02  0.57827634071E+02  0.00000000000E+00 0.  1.
         21   -1    0    0  502  503 -0.00000000000E+00 -0.00000000000E+00 -0.98533721629E+03  0.98533721629E+03  0.00000000000E+00 0.  1.
         -6    2    1    2    0  503 -0.78011038232E+02 -0.15643746580E+02 -0.77814761472E+03  0.80066287996E+03  0.17092948301E+03 0.  0.
        -24    2    3    3    0    0 -0.11844743341E+03  0.30490277302E+01 -0.61363412586E+03  0.63015980115E+03  0.80718297293E+02 0.  0.
          6    2    1    2  501    0  0.78011038232E+02  0.15643746580E+02 -0.14936196750E+03  0.24250197040E+03  0.17368868536E+03 0.  0.
         24    2    5    5    0    0  0.78773929709E+02  0.16454109976E+02 -0.17946573832E+03  0.21201319034E+03  0.79155365645E+02 0.  0.
          5    1    5    5  501    0 -0.76289147776E+00 -0.81036339630E+00  0.30103770818E+02  0.30488780063E+02  0.47000000000E+01 0. -1.
        -11    1    6    6    0    0  0.29860002779E+02 -0.32112464769E+02 -0.74146409275E+02  0.86142441154E+02  0.00000000000E+00 0.  1.
         12    1    6    6    0    0  0.48913926930E+02  0.48566574745E+02 -0.10531932905E+03  0.12587074919E+03  0.00000000000E+00 0. -1.
         -5    1    3    3    0  503  0.40436395176E+02 -0.18692774310E+02 -0.16451348886E+03  0.17050307881E+03  0.47000000000E+01 0.  1.
         11    1    4    4    0    0 -0.23406739376E+00 -0.22041662953E+02 -0.11472161301E+03  0.11682011036E+03  0.00000000000E+00 0. -1.
        -12    1    4    4    0    0 -0.11821336601E+03  0.25090690683E+02 -0.49891251286E+03  0.51333969080E+03  0.00000000000E+00 0.  1.
</event>
<event>
12    1  0.8684423E-002  0.2254550E+03  0.7818608E-02  0.1129988E+00
         21   -1    0    0  503  502  0.00000000000E+00  0.00000000000E+00  0.91447111828E+02  0.91447111828E+02  0.00000000000E+00 0. -1.
         21   -1    0    0  501  503 -0.00000000000E+00 -0.00000000000E+00 -0.97176725022E+03  0.97176725022E+03  0.00000000000E+00 0. -1.
          6    2    1    2  501    0  0.75499381798E+02 -0.12456197208E+03 -0.78823232240E+03  0.81967764538E+03  0.17130501078E+03 0.  0.
         24    2    3    3    0    0  0.43851959045E+02 -0.25391701878E+02 -0.56877760353E+03  0.57673986426E+03  0.80951688795E+02 0.  0.
         -6    2    1    2    0  502 -0.75499381798E+02  0.12456197208E+03 -0.92087815990E+02  0.24353671667E+03  0.17208755031E+03 0.  0.
        -24    2    5    5    0    0  0.26174084877E+01  0.67992627821E+01 -0.52385462501E+02  0.96674006979E+02  0.80923087820E+02 0.  0.
          5    1    3    3  501    0  0.31647422753E+02 -0.99170270197E+02 -0.21945471887E+03  0.24293778111E+03  0.47000000000E+01 0. -1.
        -11    1    4    4    0    0 -0.35723493331E+01  0.23283502445E+02 -0.23070779385E+03  0.23190724290E+03  0.00000000000E+00 0.  1.
         12    1    4    4    0    0  0.47424308378E+02 -0.48675204324E+02 -0.33806980968E+03  0.34483262136E+03  0.00000000000E+00 0. -1.
         -5    1    5    5    0  502 -0.78116790286E+02  0.11776270929E+03 -0.39702353489E+02  0.14686270969E+03  0.47000000000E+01 0.  1.
         13    1    6    6    0    0 -0.20154043204E+02  0.37765652387E+02 -0.27023852054E+02  0.50623300342E+02  0.00000000000E+00 0. -1.
        -14    1    6    6    0    0  0.22771451691E+02 -0.30966389605E+02 -0.25361610447E+02  0.46050706637E+02  0.00000000000E+00 0.  1.
</event>
<event>
12    1  0.8684423E-002  0.2958495E+03  0.7818608E-02  0.1088168E+00
         21   -1    0    0  503  502  0.00000000000E+00  0.00000000000E+00  0.20636415754E+03  0.20636415754E+03  0.00000000000E+00 0.  1.
         21   -1    0    0  501  503 -0.00000000000E+00 -0.00000000000E+00 -0.46757945085E+03  0.46757945085E+03  0.00000000000E+00 0. -1.
          6    2    1    2  501    0  0.86769585903E+01  0.23220560512E+03 -0.18793083748E+02  0.29644576482E+03  0.18311793692E+03 0.  0.
         24    2    3    3    0    0  0.12835134191E+01  0.41781418185E+02  0.42818385775E+02  0.96110802369E+02  0.75209958513E+02 0.  0.
         -6    2    1    2    0  502 -0.86769585903E+01 -0.23220560512E+03 -0.24242220957E+03  0.37749784358E+03  0.17245683969E+03 0.  0.
        -24    2    5    5    0    0 -0.31193761933E+02 -0.36775301049E+02 -0.77684447737E+02  0.12086458315E+03  0.79043661923E+02 0.  0.
          5    1    3    3  501    0  0.73934451713E+01  0.19042418694E+03 -0.61611469523E+02  0.20033496245E+03  0.47000000000E+01 0. -1.
        -13    1    4    4    0    0  0.15044082683E+02 -0.83507949553E+01  0.40578870486E+02  0.44076126532E+02  0.00000000000E+00 0.  1.
         14    1    4    4    0    0 -0.13760569264E+02  0.50132213140E+02  0.22395152893E+01  0.52034675838E+02  0.00000000000E+00 0. -1.
         -5    1    5    5    0  502  0.22516803342E+02 -0.19543030407E+03 -0.16473776183E+03  0.25663326042E+03  0.47000000000E+01 0.  1.
         11    1    6    6    0    0 -0.57629849154E+02 -0.18868923443E+02 -0.49613615847E+02  0.78350154198E+02  0.00000000000E+00 0. -1.
        -12    1    6    6    0    0  0.26436087221E+02 -0.17906377605E+02 -0.28070831890E+02  0.42514428957E+02  0.00000000000E+00 0.  1.
</event>
<event>
12    1  0.8684423E-002  0.1984507E+03  0.7818608E-02  0.1151200E+00
         21   -1    0    0  503  502  0.00000000000E+00  0.00000000000E+00  0.15844636916E+03  0.15844636916E+03  0.00000000000E+00 0.  1.
         21   -1    0    0  501  503 -0.00000000000E+00 -0.00000000000E+00 -0.25980636079E+03  0.25980636079E+03  0.00000000000E+00 0. -1.
          6    2    1    2  501    0 -0.59560780424E+02  0.79043128492E+02 -0.95919873936E+02  0.22041624257E+03  0.17200986903E+03 0.  0.
         24    2    3    3    0    0 -0.10302340826E+03  0.37753929852E+02 -0.47533962006E+02  0.14323409168E+03  0.78850146514E+02 0.  0.
         -6    2    1    2    0  502  0.59560780424E+02 -0.79043128492E+02 -0.54401176944E+01  0.19783648738E+03  0.17121442151E+03 0.  0.
        -24    2    5    5    0    0  0.43480089593E+02 -0.70133887822E+01 -0.57278035804E+02  0.10752518258E+03  0.79631562153E+02 0.  0.
          5    1    3    3  501    0  0.43462627837E+02  0.41289198640E+02 -0.48385911930E+02  0.77182150891E+02  0.47000000000E+01 0. -1.
        -13    1    4    4    0    0 -0.54482292401E+02  0.54391248226E+02 -0.60010813373E+01  0.77218786873E+02  0.00000000000E+00 0.  1.
         14    1    4    4    0    0 -0.48541115860E+02 -0.16637318374E+02 -0.41532880669E+02  0.66015304803E+02  0.00000000000E+00 0. -1.
         -5    1    5    5    0  502  0.16080690832E+02 -0.72029739710E+02  0.51837918109E+02  0.90311304798E+02  0.47000000000E+01 0.  1.
         13    1    6    6    0    0  0.55927733453E+02  0.10172461870E+01 -0.85393039369E+01  0.56585032214E+02  0.00000000000E+00 0. -1.
        -14    1    6    6    0    0 -0.12447643860E+02 -0.80306349692E+01 -0.48738731867E+02  0.50940150370E+02  0.00000000000E+00 0.  1.
</event>
<event>
12    1  0.8684423E-002  0.1776426E+03  0.7818608E-02  0.1171873E+00
         21   -1    0    0  501  502  0.00000000000E+00  0.00000000000E+00  0.54203913300E+02  0.54203913300E+02  0.00000000000E+00 0. -1.
         21   -1    0    0  502  503 -0.00000000000E+00 -0.00000000000E+00 -0.56141275278E+03  0.56141275278E+03  0.00000000000E+00 0.  1.
         -6    2    1    2    0  503 -0.39004093378E+02 -0.23262747515E+02 -0.22991867225E+03  0.28630418056E+03  0.16445368113E+03 0.  0.
        -24    2    3    3    0    0 -0.20487102726E+02  0.24443110340E+02 -0.21759618869E+03  0.23345854293E+03  0.78342854882E+02 0.  0.
          6    2    1    2  501    0  0.39004093378E+02  0.23262747515E+02 -0.27729016723E+03  0.32931248552E+03  0.17173934188E+03 0.  0.
         24    2    5    5    0    0 -0.32314514750E+02  0.47574543121E+02 -0.11498234035E+03  0.15030598301E+03  0.77867739919E+02 0.  0.
          5    1    5    5  501    0  0.71318608129E+02 -0.24311795607E+02 -0.16230782689E+03  0.17900650251E+03  0.47000000000E+01 0. -1.
        -11    1    6    6    0    0  0.23142341534E+02  0.73713397112E+01 -0.51391427349E+02  0.56841740172E+02  0.00000000000E+00 0.  1.
         12    1    6    6    0    0 -0.55456856284E+02  0.40203203410E+02 -0.63590912997E+02  0.93464242837E+02  0.00000000000E+00 0. -1.
         -5    1    3    3    0  503 -0.18516990652E+02 -0.47705857855E+02 -0.12322483556E+02  0.52845637639E+02  0.47000000000E+01 0.  1.
         13    1    4    4    0    0 -0.15781786360E+02  0.42637097807E+02 -0.62820397271E+02  0.77546045699E+02  0.00000000000E+00 0. -1.
        -14    1    4    4    0    0 -0.47053163661E+01 -0.18193987468E+02 -0.15477579142E+03  0.15591249723E+03  0.00000000000E+00 0.  1.
</event>
<event>
12    1  0.8684423E-002  0.1819494E+03  0.7818608E-02  0.1166217E+00
         21   -1    0    0  503  502  0.00000000000E+00  0.00000000000E+00  0.11990190478E+03  0.11990190478E+03  0.00000000000E+00 0.  1.
         21   -1    0    0  501  503 -0.00000000000E+00 -0.00000000000E+00 -0.27530696976E+03  0.27530696976E+03  0.00000000000E+00 0.  1.
          6    2    1    2  501    0 -0.59436833011E+02 -0.92095555155E+01 -0.65403168496E+02  0.19221648531E+03  0.17044661846E+03 0.  0.
         24    2    3    3    0    0 -0.62802029847E+02  0.39507222166E+02  0.18940937595E+01  0.10893587241E+03  0.79740335786E+02 0.  0.
         -6    2    1    2    0  502  0.59436833011E+02  0.92095555155E+01 -0.90001896486E+02  0.20299238923E+03  0.17172074914E+03 0.  0.
        -24    2    5    5    0    0  0.22835798666E+02 -0.56882856349E+02 -0.30278067575E+02  0.10657211978E+03  0.81754035324E+02 0.  0.
          5    1    3    3  501    0  0.33651968358E+01 -0.48716777682E+02 -0.67297262256E+02  0.83280612897E+02  0.47000000000E+01 0. -1.
        -11    1    4    4    0    0 -0.62220297689E+02  0.30804794495E+02  0.32826282429E+02  0.76797562633E+02  0.00000000000E+00 0.  1.
         12    1    4    4    0    0 -0.58173215797E+00  0.87024276714E+01 -0.30932188669E+02  0.32138309780E+02  0.00000000000E+00 0. -1.
         -5    1    5    5    0  502  0.36601034345E+02  0.66092411865E+02 -0.59723828911E+02  0.96420269451E+02  0.47000000000E+01 0.  1.
         11    1    6    6    0    0 -0.77191074129E+01  0.80442642396E+01 -0.32929593825E+02  0.34765686472E+02  0.00000000000E+00 0. -1.
        -12    1    6    6    0    0  0.30554906079E+02 -0.64927120589E+02  0.26515262494E+01  0.71806433311E+02  0.00000000000E+00 0.  1.
</event>
<event>
12    1  0.8684423E-002  0.2421583E+03  0.7818608E-02  0.1119049E+00
         21   -1    0    0  501  502  0.00000000000E+00  0.00000000000E+00  0.33160937708E+02  0.33160937708E+02  0.00000000000E+00 0. -1.
         21   -1    0    0  502  503 -0.00000000000E+00 -0.00000000000E+00 -0.18124421106E+04  0.18124421106E+04  0.00000000000E+00 0.  1.
         -6    2    1    2    0  503  0.16546159697E+02 -0.16891670654E+03 -0.71042898455E+03  0.75056644584E+03  0.17272526851E+03 0.  0.
        -24    2    3    3    0    0  0.63042328189E+02 -0.16743981288E+03 -0.50336897959E+03  0.53829301237E+03  0.66095472476E+02 0.  0.
          6    2    1    2  501    0 -0.16546159697E+02  0.16891670654E+03 -0.10688521884E+04  0.10950366025E+04  0.16689377182E+03 0.  0.
         24    2    5    5    0    0 -0.38089456628E+02  0.15114981626E+03 -0.10398537338E+04  0.10545054244E+04  0.79930148455E+02 0.  0.
          5    1    5    5  501    0  0.21543296931E+02  0.17766890282E+02 -0.28998454517E+02  0.40531178090E+02  0.47000000000E+01 0. -1.
        -11    1    6    6    0    0  0.74352951909E+00 -0.94277804392E+01 -0.40591595942E+02  0.41678694092E+02  0.00000000000E+00 0.  1.
         12    1    6    6    0    0 -0.38832986147E+02  0.16057759670E+03 -0.99926213790E+03  0.10128267303E+04  0.00000000000E+00 0. -1.
         -5    1    3    3    0  503 -0.46496168492E+02 -0.14768936652E+01 -0.20706000497E+03  0.21227343347E+03  0.47000000000E+01 0.  1.
         11    1    4    4    0    0 -0.13338327060E+02 -0.26512896065E+02 -0.97496148598E+02  0.10191341236E+03  0.00000000000E+00 0. -1.
        -12    1    4    4    0    0  0.76380655249E+02 -0.14092691681E+03 -0.40587283099E+03  0.43637960002E+03  0.00000000000E+00 0.  1.
</event>
<event>
12    1  0.8684423E-002  0.1774667E+03  0.7818608E-02  0.1170690E+00
         21   -1    0    0  503  502  0.00000000000E+00  0.00000000000E+00  0.16068320091E+03  0.16068320091E+03  0.00000000000E+00 0. -1.
         21   -1    0    0  501  503 -0.00000000000E+00 -0.00000000000E+00 -0.23118900429E+03  0.23118900429E+03  0.00000000000E+00 0. -1.
          6    2    1    2  501    0  0.37649787033E+02  0.58758692316E+01 -0.11351944722E+03  0.20926713075E+03  0.17162177837E+03 0.  0.
         24    2    3    3    0    0  0.16451545479E+02 -0.28451780387E+02  0.21065620400E+01  0.86714215683E+02  0.80216958569E+02 0.  0.
         -6    2    1    2    0  502 -0.37649787033E+02 -0.58758692316E+01  0.43013643837E+02  0.18260507445E+03  0.17332745702E+03 0.  0.
        -24    2    5    5    0    0 -0.90897506780E+02 -0.71696805526E+01  0.44192122894E+02  0.12912168994E+03  0.80035654732E+02 0.  0.
          5    1    3    3  501    0  0.21198241554E+02  0.34327649618E+02 -0.11562600926E+03  0.12255291506E+03  0.47000000000E+01 0. -1.
        -11    1    4    4    0    0 -0.29008651990E+02 -0.25619463044E+02 -0.92061181820E+01  0.39782048576E+02  0.00000000000E+00 0.  1.
         12    1    4    4    0    0  0.45460197469E+02 -0.28323173430E+01  0.11312680222E+02  0.46932167106E+02  0.00000000000E+00 0. -1.
         -5    1    5    5    0  502  0.53247719747E+02  0.12938113211E+01 -0.11784790565E+01  0.53483384512E+02  0.47000000000E+01 0.  1.
         13    1    6    6    0    0 -0.20904327249E+01  0.22371553636E+02  0.24943306588E+02  0.33571190992E+02  0.00000000000E+00 0. -1.
        -14    1    6    6    0    0 -0.88807074055E+02 -0.29541234188E+02  0.19248816306E+02  0.95550498946E+02  0.00000000000E+00 0.  1.
</event>
<event>
12    1  0.8684423E-002  0.2119327E+03  0.7818608E-02  0.1140071E+00
         21   -1    0    0  501  502  0.00000000000E+00  0.00000000000E+00  0.16312869471E+03  0.16312869471E+03  0.00000000000E+00 0. -1.
         21   -1    0    0  502  503 -0.00000000000E+00 -0.00000000000E+00 -0.31770380580E+03  0.31770380580E+03  0.00000000000E+00 0. -1.
         -6    2    1    2    0  503  0.91590009661E+02  0.82350552223E+02 -0.16524052779E+03  0.26863162259E+03  0.17230256327E+03 0.  0.
        -24    2    3    3    0    0  0.10060669222E+03  0.27618722473E+02 -0.50136492331E+02  0.14077270530E+03  0.80117328603E+02 0.  0.
          6    2    1    2  501    0 -0.91590009661E+02 -0.82350552223E+02  0.10665416706E+02  0.21220087792E+03  0.17246773076E+03 0.  0.
         24    2    5    5    0    0 -0.10245391058E+03 -0.18131388959E+02  0.40530848310E+02  0.14039447654E+03  0.85101752738E+02 0.  0.
          5    1    5    5  501    0  0.10863900921E+02 -0.64219163264E+02 -0.29865431604E+02  0.71806401375E+02  0.47000000000E+01 0. -1.
        -13    1    6    6    0    0 -0.62614709359E+02  0.29757859467E+02  0.35528435668E+02  0.77899947171E+02  0.00000000000E+00 0.  1.
         14    1    6    6    0    0 -0.39839201223E+02 -0.47889248426E+02  0.50024126421E+01  0.62494529370E+02  0.00000000000E+00 0. -1.
         -5    1    3    3    0  503 -0.90166825609E+01  0.54731829750E+02 -0.11510403546E+03  0.12785891730E+03  0.47000000000E+01 0.  1.
         13    1    4    4    0    0  0.53134473812E+02  0.51009979523E+02 -0.99579434926E+01  0.74326650381E+02  0.00000000000E+00 0. -1.
        -14    1    4    4    0    0  0.47472218410E+02 -0.23391257050E+02 -0.40178548838E+02  0.66446054916E+02  0.00000000000E+00 0.  1.
</event>
<event>
12    1  0.8684423E-002  0.1732484E+03  0.7818608E-02  0.1174815E+00
         21   -1    0    0  501  502  0.00000000000E+00  0.00000000000E+00  0.43843108871E+03  0.43843108871E+03  0.00000000000E+00 0. -1.
         21   -1    0    0  502  503 -0.00000000000E+00 -0.00000000000E+00 -0.68576852320E+02  0.68576852320E+02  0.00000000000E+00 0. -1.
         -6    2    1    2    0  503  0.95770443244E+01  0.69366432854E+01  0.20798872125E+03  0.26990999316E+03  0.17161660597E+03 0.  0.
        -24    2    3    3    0    0 -0.19391969895E+02 -0.33698413728E+02  0.44849277471E+02  0.99243711314E+02  0.79537569497E+02 0.  0.
          6    2    1    2  501    0 -0.95770443244E+01 -0.69366432854E+01  0.16186551514E+03  0.23709794787E+03  0.17284430883E+03 0.  0.
         24    2    5    5    0    0 -0.14958992554E+02 -0.53341919181E+02  0.16334847869E+03  0.19012237785E+03  0.79966625954E+02 0.  0.
          5    1    5    5  501    0  0.53819482297E+01  0.46405275896E+02 -0.14829635561E+01  0.46975570019E+02  0.47000000000E+01 0. -1.
        -13    1    6    6    0    0 -0.12876300504E+02 -0.31683199058E+02  0.10560912175E+02  0.35793254716E+02  0.00000000000E+00 0.  1.
         14    1    6    6    0    0 -0.20826920499E+01 -0.21658720123E+02  0.15278756652E+03  0.15432912313E+03  0.00000000000E+00 0. -1.
         -5    1    3    3    0  503  0.28969014219E+02  0.40635057013E+02  0.16313944378E+03  0.17066628185E+03  0.47000000000E+01 0.  1.
         11    1    4    4    0    0  0.14438913509E+02 -0.41548072701E+02  0.19227939925E+01  0.44027510777E+02  0.00000000000E+00 0. -1.
        -12    1    4    4    0    0 -0.33830883404E+02  0.78496589732E+01  0.42926483478E+02  0.55216200537E+02  0.00000000000E+00 0.  1.
</event>
<event>
12    1  0.8684423E-002  0.1925992E+03  0.7818608E-02  0.1156468E+00
         21   -1    0    0  503  502  0.00000000000E+00  0.00000000000E+00  0.35335353369E+02  0.35335353369E+02  0.00000000000E+00 0.  1.
         21   -1    0    0  501  503 -0.00000000000E+00 -0.00000000000E+00 -0.10543804796E+04  0.10543804796E+04  0.00000000000E+00 0.  1.
          6    2    1    2  501    0  0.52799189733E+02  0.66885493654E+02 -0.57121540043E+03  0.60281130402E+03  0.17272235196E+03 0.  0.
         24    2    3    3    0    0  0.10184972447E+03  0.39334844085E+02 -0.37171113714E+03  0.39547333277E+03  0.79431675829E+02 0.  0.
         -6    2    1    2    0  502 -0.52799189733E+02 -0.66885493654E+02 -0.44782972578E+03  0.48690452893E+03  0.17106470502E+03 0.  0.
        -24    2    5    5    0    0  0.10548989038E+02 -0.16099304445E+02 -0.10052155535E+03  0.13020117316E+03  0.80481635357E+02 0.  0.
          5    1    3    3  501    0 -0.49050534740E+02  0.27550649569E+02 -0.19950426329E+03  0.20733797125E+03  0.47000000000E+01 0. -1.
        -13    1    4    4    0    0  0.76244244267E+02  0.32664486063E+02 -0.14361497128E+03  0.16584756076E+03  0.00000000000E+00 0.  1.
         14    1    4    4    0    0  0.25605480206E+02  0.66703580222E+01 -0.22809616586E+03  0.22962577201E+03  0.00000000000E+00 0. -1.
         -5    1    5    5    0  502 -0.63348178771E+02 -0.50786189209E+02 -0.34730817043E+03  0.35670335576E+03  0.47000000000E+01 0.  1.
         13    1    6    6    0    0  0.10334850317E+02 -0.24246229464E+02 -0.11259266823E+03  0.11563648955E+03  0.00000000000E+00 0. -1.
        -14    1    6    6    0    0  0.21413872154E+00  0.81469250188E+01  0.12071112884E+02  0.14564683618E+02  0.00000000000E+00 0.  1.
</event>
<event>
12    1  0.8684423E-002  0.2269030E+03  0.7818608E-02  0.1128854E+00
         21   -1    0    0  503  502  0.00000000000E+00  0.00000000000E+00  0.18007978961E+03  0.18007978961E+03  0.00000000000E+00 0.  1.
         21   -1    0    0  501  503 -0.00000000000E+00 -0.00000000000E+00 -0.40846957131E+03  0.40846957131E+03  0.00000000000E+00 0. -1.
          6    2    1    2  501    0  0.70057214280E+01 -0.14788971455E+03 -0.27547832513E+03  0.35689393628E+03  0.17194338119E+03 0.  0.
         24    2    3    3    0    0 -0.37868330021E+02 -0.43993934355E+02 -0.67301907153E+02  0.11989704888E+03  0.80475331283E+02 0.  0.
         -6    2    1    2    0  502 -0.70057214280E+01  0.14788971455E+03  0.47088543430E+02  0.23165542464E+03  0.17183264253E+03 0.  0.
        -24    2    5    5    0    0  0.21326332792E+02  0.14521577838E+03  0.76449281281E+02  0.19049721576E+03  0.94351798300E+02 0.  0.
          5    1    3    3  501    0  0.44874051449E+02 -0.10389578020E+03 -0.20817641798E+03  0.23699688740E+03  0.47000000000E+01 0. -1.
        -13    1    4    4    0    0 -0.15003029171E+02 -0.53188358822E+02 -0.82079401092E+01  0.55870051721E+02  0.00000000000E+00 0.  1.
         14    1    4    4    0    0 -0.22865300850E+02  0.91944244669E+01 -0.59093967044E+02  0.64026997159E+02  0.00000000000E+00 0. -1.
         -5    1    5    5    0  502 -0.28332054220E+02  0.26739361669E+01 -0.29360737851E+02  0.41158208879E+02  0.47000000000E+01 0.  1.
         11    1    6    6    0    0  0.36523659642E+01  0.51997032211E+02 -0.19410998130E+02  0.55622099783E+02  0.00000000000E+00 0. -1.
        -12    1    6    6    0    0  0.17673966828E+02  0.93218746172E+02  0.95860279411E+02  0.13487511598E+03  0.00000000000E+00 0.  1.
</event>
<event>
12    1  0.8684423E-002  0.2586328E+03  0.7818608E-02  0.1108015E+00
         21   -1    0    0  503  502  0.00000000000E+00  0.00000000000E+00  0.86792937078E+02  0.86792937078E+02  0.00000000000E+00 0. -1.
         21   -1    0    0  501  503 -0.00000000000E+00 -0.00000000000E+00 -0.77444316323E+03  0.77444316323E+03  0.00000000000E+00 0.  1.
          6    2    1    2  501    0  0.15946415051E+03  0.10895378198E+03 -0.31052396252E+03  0.40412383202E+03  0.17202092430E+03 0.  0.
         24    2    3    3    0    0  0.10404930453E+03  0.57239674829E+02 -0.29249565175E+03  0.32607087549E+03  0.81644787942E+02 0.  0.
         -6    2    1    2    0  502 -0.15946415051E+03 -0.10895378198E+03 -0.37712626363E+03  0.45711226829E+03  0.17154493637E+03 0.  0.
        -24    2    5    5    0    0 -0.52969208771E+02 -0.11497221421E+03 -0.24274785260E+03  0.28548173052E+03  0.80925591762E+02 0.  0.
          5    1    3    3  501    0  0.55414845986E+02  0.51714107155E+02 -0.18028310770E+02  0.78052956534E+02  0.47000000000E+01 0. -1.
        -11    1    4    4    0    0 -0.99351725936E+01 -0.54375087896E+01 -0.45814796810E+02  0.47193958967E+02  0.00000000000E+00 0.  1.
         12    1    4    4    0    0  0.11398447712E+03  0.62677183619E+02 -0.24668085494E+03  0.27887691652E+03  0.00000000000E+00 0. -1.
         -5    1    5    5    0  502 -0.10649494174E+03  0.60184322255E+01 -0.13437841103E+03  0.17163053776E+03  0.47000000000E+01 0.  1.
         13    1    6    6    0    0 -0.43885525874E+01  0.11339806981E+02 -0.81182869015E+01  0.14620437695E+02  0.00000000000E+00 0. -1.
        -14    1    6    6    0    0 -0.48580656184E+02 -0.12631202119E+03 -0.23462956570E+03  0.27086129283E+03  0.00000000000E+00 0.  1.
</event>
<event>
12    1  0.8684423E-002  0.2379305E+03  0.7818608E-02  0.1121866E+00
         21   -1    0    0  503  502  0.00000000000E+00  0.00000000000E+00  0.99278667114E+02  0.99278667114E+02  0.00000000000E+00 0.  1.
         21   -1    0    0  501  503 -0.00000000000E+00 -0.00000000000E+00 -0.15234632401E+04  0.15234632401E+04  0.00000000000E+00 0. -1.
          6    2    1    2  501    0 -0.14140241794E+03  0.73562316852E+02 -0.13548849503E+04  0.13749247204E+04  0.17116863082E+03 0.  0.
         24    2    3    3    0    0 -0.74194414733E+02 -0.17116412729E+02 -0.46728327093E+03  0.48016308803E+03  0.80032200074E+02 0.  0.
         -6    2    1    2    0  502  0.14140241794E+03 -0.73562316852E+02 -0.69299622686E+02  0.24781718673E+03  0.17664897983E+03 0.  0.
        -24    2    5    5    0    0  0.36405657632E+02 -0.65915489868E+01 -0.84708342734E+02  0.12224281802E+03  0.79993642266E+02 0.  0.
          5    1    3    3  501    0 -0.67208003209E+02  0.90678729580E+02 -0.88760167933E+03  0.89476163241E+03  0.47000000000E+01 0. -1.
        -13    1    4    4    0    0 -0.27320692624E+02 -0.15570259225E+01 -0.32078392876E+02  0.42164770421E+02  0.00000000000E+00 0.  1.
         14    1    4    4    0    0 -0.46873722109E+02 -0.15559386806E+02 -0.43520487806E+03  0.43799831761E+03  0.00000000000E+00 0. -1.
         -5    1    5    5    0  502  0.10499676031E+03 -0.66970767865E+02  0.15408720049E+02  0.12557436871E+03  0.47000000000E+01 0.  1.
         13    1    6    6    0    0 -0.13507633321E+02  0.22091869336E+02 -0.96140293489E+01  0.27621303536E+02  0.00000000000E+00 0. -1.
        -14    1    6    6    0    0  0.49913290953E+02 -0.28683418323E+02 -0.75094313386E+02  0.94621514484E+02  0.00000000000E+00 0.  1.
</event>
<event>
12    1  0.8684423E-002  0.1764764E+03  0.7818608E-02  0.1171516E+00
         21   -1    0    0  503  502  0.00000000000E+00  0.00000000000E+00  0.48302804039E+03  0.48302804039E+03  0.00000000000E+00 0. -1.
         21   -1    0    0  501  503 -0.00000000000E+00 -0.00000000000E+00 -0.75400770968E+02  0.75400770968E+02  0.00000000000E+00 0. -1.
          6    2    1    2  501    0 -0.36804772025E+02  0.68237096816E+01  0.95199088697E+02  0.19960394172E+03  0.17139927889E+03 0.  0.
         24    2    3    3    0    0 -0.68285821537E+02  0.10948530195E+02  0.41857908353E+01  0.10309704554E+03  0.76345636534E+02 0.  0.
         -6    2    1    2    0  502  0.36804772025E+02 -0.68237096816E+01  0.31242818072E+03  0.35882486963E+03  0.17246090775E+03 0.  0.
        -24    2    5    5    0    0 -0.47999342179E+02 -0.58160539887E+01  0.15281168617E+03  0.17801483538E+03  0.77460356633E+02 0.  0.
          5    1    3    3  501    0  0.31481049512E+02 -0.41248205130E+01  0.91013297862E+02  0.96506896180E+02  0.47000000000E+01 0. -1.
        -11    1    4    4    0    0 -0.10126102340E+02  0.34766047766E+02  0.15235681172E+02  0.39285391771E+02  0.00000000000E+00 0.  1.
         12    1    4    4    0    0 -0.58159719197E+02 -0.23817517571E+02 -0.11049890337E+02  0.63811653769E+02  0.00000000000E+00 0. -1.
         -5    1    5    5    0  502  0.84804114203E+02 -0.10076556929E+01  0.15961649455E+03  0.18081003426E+03  0.47000000000E+01 0.  1.
         11    1    6    6    0    0  0.21220547799E+00 -0.14816298878E+02  0.11535527196E+03  0.11630308041E+03  0.00000000000E+00 0. -1.
        -12    1    6    6    0    0 -0.48211547657E+02  0.90002448893E+01  0.37456414212E+02  0.61711754967E+02  0.00000000000E+00 0.  1.
</event>
<event>
12    1  0.8684423E-002  0.2314017E+03  0.7818608E-02  0.1125861E+00
         21   -1    0    0  503  502  0.00000000000E+00  0.00000000000E+00  0.66593481390E+03  0.66593481390E+03  0.00000000000E+00 0.  1.
         21   -1    0    0  501  503 -0.00000000000E+00 -0.00000000000E+00 -0.85424271107E+02  0.85424271107E+02  0.00000000000E+00 0. -1.
          6    2    1    2  501    0  0.35320993298E+02 -0.14988680430E+03  0.38556785185E+03  0.44967692458E+03  0.17272272997E+03 0.  0.
         24    2    3    3    0    0 -0.32181472269E+02 -0.27245232635E+02  0.17226365051E+03  0.19449402886E+03  0.79844925433E+02 0.  0.
         -6    2    1    2    0  502 -0.35320993298E+02  0.14988680430E+03  0.19494269094E+03  0.30168216043E+03  0.17116029474E+03 0.  0.
        -24    2    5    5    0    0 -0.20788622751E+01  0.11851874793E+03  0.50048171236E+02  0.14967720631E+03  0.76468499160E+02 0.  0.
          5    1    3    3  501    0  0.67502465567E+02 -0.12264157166E+03  0.21330420134E+03  0.25518289572E+03  0.47000000000E+01 0. -1.
        -13    1    4    4    0    0  0.15325575365E+01  0.21734658426E+02  0.15241339152E+02  0.26590271316E+02  0.00000000000E+00 0.  1.
         14    1    4    4    0    0 -0.33714029806E+02 -0.48979891061E+02  0.15702231136E+03  0.16790375755E+03  0.00000000000E+00 0. -1.
         -5    1    5    5    0  502 -0.33242131022E+02  0.31368056364E+02  0.14489451971E+03  0.15200495412E+03  0.47000000000E+01 0.  1.
         11    1    6    6    0    0 -0.29411862604E+01 -0.55246547909E+01  0.21494119838E+02  0.22386816986E+02  0.00000000000E+00 0. -1.
        -12    1    6    6    0    0  0.86232398535E+00  0.12404340273E+03  0.28554051398E+02  0.12729038932E+03  0.00000000000E+00 0.  1.
</event>
<event>
12    1  0.8684423E-002  0.2018028E+03  0.7818608E-02  0.1148741E+00
         21   -1    0    0  503  502  0.00000000000E+00  0.00000000000E+00  0.89635155803E+02  0.89635155803E+02  0.00000000000E+00 0. -1.
         21   -1    0    0  501  503 -0.00000000000E+00 -0.00000000000E+00 -0.51911027109E+03  0.51911027109E+03  0.00000000000E+00 0. -1.
          6    2    1    2  501    0  0.79103213400E+01  0.10542939628E+03 -0.32785501360E+03  0.38498478410E+03  0.17189078877E+03 0.  0.
         24    2    3    3    0    0 -0.54578929110E+02  0.41755459150E+02 -0.12600470187E+03  0.16424757601E+03  0.79860525040E+02 0.  0.
         -6    2    1    2    0  502 -0.79103213400E+01 -0.10542939628E+03 -0.10162010169E+03  0.22376064280E+03  0.16900961337E+03 0.  0.
        -24    2    5    5    0    0 -0.38688741277E+02 -0.37771680549E+02  0.11579353600E+01  0.96834315614E+02  0.80324500079E+02 0.  0.
          5    1    3    3  501    0  0.62489250450E+02  0.63673937129E+02 -0.20185031172E+03  0.22073720809E+03  0.47000000000E+01 0. -1.
        -13    1    4    4    0    0 -0.33426575833E+02 -0.16360402209E+02 -0.76342540246E+02  0.84930454983E+02  0.00000000000E+00 0.  1.
         14    1    4    4    0    0 -0.21152353277E+02  0.58115861360E+02 -0.49662161628E+02  0.79317121029E+02  0.00000000000E+00 0. -1.
         -5    1    5    5    0  502  0.30778419937E+02 -0.67657715731E+02 -0.10277803705E+03  0.12692632718E+03  0.47000000000E+01 0.  1.
         11    1    6    6    0    0 -0.29898425201E+02 -0.62015939402E+02 -0.83444084751E+01  0.69350715369E+02  0.00000000000E+00 0. -1.
        -12    1    6    6    0    0 -0.87903160754E+01  0.24244258853E+02  0.95023438351E+01  0.27483600245E+02  0.00000000000E+00 0.  1.
</event>
<event>
12    1  0.8684423E-002  0.1711248E+03  0.7818608E-02  0.1179035E+00
         21   -1    0    0  501  502  0.00000000000E+00  0.00000000000E+00  0.44703111534E+02  0.44703111534E+02  0.00000000000E+00 0. -1.
         21   -1    0    0  502  503 -0.00000000000E+00 -0.00000000000E+00 -0.68896156645E+03  0.68896156645E+03  0.00000000000E+00 0. -1.
         -6    2    1    2    0  503  0.17346596881E+02 -0.26384215288E+01 -0.42906526982E+03  0.45872504952E+03  0.16131893750E+03 0.  0.
        -24    2    3    3    0    0 -0.87376048891E+01  0.42440195446E+02 -0.36048446814E+03  0.37248188371E+03  0.83163609759E+02 0.  0.
          6    2    1    2  501    0 -0.17346596881E+02  0.26384215288E+01 -0.21519318509E+03  0.27493962846E+03  0.17022287360E+03 0.  0.
         24    2    5    5    0    0 -0.14214256041E+02 -0.30095994211E+02 -0.22436086261E+03  0.24047965394E+03  0.79905277345E+02 0.  0.
          5    1    5    5  501    0 -0.31323408399E+01  0.32734415739E+02  0.91676775167E+01  0.34459974521E+02  0.47000000000E+01 0. -1.
        -11    1    6    6    0    0 -0.23751568577E+02  0.21242361534E+02 -0.11432655168E+03  0.11868418325E+03  0.00000000000E+00 0.  1.
         12    1    6    6    0    0  0.95373125355E+01 -0.51338355745E+02 -0.11003431092E+03  0.12179547069E+03  0.00000000000E+00 0. -1.
         -5    1    3    3    0  503  0.26084201770E+02 -0.45078616975E+02 -0.68580801681E+02  0.86243165813E+02  0.47000000000E+01 0.  1.
         11    1    4    4    0    0 -0.12047784320E+02  0.56367674283E+02 -0.13822481331E+03  0.14976168678E+03  0.00000000000E+00 0. -1.
        -12    1    4    4    0    0  0.33101794309E+01 -0.13927478838E+02 -0.22225965483E+03  0.22272019693E+03  0.00000000000E+00 0.  1.
</event>
<event>
12    1  0.8684423E-002  0.2865469E+03  0.7818608E-02  0.1092189E+00
         21   -1    0    0  501  502  0.00000000000E+00  0.00000000000E+00  0.42823442471E+03  0.42823442471E+03  0.00000000000E+00 0. -1.
         21   -1    0    0  502  503 -0.00000000000E+00 -0.00000000000E+00 -0.20450240535E+03  0.20450240535E+03  0.00000000000E+00 0.  1.
         -6    2    1    2    0  503  0.20322272976E+03  0.10495900021E+03  0.32442772030E+02  0.28820716567E+03  0.17232227734E+03 0.  0.
        -24    2    3    3    0    0  0.14395044989E+03  0.65595178047E+02  0.88240804676E+02  0.19766312057E+03  0.79118962426E+02 0.  0.
          6    2    1    2  501    0 -0.20322272976E+03 -0.10495900021E+03  0.19128924733E+03  0.34452966439E+03  0.17260719534E+03 0.  0.
         24    2    5    5    0    0 -0.11666583177E+03 -0.11161239189E+03  0.18365792194E+03  0.25725600663E+03  0.79888536914E+02 0.  0.
          5    1    5    5  501    0 -0.86556897991E+02  0.66533916828E+01  0.76313253852E+01  0.87273657755E+02  0.47000000000E+01 0. -1.
        -11    1    6    6    0    0  0.11969427950E+02 -0.11266779941E+02  0.11408619227E+02  0.20009101138E+02  0.00000000000E+00 0.  1.
         12    1    6    6    0    0 -0.12863525972E+03 -0.10034561195E+03  0.17224930272E+03  0.23724690550E+03  0.00000000000E+00 0. -1.
         -5    1    3    3    0  503  0.59272279872E+02  0.39363822164E+02 -0.55798032646E+02  0.90544045104E+02  0.47000000000E+01 0.  1.
         11    1    4    4    0    0  0.26277125637E+02  0.23854691743E+02  0.59908910020E+02  0.69631969308E+02  0.00000000000E+00 0. -1.
        -12    1    4    4    0    0  0.11767332425E+03  0.41740486303E+02  0.28331894656E+02  0.12803115126E+03  0.00000000000E+00 0.  1.
</event>
<event>
12    1  0.8684423E-002  0.1922263E+03  0.7818608E-02  0.1157164E+00
         21   -1    0    0  501  502  0.00000000000E+00  0.00000000000E+00  0.70589507672E+02  0.70589507672E+02  0.00000000000E+00 0.  1.
         21   -1    0    0  502  503 -0.00000000000E+00 -0.00000000000E+00 -0.59256361059E+03  0.59256361059E+03  0.00000000000E+00 0. -1.
         -6    2    1    2    0  503 -0.38851114591E+02  0.72671141095E+02 -0.38275759465E+03  0.42831570356E+03  0.17366767633E+03 0.  0.
        -24    2    3    3    0    0  0.87948714440E+01 -0.23789583329E+02 -0.14040266923E+03  0.16311236418E+03  0.79053398310E+02 0.  0.
          6    2    1    2  501    0  0.38851114591E+02 -0.72671141095E+02 -0.13921650828E+03  0.23483741471E+03  0.17022594196E+03 0.  0.
         24    2    5    5    0    0  0.50748911797E+02 -0.53917570173E+02 -0.15898412892E+02  0.10944723706E+03  0.79015072904E+02 0.  0.
          5    1    5    5  501    0 -0.11897797206E+02 -0.18753570923E+02 -0.12331809538E+03  0.12539017765E+03  0.47000000000E+01 0. -1.
        -13    1    6    6    0    0  0.54223738632E+01 -0.20692505093E+01  0.27460441033E+02  0.28067058230E+02  0.00000000000E+00 0.  1.
         14    1    6    6    0    0  0.45326537934E+02 -0.51848319663E+02 -0.43358853924E+02  0.81380178831E+02  0.00000000000E+00 0. -1.
         -5    1    3    3    0  503 -0.47645986034E+02  0.96460724424E+02 -0.24235492542E+03  0.26520333938E+03  0.47000000000E+01 0.  1.
         13    1    4    4    0    0 -0.17389148818E+02  0.22573877939E+02 -0.35971853847E+02  0.45890486280E+02  0.00000000000E+00 0. -1.
        -14    1    4    4    0    0  0.26184020262E+02 -0.46363461268E+02 -0.10443081538E+03  0.11722187790E+03  0.00000000000E+00 0.  1.
</event>
<event>
12    1  0.8684423E-002  0.1733184E+03  0.7818608E-02  0.1174636E+00
         21   -1    0    0  501  502  0.00000000000E+00  0.00000000000E+00  0.32023316216E+03  0.32023316216E+03  0.00000000000E+00 0.  1.
         21   -1    0    0  502  503 -0.00000000000E+00 -0.00000000000E+00 -0.10504822075E+03  0.10504822075E+03  0.00000000000E+00 0.  1.
         -6    2    1    2    0  503 -0.26800334004E+02 -0.11825825602E+02  0.36469234013E+02  0.17632644320E+03  0.17000853357E+03 0.  0.
        -24    2    3    3    0    0  0.38929509476E+02 -0.44226487037E+02  0.17238751686E+02  0.10041783607E+03  0.79467467421E+02 0.  0.
          6    2    1    2  501    0  0.26800334004E+02  0.11825825602E+02  0.17871570739E+03  0.24895493971E+03  0.17082491002E+03 0.  0.
         24    2    5    5    0    0 -0.32599045869E+02  0.42754493472E+02  0.63304618859E+02  0.11543835579E+03  0.80174152406E+02 0.  0.
          5    1    5    5  501    0  0.59399379874E+02 -0.30928667870E+02  0.11541108853E+03  0.13351658392E+03  0.47000000000E+01 0. -1.
        -13    1    6    6    0    0  0.79321659010E+01  0.50999816921E+02  0.19451109724E+02  0.55156561272E+02  0.00000000000E+00 0.  1.
         14    1    6    6    0    0 -0.40531211770E+02 -0.82453234487E+01  0.43853509135E+02  0.60281794514E+02  0.00000000000E+00 0. -1.
         -5    1    3    3    0  503 -0.65729843480E+02  0.32400661435E+02  0.19230482328E+02  0.75908607127E+02  0.47000000000E+01 0.  1.
         13    1    4    4    0    0  0.57627008178E+02 -0.81511697892E+01  0.12297954108E+02  0.59485740440E+02  0.00000000000E+00 0. -1.
        -14    1    4    4    0    0 -0.18697498702E+02 -0.36075317248E+02  0.49407975777E+01  0.40932095634E+02  0.00000000000E+00 0.  1.
</event>
<event>
12    1  0.8684423E-002  0.2088430E+03  0.7818608E-02  0.1142554E+00
         21   -1    0    0  503  502  0.00000000000E+00  0.00000000000E+00  0.13393030440E+02  0.13393030440E+02  0.00000000000E+00 0. -1.
         21   -1    0    0  501  503 -0.00000000000E+00 -0.00000000000E+00 -0.33010711217E+04  0.33010711217E+04  0.00000000000E+00 0. -1.
          6    2    1    2  501    0  0.11498827958E+03  0.12963973199E+02 -0.18461657387E+04  0.18579020189E+04  0.17344050274E+03 0.  0.
         24    2    3    3    0    0  0.35686748383E+02  0.23999430390E+02 -0.44041704239E+03  0.44986721770E+03  0.81017440515E+02 0.  0.
         -6    2    1    2    0  502 -0.11498827958E+03 -0.12963973199E+02 -0.14415123526E+04  0.14565621333E+04  0.17385343368E+03 0.  0.
        -24    2    5    5    0    0  0.96184922248E+01  0.82169688423E+01 -0.57503686614E+03  0.58090390172E+03  0.81375129148E+02 0.  0.
          5    1    3    3  501    0  0.79301531197E+02 -0.11035457191E+02 -0.14057486963E+04  0.14080348012E+04  0.47000000000E+01 0. -1.
        -11    1    4    4    0    0  0.27887864311E+02  0.51854700019E+01 -0.40576538693E+02  0.49508358560E+02  0.00000000000E+00 0.  1.
         12    1    4    4    0    0  0.77988840720E+01  0.18813960388E+02 -0.39984050370E+03  0.40035885914E+03  0.00000000000E+00 0. -1.
         -5    1    5    5    0  502 -0.12460677181E+03 -0.21180942041E+02 -0.86647548642E+03  0.87565823153E+03  0.47000000000E+01 0.  1.
         13    1    6    6    0    0 -0.12084381272E+02 -0.32367198597E+02 -0.30781037105E+03  0.30974326844E+03  0.00000000000E+00 0. -1.
        -14    1    6    6    0    0  0.21702873497E+02  0.40584167439E+02 -0.26722649509E+03  0.27116063329E+03  0.00000000000E+00 0.  1.
</event>
<event>
12    1  0.8684423E-002  0.1971478E+03  0.7818608E-02  0.1152695E+00
         21   -1    0    0  501  502  0.00000000000E+00  0.00000000000E+00  0.33038937595E+02  0.33038937595E+02  0.00000000000E+00 0. -1.
         21   -1    0    0  502  503 -0.00000000000E+00 -0.00000000000E+00 -0.14949513157E+04  0.14949513157E+04  0.00000000000E+00 0. -1.
         -6    2    1    2    0  503  0.83723133940E+02  0.44593305394E+02 -0.10880147673E+04  0.11053004596E+04  0.17004365979E+03 0.  0.
        -24    2    3    3    0    0 -0.45518784548E+01  0.23433296908E+02 -0.27047646867E+03  0.28272451576E+03  0.78776853863E+02 0.  0.
          6    2    1    2  501    0 -0.83723133940E+02 -0.44593305394E+02 -0.37389761080E+03  0.42268979362E+03  0.17282682728E+03 0.  0.
         24    2    5    5    0    0 -0.92833437414E+02 -0.87091433768E+02 -0.31713372233E+03  0.35104261936E+03  0.80337773393E+02 0.  0.
          5    1    5    5  501    0  0.91103034745E+01  0.42498128374E+02 -0.56763888469E+02  0.71647174256E+02  0.47000000000E+01 0. -1.
        -11    1    6    6    0    0 -0.87620872630E+02 -0.31800013326E+02 -0.22379667643E+03  0.24243269282E+03  0.00000000000E+00 0.  1.
         12    1    6    6    0    0 -0.52125647840E+01 -0.55291420443E+02 -0.93337045895E+02  0.10860992654E+03  0.00000000000E+00 0. -1.
         -5    1    3    3    0  503  0.88275012394E+02  0.21160008486E+02 -0.81753829861E+03  0.82257594389E+03  0.47000000000E+01 0.  1.
         11    1    4    4    0    0 -0.17598451621E+02  0.39679569725E+02 -0.24917196455E+03  0.25292457704E+03  0.00000000000E+00 0. -1.
        -12    1    4    4    0    0  0.13046573167E+02 -0.16246272816E+02 -0.21304504123E+02  0.29799938720E+02  0.00000000000E+00 0.  1.
</event>
<event>
12    1  0.8684423E-002  0.1811536E+03  0.7818608E-02  0.1166831E+00
         21   -1    0    0  501  502  0.00000000000E+00  0.00000000000E+00  0.73445348970E+02  0.73445348970E+02  0.00000000000E+00 0. -1.
         21   -1    0    0  502  503 -0.00000000000E+00 -0.00000000000E+00 -0.45893174808E+03  0.45893174808E+03  0.00000000000E+00 0.  1.
         -6    2    1    2    0  503 -0.48177499342E+02 -0.24291471760E+02 -0.14670930941E+03  0.23265869504E+03  0.17232324239E+03 0.  0.
        -24    2    3    3    0    0  0.43621043802E+01 -0.54986984387E+02 -0.10764779581E+03  0.16019824859E+03  0.10503730053E+03 0.  0.
          6    2    1    2  501    0  0.48177499342E+02  0.24291471760E+02 -0.23877708970E+03  0.29971840201E+03  0.17293199501E+03 0.  0.
         24    2    5    5    0    0 -0.41091769158E+02  0.56622776957E+01 -0.12532360350E+03  0.15408244251E+03  0.79465707155E+02 0.  0.
          5    1    5    5  501    0  0.89269268501E+02  0.18629194064E+02 -0.11345348620E+03  0.14563595950E+03  0.47000000000E+01 0. -1.
        -13    1    6    6    0    0  0.70903985026E+01 -0.18591275306E+02 -0.26503877779E+01  0.20073211596E+02  0.00000000000E+00 0.  1.
         14    1    6    6    0    0 -0.48182167661E+02  0.24253553001E+02 -0.12267321573E+03  0.13400923091E+03  0.00000000000E+00 0. -1.
         -5    1    3    3    0  503 -0.52539603722E+02  0.30695512627E+02 -0.39061513600E+02  0.72460446448E+02  0.47000000000E+01 0.  1.
         11    1    4    4    0    0 -0.35569365131E+02 -0.15841009196E+02 -0.50082889966E-01  0.38937383277E+02  0.00000000000E+00 0. -1.
        -12    1    4    4    0    0  0.39931469511E+02 -0.39145975191E+02 -0.10759771292E+03  0.12126086532E+03  0.00000000000E+00 0.  1.
</event>
<event>
12    1  0.8684423E-002  0.1882402E+03  0.7818608E-02  0.1160401E+00
         21   -1    0    0  503  502  0.00000000000E+00  0.00000000000E+00  0.43480182868E+02  0.43480182868E+02  0.00000000000E+00 0. -1.
         21   -1    0    0  501  503 -0.00000000000E+00 -0.00000000000E+00 -0.81183657231E+03  0.81183657231E+03  0.00000000000E+00 0. -1.
          6    2    1    2  501    0 -0.16002548546E+01  0.73719886265E+02 -0.41011436508E+03  0.45062956518E+03  0.17156931578E+03 0.  0.
         24    2    3    3    0    0 -0.55435918759E+02  0.11964370841E+02 -0.27718529708E+03  0.29441096989E+03  0.81423847948E+02 0.  0.
         -6    2    1    2    0  502  0.16002548546E+01 -0.73719886265E+02 -0.35824202436E+03  0.40468719001E+03  0.17319697252E+03 0.  0.
        -24    2    5    5    0    0  0.17510828853E+02 -0.75535204467E+02 -0.36490511465E+03  0.38671697806E+03  0.10189250307E+03 0.  0.
          5    1    3    3  501    0  0.53835663905E+02  0.61755515424E+02 -0.13292906800E+03  0.15621859528E+03  0.47000000000E+01 0. -1.
        -11    1    4    4    0    0 -0.26819299055E+02 -0.34388483154E+02 -0.14573557449E+03  0.15212067659E+03  0.00000000000E+00 0.  1.
         12    1    4    4    0    0 -0.28616619704E+02  0.46352853995E+02 -0.13144972260E+03  0.14229029330E+03  0.00000000000E+00 0. -1.
         -5    1    5    5    0  502 -0.15910573998E+02  0.18153182022E+01  0.66630902887E+01  0.17970211945E+02  0.47000000000E+01 0.  1.
         11    1    6    6    0    0  0.75685024380E+01 -0.80104263667E+02 -0.13945948735E+03  0.16100597473E+03  0.00000000000E+00 0. -1.
        -12    1    6    6    0    0  0.99423264151E+01  0.45690591993E+01 -0.22544562730E+03  0.22571100333E+03  0.00000000000E+00 0.  1.
</event>
<event>
12    1  0.8684423E-002  0.1941507E+03  0.7818608E-02  0.1155313E+00
         21   -1    0    0  503  502  0.00000000000E+00  0.00000000000E+00  0.14706971210E+03  0.14706971210E+03  0.00000000000E+00 0. -1.
         21   -1    0    0  501  503 -0.00000000000E+00 -0.00000000000E+00 -0.36087102159E+03  0.36087102159E+03  0.00000000000E+00 0. -1.
          6    2    1    2  501    0 -0.41938958684E+02  0.79962467745E+02 -0.24618594123E+03  0.31353152128E+03  0.17187677177E+03 0.  0.
         24    2    3    3    0    0 -0.90656297442E+02  0.74493474558E+02 -0.20425557288E+03  0.24885127104E+03  0.80241971719E+02 0.  0.
         -6    2    1    2    0  502  0.41938958684E+02 -0.79962467745E+02  0.32384631741E+02  0.19440921240E+03  0.16909554988E+03 0.  0.
        -24    2    5    5    0    0  0.19472231140E+02 -0.11937621694E+03  0.28672546942E+02  0.14864823508E+03  0.81512783587E+02 0.  0.
          5    1    3    3  501    0  0.48717338758E+02  0.54689931860E+01 -0.41930368348E+02  0.64680250247E+02  0.47000000000E+01 0. -1.
        -11    1    4    4    0    0 -0.39305927187E+02  0.16082450017E+02 -0.16386961747E+02  0.45520694479E+02  0.00000000000E+00 0.  1.
         12    1    4    4    0    0 -0.51350370256E+02  0.58411024542E+02 -0.18786861114E+03  0.20333057656E+03  0.00000000000E+00 0. -1.
         -5    1    5    5    0  502  0.22466727544E+02  0.39413749191E+02  0.37120847991E+01  0.45760977321E+02  0.47000000000E+01 0.  1.
         11    1    6    6    0    0  0.22431761493E+02 -0.19522411571E+02  0.38072094577E+02  0.48309345501E+02  0.00000000000E+00 0. -1.
        -12    1    6    6    0    0 -0.29595303534E+01 -0.99853805365E+02 -0.93995476355E+01  0.10033888958E+03  0.00000000000E+00 0.  1.
</event>
<event>
12    1  0.8684423E-002  0.2183300E+03  0.7818608E-02  0.1135181E+00
         21   -1    0    0  501  502  0.00000000000E+00  0.00000000000E+00  0.42190788532E+02  0.42190788532E+02  0.00000000000E+00 0. -1.
         21   -1    0    0  502  503 -0.00000000000E+00 -0.00000000000E+00 -0.12189871146E+04  0.12189871146E+04  0.00000000000E+00 0.  1.
         -6    2    1    2    0  503 -0.11890058337E+03 -0.61990642029E+02 -0.75985238258E+03  0.79052913765E+03  0.17198978385E+03 0.  0.
        -24    2    3    3    0    0 -0.51682614816E+02 -0.69273999148E+02 -0.24449225853E+03  0.27073162896E+03  0.77776415486E+02 0.  0.
          6    2    1    2  501    0  0.11890058337E+03  0.61990642029E+02 -0.41694394347E+03  0.47064876546E+03  0.17230153803E+03 0.  0.
         24    2    5    5    0    0  0.25737573242E+02  0.81278614347E+02 -0.17606267898E+03  0.21161740459E+03  0.80716932354E+02 0.  0.
          5    1    5    5  501    0  0.93163010124E+02 -0.19287972318E+02 -0.24088126450E+03  0.25903136087E+03  0.47000000000E+01 0. -1.
        -13    1    6    6    0    0  0.14987711967E+02  0.34181424292E+01 -0.10353000806E+03  0.10466507430E+03  0.00000000000E+00 0.  1.
         14    1    6    6    0    0  0.10749861275E+02  0.77860471918E+02 -0.72532670915E+02  0.10695233029E+03  0.00000000000E+00 0. -1.
         -5    1    3    3    0  503 -0.67217968550E+02  0.72833571187E+01 -0.51536012404E+03  0.51979750869E+03  0.47000000000E+01 0.  1.
         13    1    4    4    0    0 -0.17201750456E+01 -0.64420108560E+02 -0.11458900880E+03  0.13146691723E+03  0.00000000000E+00 0. -1.
        -14    1    4    4    0    0 -0.49962439770E+02 -0.48538905875E+01 -0.12990324974E+03  0.13926471173E+03  0.00000000000E+00 0.  1.
</event>
<event>
12    1  0.8684423E-002  0.2125608E+03  0.7818608E-02  0.1139557E+00
         21   -1    0    0  501  502  0.00000000000E+00  0.00000000000E+00  0.24486621351E+02  0.24486621351E+02  0.00000000000E+00 0. -1.
         21   -1    0    0  502  503 -0.00000000000E+00 -0.00000000000E+00 -0.18505240399E+04  0.18505240399E+04  0.00000000000E+00 0.  1.
         -6    2    1    2    0  503 -0.86036559426E+02 -0.90073546809E+02 -0.96404786134E+03  0.98719980774E+03  0.17221976671E+03 0.  0.
        -24    2    3    3    0    0 -0.50385817525E+02 -0.12196188053E+03 -0.57697281374E+03  0.59715234434E+03  0.79245590710E+02 0.  0.
          6    2    1    2  501    0  0.86036559426E+02  0.90073546809E+02 -0.86198955716E+03  0.88781085347E+03  0.17223989517E+03 0.  0.
         24    2    5    5    0    0 -0.84813655289E+01  0.29454019192E+02 -0.55055654316E+03  0.55672026544E+03  0.76716842577E+02 0.  0.
          5    1    5    5  501    0  0.94517924955E+02  0.60619527617E+02 -0.31143301401E+03  0.33109058802E+03  0.47000000000E+01 0. -1.
        -11    1    6    6    0    0 -0.42311118278E+02  0.95956137721E+01 -0.28937091059E+03  0.29260524675E+03  0.00000000000E+00 0.  1.
         12    1    6    6    0    0  0.33829752749E+02  0.19858405420E+02 -0.26118563257E+03  0.26411501869E+03  0.00000000000E+00 0. -1.
         -5    1    3    3    0  503 -0.35650741901E+02  0.31888333722E+02 -0.38707504760E+03  0.39004746340E+03  0.47000000000E+01 0.  1.
         13    1    4    4    0    0 -0.33841297990E+02 -0.17259800115E+02 -0.26392302487E+03  0.26664301455E+03  0.00000000000E+00 0. -1.
        -14    1    4    4    0    0 -0.16544519535E+02 -0.10470208042E+03 -0.31304978887E+03  0.33050932979E+03  0.00000000000E+00 0.  1.
</event>
<event>
12    1  0.8684423E-002  0.6538295E+03  0.7818608E-02  0.9799683E-01
         21   -1    0    0  501  502  0.00000000000E+00  0.00000000000E+00  0.66259820337E+03  0.66259820337E+03  0.00000000000E+00 0.  1.
         21   -1    0    0  502  503 -0.00000000000E+00 -0.00000000000E+00 -0.64820169896E+03  0.64820169896E+03  0.00000000000E+00 0. -1.
         -6    2    1    2    0  503  0.63053388611E+03 -0.10800262022E+02 -0.38551789336E+02  0.65483001649E+03  0.17212345236E+03 0.  0.
        -24    2    3    3    0    0  0.36143910299E+03  0.24150719908E+01 -0.89268007107E+02  0.38063871084E+03  0.79202230721E+02 0.  0.
          6    2    1    2  501    0 -0.63053388611E+03  0.10800262022E+02  0.52948293745E+02  0.65596988583E+03  0.17263644492E+03 0.  0.
         24    2    5    5    0    0 -0.54880827716E+03  0.49606926092E+01 -0.65906445296E+01  0.55457880684E+03  0.79366761585E+02 0.  0.
          5    1    5    5  501    0 -0.81725608941E+02  0.58395694126E+01  0.59538938275E+02  0.10139107899E+03  0.47000000000E+01 0. -1.
        -11    1    6    6    0    0 -0.23442429655E+03 -0.20116128240E+02  0.29542209028E+02  0.23713319367E+03  0.00000000000E+00 0.  1.
         12    1    6    6    0    0 -0.31438398062E+03  0.25076820849E+02 -0.36132853557E+02  0.31744561317E+03  0.00000000000E+00 0. -1.
         -5    1    3    3    0  503  0.26909478311E+03 -0.13215334013E+02  0.50716217771E+02  0.27419130565E+03  0.47000000000E+01 0.  1.
         11    1    4    4    0    0  0.20795146396E+03  0.90737278388E+01 -0.11554811445E+02  0.20846980013E+03  0.00000000000E+00 0. -1.
        -12    1    4    4    0    0  0.15348763903E+03 -0.66586558480E+01 -0.77713195662E+02  0.17216891071E+03  0.00000000000E+00 0.  1.
</event>
<event>
12    1  0.8684423E-002  0.2162255E+03  0.7818608E-02  0.1136790E+00
         21   -1    0    0  501  502  0.00000000000E+00  0.00000000000E+00  0.16520005379E+03  0.16520005379E+03  0.00000000000E+00 0.  1.
         21   -1    0    0  502  503 -0.00000000000E+00 -0.00000000000E+00 -0.42953599141E+03  0.42953599141E+03  0.00000000000E+00 0. -1.
         -6    2    1    2    0  503  0.73502433766E+02  0.10804181727E+03 -0.30603339327E+03  0.37452670414E+03  0.17186672823E+03 0.  0.
        -24    2    3    3    0    0  0.10174066276E+03  0.12289321799E+03 -0.28297582073E+03  0.33488199035E+03  0.81343265610E+02 0.  0.
          6    2    1    2  501    0 -0.73502433766E+02 -0.10804181727E+03  0.41697455652E+02  0.22020934106E+03  0.17227255740E+03 0.  0.
         24    2    5    5    0    0 -0.74036188609E+02 -0.40817979925E+02  0.81718236847E+02  0.14183152449E+03  0.79314856097E+02 0.  0.
          5    1    5    5  501    0  0.53375484224E+00 -0.67223837346E+02 -0.40020781194E+02  0.78377816563E+02  0.47000000000E+01 0. -1.
        -13    1    6    6    0    0 -0.49705627224E+02  0.14928239008E+02  0.54299014072E+02  0.75112479834E+02  0.00000000000E+00 0.  1.
         14    1    6    6    0    0 -0.24330561384E+02 -0.55746218933E+02  0.27419222774E+02  0.66719044658E+02  0.00000000000E+00 0. -1.
         -5    1    3    3    0  503 -0.28238228994E+02 -0.14851400719E+02 -0.23057572537E+02  0.39644713788E+02  0.47000000000E+01 0.  1.
         11    1    4    4    0    0  0.90177741928E+02  0.79261180489E+02 -0.25480737623E+03  0.28167562701E+03  0.00000000000E+00 0. -1.
        -12    1    4    4    0    0  0.11562920832E+02  0.43632037501E+02 -0.28168444500E+02  0.53206363343E+02  0.00000000000E+00 0.  1.
</event>
<event>
12    1  0.8684423E-002  0.3368617E+03  0.7818608E-02  0.1068192E+00
         21   -1    0    0  501  502  0.00000000000E+00  0.00000000000E+00  0.10174865926E+03  0.10174865926E+03  0.00000000000E+00 0. -1.
         21   -1    0    0  502  503 -0.00000000000E+00 -0.00000000000E+00 -0.12692847778E+04  0.12692847778E+04  0.00000000000E+00 0.  1.
         -6    2    1    2    0  503  0.42317575244E+02 -0.28583932387E+03 -0.82342800468E+03  0.88948777663E+03  0.17222058425E+03 0.  0.
        -24    2    3    3    0    0  0.46863012821E+02 -0.28693468594E+03 -0.65617008357E+03  0.72209852072E+03  0.79620594612E+02 0.  0.
          6    2    1    2  501    0 -0.42317575244E+02  0.28583932387E+03 -0.34410811386E+03  0.48154566044E+03  0.17315002979E+03 0.  0.
         24    2    5    5    0    0  0.24278963907E+02  0.24003894787E+03 -0.27984245051E+03  0.37817768206E+03  0.80612638686E+02 0.  0.
          5    1    5    5  501    0 -0.66596539151E+02  0.45800376002E+02 -0.64265663351E+02  0.10336797838E+03  0.47000000000E+01 0. -1.
        -13    1    6    6    0    0  0.14845583012E+02  0.86536620717E+02 -0.16260602739E+03  0.18479636956E+03  0.00000000000E+00 0.  1.
         14    1    6    6    0    0  0.94333808955E+01  0.15350232715E+03 -0.11723642312E+03  0.19338131250E+03  0.00000000000E+00 0. -1.
         -5    1    3    3    0  503 -0.45454375773E+01  0.10953620681E+01 -0.16725792111E+03  0.16738925591E+03  0.47000000000E+01 0.  1.
         13    1    4    4    0    0  0.49271591997E+02 -0.92837317159E+02 -0.19006802057E+03  0.21719187296E+03  0.00000000000E+00 0. -1.
        -14    1    4    4    0    0 -0.24085791760E+01 -0.19409736878E+03 -0.46610206300E+03  0.50490664777E+03  0.00000000000E+00 0.  1.
</event>
<event>
12    1  0.8684423E-002  0.2164020E+03  0.7818608E-02  0.1136705E+00
         21   -1    0    0  503  502  0.00000000000E+00  0.00000000000E+00  0.17210707945E+03  0.17210707945E+03  0.00000000000E+00 0.  1.
         21   -1    0    0  501  503 -0.00000000000E+00 -0.00000000000E+00 -0.52292653307E+03  0.52292653307E+03  0.00000000000E+00 0.  1.
          6    2    1    2  501    0 -0.13055841767E+03  0.72570783772E+01 -0.41656287094E+03  0.46941928262E+03  0.17242874423E+03 0.  0.
         24    2    3    3    0    0 -0.14098103846E+03  0.50624999023E+02 -0.35043851607E+03  0.38951979657E+03  0.80498289655E+02 0.  0.
         -6    2    1    2    0  502  0.13055841767E+03 -0.72570783772E+01  0.65743417317E+02  0.22561432990E+03  0.17170166955E+03 0.  0.
        -24    2    5    5    0    0  0.14292540141E+03 -0.45559925030E+02  0.74638918568E+02  0.18412613530E+03  0.76341917701E+02 0.  0.
          5    1    3    3  501    0  0.10422620787E+02 -0.43367920646E+02 -0.66124354867E+02  0.79899486055E+02  0.47000000000E+01 0. -1.
        -11    1    4    4    0    0 -0.74228543244E+02  0.43108362354E+01 -0.90208424796E+02  0.11690175296E+03  0.00000000000E+00 0.  1.
         12    1    4    4    0    0 -0.66752495212E+02  0.46314162788E+02 -0.26023009128E+03  0.27261804360E+03  0.00000000000E+00 0. -1.
         -5    1    5    5    0  502 -0.12366983745E+02  0.38302846653E+02 -0.88955012512E+01  0.41488194600E+02  0.47000000000E+01 0.  1.
         13    1    6    6    0    0  0.13775884246E+02  0.73018990585E+01 -0.12170751158E+02  0.19779279572E+02  0.00000000000E+00 0. -1.
        -14    1    6    6    0    0  0.12914951717E+03 -0.52861824089E+02  0.86809669726E+02  0.16434685573E+03  0.00000000000E+00 0.  1.
</event>
<event>
12    1  0.8684423E-002  0.1768112E+03  0.7818608E-02  0.1171917E+00
         21   -1    0    0  501  502  0.00000000000E+00  0.00000000000E+00  0.12340494675E+03  0.12340494675E+03  0.00000000000E+00 0.  1.
         21   -1    0    0  502  503 -0.00000000000E+00 -0.00000000000E+00 -0.63994680880E+03  0.63994680880E+03  0.00000000000E+00 0. -1.
         -6    2    1    2    0  503 -0.15240034508E+02 -0.38025826149E+02 -0.55595027641E+03  0.58220205519E+03  0.16792945281E+03 0.  0.
        -24    2    3    3    0    0 -0.56260954624E+02 -0.13226515265E+02 -0.49351409996E+03  0.50334720222E+03  0.80386587183E+02 0.  0.
          6    2    1    2  501    0  0.15240034508E+02  0.38025826149E+02  0.39408414349E+02  0.18114970036E+03  0.17199990905E+03 0.  0.
         24    2    5    5    0    0 -0.41752843717E+02 -0.16925667387E+02 -0.44641381439E+01  0.90514466197E+02  0.78378325362E+02 0.  0.
          5    1    5    5  501    0  0.56992878224E+02  0.54951493537E+02  0.43872552492E+02  0.90635234166E+02  0.47000000000E+01 0. -1.
        -13    1    6    6    0    0  0.11138548304E+02  0.18679644169E+02  0.11758715017E+02  0.24723748572E+02  0.00000000000E+00 0.  1.
         14    1    6    6    0    0 -0.52891392020E+02 -0.35605311557E+02 -0.16222853161E+02  0.65790717625E+02  0.00000000000E+00 0. -1.
         -5    1    3    3    0  503  0.41020920116E+02 -0.24799310884E+02 -0.62436176446E+02  0.78854852968E+02  0.47000000000E+01 0.  1.
         13    1    4    4    0    0 -0.13533057800E+02  0.14838998761E+02 -0.35717500080E+03  0.35773917976E+03  0.00000000000E+00 0. -1.
        -14    1    4    4    0    0 -0.42727896823E+02 -0.28065514027E+02 -0.13633909916E+03  0.14560802246E+03  0.00000000000E+00 0.  1.
</event>
<event>
12    1  0.8684423E-002  0.1799812E+03  0.7818608E-02  0.1167985E+00
         21   -1    0    0  503  502  0.00000000000E+00  0.00000000000E+00  0.29337532454E+03  0.29337532454E+03  0.00000000000E+00 0. -1.
         21   -1    0    0  501  503 -0.00000000000E+00 -0.00000000000E+00 -0.24204749926E+03  0.24204749926E+03  0.00000000000E+00 0. -1.
          6    2    1    2  501    0  0.43282593388E+00  0.51059666946E+02 -0.17204603034E+03  0.24898406263E+03  0.17258606537E+03 0.  0.
         24    2    3    3    0    0  0.27086723988E+02  0.91870249441E+02 -0.83124192753E+02  0.14746993984E+03  0.75259008684E+02 0.  0.
         -6    2    1    2    0  502 -0.43282593388E+00 -0.51059666946E+02  0.22337385562E+03  0.28643876118E+03  0.17188370371E+03 0.  0.
        -24    2    5    5    0    0 -0.57776770793E+02  0.26625127120E+01  0.14482123736E+03  0.17523172707E+03  0.79923232942E+02 0.  0.
          5    1    3    3  501    0 -0.26653898054E+02 -0.40810582495E+02 -0.88921837588E+02  0.10151412279E+03  0.47000000000E+01 0. -1.
        -13    1    4    4    0    0 -0.25797975584E+02  0.40850739392E+02 -0.31949472438E+02  0.57923114921E+02  0.00000000000E+00 0.  1.
         14    1    4    4    0    0  0.52884699572E+02  0.51019510049E+02 -0.51174720315E+02  0.89546824923E+02  0.00000000000E+00 0. -1.
         -5    1    5    5    0  502  0.57343944859E+02 -0.53722179658E+02  0.78552618263E+02  0.11120703411E+03  0.47000000000E+01 0.  1.
         13    1    6    6    0    0 -0.27494432582E+02 -0.17230655379E+02  0.13332948833E+03  0.13722095965E+03  0.00000000000E+00 0. -1.
        -14    1    6    6    0    0 -0.30282338211E+02  0.19893168091E+02  0.11491749027E+02  0.38010767421E+02  0.00000000000E+00 0.  1.
</event>
<event>
12    1  0.8684423E-002  0.1962412E+03  0.7818608E-02  0.1153029E+00
         21   -1    0    0  503  502  0.00000000000E+00  0.00000000000E+00  0.61653352982E+03  0.61653352982E+03  0.00000000000E+00 0.  1.
         21   -1    0    0  501  503 -0.00000000000E+00 -0.00000000000E+00 -0.11311926883E+03  0.11311926883E+03  0.00000000000E+00 0.  1.
          6    2    1    2  501    0  0.29012848466E+02 -0.85959883859E+02  0.71575208421E+01  0.19600368770E+03  0.17359541607E+03 0.  0.
         24    2    3    3    0    0  0.96495624789E+01 -0.12435930338E+03 -0.73845121644E+01  0.15036365059E+03  0.83644162998E+02 0.  0.
         -6    2    1    2    0  502 -0.29012848466E+02  0.85959883859E+02  0.49625674014E+03  0.53364911095E+03  0.17401084584E+03 0.  0.
        -24    2    5    5    0    0 -0.70267964605E+02  0.20790508897E+02  0.19372626131E+03  0.22140591620E+03  0.78236074159E+02 0.  0.
          5    1    3    3  501    0  0.19363285987E+02  0.38399419526E+02  0.14542033007E+02  0.45640037118E+02  0.47000000000E+01 0. -1.
        -13    1    4    4    0    0 -0.15000254891E+02 -0.34795433328E+02 -0.36903439384E+02  0.52892283612E+02  0.00000000000E+00 0.  1.
         14    1    4    4    0    0  0.24649817370E+02 -0.89563870057E+02  0.29518927220E+02  0.97471366976E+02  0.00000000000E+00 0. -1.
         -5    1    5    5    0  502  0.41255116139E+02  0.65169374962E+02  0.30253047883E+03  0.31224319474E+03  0.47000000000E+01 0.  1.
         13    1    6    6    0    0 -0.67574397219E+02  0.45202966799E+02  0.13271989743E+03  0.15564118523E+03  0.00000000000E+00 0. -1.
        -14    1    6    6    0    0 -0.26935673864E+01 -0.24412457902E+02  0.61006363882E+02  0.65764730975E+02  0.00000000000E+00 0.  1.
</event>
<event>
12    1  0.8684423E-002  0.2119345E+03  0.7818608E-02  0.1140155E+00
         21   -1    0    0  503  502  0.00000000000E+00  0.00000000000E+00  0.63430752595E+03  0.63430752595E+03  0.00000000000E+00 0.  1.
         21   -1    0    0  501  503 -0.00000000000E+00 -0.00000000000E+00 -0.14359540142E+03  0.14359540142E+03  0.00000000000E+00 0.  1.
          6    2    1    2  501    0  0.12209572169E+03 -0.20589776232E+02 -0.31755626728E+02  0.21430036754E+03  0.17200268474E+03 0.  0.
         24    2    3    3    0    0  0.28289954473E+01  0.13702617716E+02 -0.33965644262E+02  0.90092902187E+02  0.82263607305E+02 0.  0.
         -6    2    1    2    0  502 -0.12209572169E+03  0.20589776232E+02  0.52246775125E+03  0.56360255983E+03  0.17130087624E+03 0.  0.
        -24    2    5    5    0    0 -0.14930653909E+03 -0.57445506015E-01  0.37046454376E+03  0.40773787031E+03  0.81937456558E+02 0.  0.
          5    1    3    3  501    0  0.11926672625E+03 -0.34292393948E+02  0.22100175334E+01  0.12420746535E+03  0.47000000000E+01 0. -1.
        -11    1    4    4    0    0  0.27605156832E+02 -0.43000929407E+01  0.15473097202E+02  0.31936690812E+02  0.00000000000E+00 0.  1.
         12    1    4    4    0    0 -0.24776161385E+02  0.18002710657E+02 -0.49438741464E+02  0.58156211375E+02  0.00000000000E+00 0. -1.
         -5    1    5    5    0  502  0.27210817399E+02  0.20647221738E+02  0.15200320749E+03  0.15586468951E+03  0.47000000000E+01 0.  1.
         13    1    6    6    0    0 -0.96087514759E+02  0.25205553666E+02  0.15288186045E+03  0.18232112791E+03  0.00000000000E+00 0. -1.
        -14    1    6    6    0    0 -0.53219024334E+02 -0.25262999172E+02  0.21758268331E+03  0.22541674240E+03  0.00000000000E+00 0.  1.
</event>
<event>
12    1  0.8684423E-002  0.1802499E+03  0.7818608E-02  0.1167845E+00
         21   -1    0    0  503  502  0.00000000000E+00  0.00000000000E+00  0.11552195529E+03  0.11552195529E+03  0.00000000000E+00 0.  1.
         21   -1    0    0  501  503 -0.00000000000E+00 -0.00000000000E+00 -0.31265578498E+03  0.31265578498E+03  0.00000000000E+00 0. -1.
          6    2    1    2  501    0  0.49177078125E+02 -0.20040037631E+02 -0.29053644754E+02  0.18257636714E+03  0.17224989824E+03 0.  0.
         24    2    3    3    0    0  0.76455429441E+02 -0.53030753702E+02  0.13958639430E+02  0.12171059360E+03  0.77207068661E+02 0.  0.
         -6    2    1    2    0  502 -0.49177078125E+02  0.20040037631E+02 -0.16808018493E+03  0.24560137313E+03  0.17102367613E+03 0.  0.
        -24    2    5    5    0    0  0.95678817523E+01  0.32624944644E+02 -0.16399353801E+03  0.18520153142E+03  0.79055647219E+02 0.  0.
          5    1    3    3  501    0 -0.27278351316E+02  0.32990716071E+02 -0.43012284185E+02  0.60865773536E+02  0.47000000000E+01 0. -1.
        -13    1    4    4    0    0  0.27058077111E+01 -0.42875826117E+02 -0.88221052579E+01  0.43857580893E+02  0.00000000000E+00 0.  1.
         14    1    4    4    0    0  0.73749621729E+02 -0.10154927585E+02  0.22780744688E+02  0.77853012710E+02  0.00000000000E+00 0. -1.
         -5    1    5    5    0  502 -0.58744959877E+02 -0.12584907012E+02 -0.40866469220E+01  0.60399841710E+02  0.47000000000E+01 0.  1.
         11    1    6    6    0    0 -0.82876851983E+01  0.58463987212E+01 -0.14960118890E+03  0.14994459585E+03  0.00000000000E+00 0. -1.
        -12    1    6    6    0    0  0.17855566951E+02  0.26778545922E+02 -0.14392349106E+02  0.35256935568E+02  0.00000000000E+00 0.  1.
</event>
<event>
12    1  0.8684423E-002  0.1987801E+03  0.7818608E-02  0.1154027E+00
         21   -1    0    0  501  502  0.00000000000E+00  0.00000000000E+00  0.49231132640E+02  0.49231132640E+02  0.00000000000E+00 0. -1.
         21   -1    0    0  502  503 -0.00000000000E+00 -0.00000000000E+00 -0.95160675747E+03  0.95160675747E+03  0.00000000000E+00 0. -1.
         -6    2    1    2    0  503  0.27534046545E+02  0.58374700829E+02 -0.67102943254E+03  0.69582216572E+03  0.17240144301E+03 0.  0.
        -24    2    3    3    0    0  0.30528737813E+02 -0.33582673108E+02 -0.32845260747E+03  0.34107423003E+03  0.79941949390E+02 0.  0.
          6    2    1    2  501    0 -0.27534046545E+02 -0.58374700829E+02 -0.23134619228E+03  0.30501572439E+03  0.18801011149E+03 0.  0.
         24    2    5    5    0    0  0.44761711943E+02 -0.40212432045E+01 -0.17708801140E+03  0.19943629816E+03  0.79968068541E+02 0.  0.
          5    1    5    5  501    0 -0.72295758488E+02 -0.54353457624E+02 -0.54258180880E+02  0.10557942623E+03  0.47000000000E+01 0. -1.
        -13    1    6    6    0    0  0.79446374066E+01 -0.32274178664E+02 -0.12646630091E+03  0.13076109948E+03  0.00000000000E+00 0.  1.
         14    1    6    6    0    0  0.36817074537E+02  0.28252935459E+02 -0.50621710492E+02  0.68675198672E+02  0.00000000000E+00 0. -1.
         -5    1    3    3    0  503 -0.29946912675E+01  0.91957373937E+02 -0.34257682507E+03  0.35474793569E+03  0.47000000000E+01 0.  1.
         11    1    4    4    0    0 -0.78805558807E+01  0.17595736788E+02 -0.28745373157E+02  0.34612275164E+02  0.00000000000E+00 0. -1.
        -12    1    4    4    0    0  0.38409293693E+02 -0.51178409896E+02 -0.29970723431E+03  0.30646195487E+03  0.00000000000E+00 0.  1.
</event>
<event>
12    1  0.8684423E-002  0.2022312E+03  0.7818608E-02  0.1148253E+00
         21   -1    0    0  501  502  0.00000000000E+00  0.00000000000E+00  0.44586808918E+03  0.44586808918E+03  0.00000000000E+00 0. -1.
         21   -1    0    0  502  503 -0.00000000000E+00 -0.00000000000E+00 -0.95054558762E+02  0.95054558762E+02  0.00000000000E+00 0. -1.
         -6    2    1    2    0  503  0.85138699060E+02  0.57714355646E+02  0.23273992397E+03  0.30832665551E+03  0.17412038757E+03 0.  0.
        -24    2    3    3    0    0  0.11001542079E+03  0.13768277479E+02  0.21719551280E+03  0.25528112989E+03  0.75508981058E+02 0.  0.
          6    2    1    2  501    0 -0.85138699060E+02 -0.57714355646E+02  0.11807360646E+03  0.23259599244E+03  0.17198829678E+03 0.  0.
         24    2    5    5    0    0 -0.85771886555E+02  0.19867204258E+02  0.47319058238E+02  0.12748845009E+03  0.79137155031E+02 0.  0.
          5    1    5    5  501    0  0.63318749442E+00 -0.77581559903E+02  0.70754548220E+02  0.10510754234E+03  0.47000000000E+01 0. -1.
        -11    1    6    6    0    0 -0.12050031002E+02 -0.11067270601E+01  0.49352279041E+02  0.50814127351E+02  0.00000000000E+00 0.  1.
         12    1    6    6    0    0 -0.73721855552E+02  0.20973931318E+02 -0.20332208033E+01  0.76674322741E+02  0.00000000000E+00 0. -1.
         -5    1    3    3    0  503 -0.24876721730E+02  0.43946078166E+02  0.15544411167E+02  0.53045525624E+02  0.47000000000E+01 0.  1.
         11    1    4    4    0    0 -0.11371477724E+00  0.28044121627E+01  0.75186804267E+02  0.75239173271E+02  0.00000000000E+00 0. -1.
        -12    1    4    4    0    0  0.11012913557E+03  0.10963865317E+02  0.14200870853E+03  0.18004195662E+03  0.00000000000E+00 0.  1.
</event>
<event>
12    1  0.8684423E-002  0.1925988E+03  0.7818608E-02  0.1157503E+00
         21   -1    0    0  501  502  0.00000000000E+00  0.00000000000E+00  0.95174274116E+03  0.95174274116E+03  0.00000000000E+00 0. -1.
         21   -1    0    0  502  503 -0.00000000000E+00 -0.00000000000E+00 -0.63727893001E+02  0.63727893001E+02  0.00000000000E+00 0.  1.
         -6    2    1    2    0  503 -0.36578765305E+02  0.61989105528E+02  0.12411978591E+03  0.22912881697E+03  0.17864388665E+03 0.  0.
        -24    2    3    3    0    0 -0.10978192270E+02  0.10157040569E+03  0.44976182213E+02  0.13689070842E+03  0.79241031461E+02 0.  0.
          6    2    1    2  501    0  0.36578765305E+02 -0.61989105528E+02  0.76389506224E+03  0.78634181718E+03  0.17209628717E+03 0.  0.
         24    2    5    5    0    0  0.82759643373E+02 -0.75188750197E+02  0.60275705356E+03  0.61813226941E+03  0.79176575758E+02 0.  0.
          5    1    5    5  501    0 -0.46180878068E+02  0.13199644670E+02  0.16113800869E+03  0.16820954777E+03  0.47000000000E+01 0. -1.
        -13    1    6    6    0    0  0.40890551954E+01 -0.24135618742E+02  0.35178354871E+02  0.42857497779E+02  0.00000000000E+00 0.  1.
         14    1    6    6    0    0  0.78670588178E+02 -0.51053131455E+02  0.56757869868E+03  0.57527477163E+03  0.00000000000E+00 0. -1.
         -5    1    3    3    0  503 -0.25600573036E+02 -0.39581300166E+02  0.79143603701E+02  0.92238108553E+02  0.47000000000E+01 0.  1.
         13    1    4    4    0    0  0.30408625198E+02  0.47255821011E+02  0.38880005884E+02  0.68333388350E+02  0.00000000000E+00 0. -1.
        -14    1    4    4    0    0 -0.41386817467E+02  0.54314584683E+02  0.60961763286E+01  0.68557320070E+02  0.00000000000E+00 0.  1.
</event>
<event>
12    1  0.8684423E-002  0.2012186E+03  0.7818608E-02  0.1151881E+00
         21   -1    0    0  501  502  0.00000000000E+00  0.00000000000E+00  0.17590465371E+03  0.17590465371E+03  0.00000000000E+00 0. -1.
         21   -1    0    0  502  503 -0.00000000000E+00 -0.00000000000E+00 -0.22265937184E+03  0.22265937184E+03  0.00000000000E+00 0.  1.
         -6    2    1    2    0  503  0.37628045963E+02  0.62977082491E+02  0.15398003849E+02  0.20180686347E+03  0.18736843080E+03 0.  0.
        -24    2    3    3    0    0  0.82493777181E+02  0.63447675629E+02 -0.33037829474E+02  0.13561566130E+03  0.80431825771E+02 0.  0.
          6    2    1    2  501    0 -0.37628045963E+02 -0.62977082491E+02 -0.62152721981E+02  0.19675716208E+03  0.17166373297E+03 0.  0.
         24    2    5    5    0    0 -0.80760871801E+02 -0.58127923636E+01 -0.52042020806E+02  0.12428293902E+03  0.78624233106E+02 0.  0.
          5    1    5    5  501    0  0.43132825838E+02 -0.57164290127E+02 -0.10110701175E+02  0.72474223064E+02  0.47000000000E+01 0. -1.
        -11    1    6    6    0    0  0.12348083122E+02 -0.52320940066E+01 -0.23217926883E+02  0.26812722600E+02  0.00000000000E+00 0.  1.
         12    1    6    6    0    0 -0.93108954924E+02 -0.58069835705E+00 -0.28824093924E+02  0.97470216415E+02  0.00000000000E+00 0. -1.
         -5    1    3    3    0  503 -0.44865731218E+02 -0.47059313768E+00  0.48435833323E+02  0.66191202175E+02  0.47000000000E+01 0.  1.
         11    1    4    4    0    0  0.58444772553E+02  0.37995439593E+02  0.19583488371E+02  0.72408272217E+02  0.00000000000E+00 0. -1.
        -12    1    4    4    0    0  0.24049004629E+02  0.25452236035E+02 -0.52621317845E+02  0.63207389082E+02  0.00000000000E+00 0.  1.
</event>
<event>
12    1  0.8684423E-002  0.1924653E+03  0.7818608E-02  0.1156337E+00
         21   -1    0    0  503  502  0.00000000000E+00  0.00000000000E+00  0.61881113963E+03  0.61881113963E+03  0.00000000000E+00 0.  1.
         21   -1    0    0  501  503 -0.00000000000E+00 -0.00000000000E+00 -0.66672986302E+02  0.66672986302E+02  0.00000000000E+00 0.  1.
          6    2    1    2  501    0  0.85531591448E+02 -0.44006270957E+01  0.38676433366E+03  0.43200639886E+03  0.17235968265E+03 0.  0.
         24    2    3    3    0    0  0.13601334769E+02 -0.13440987983E+02  0.81931849801E+02  0.11863661223E+03  0.83643058794E+02 0.  0.
         -6    2    1    2    0  502 -0.85531591448E+02  0.44006270957E+01  0.16537381966E+03  0.25347772707E+03  0.17195185151E+03 0.  0.
        -24    2    5    5    0    0 -0.35608868891E+02 -0.34641874605E+02  0.16445181896E+03  0.18992038877E+03  0.80977171425E+02 0.  0.
          5    1    3    3  501    0  0.71930256679E+02  0.90403608874E+01  0.30483248386E+03  0.31336978662E+03  0.47000000000E+01 0. -1.
        -13    1    4    4    0    0  0.19827185288E+02 -0.39857237052E+02  0.79845249115E+02  0.91416521637E+02  0.00000000000E+00 0.  1.
         14    1    4    4    0    0 -0.62258505189E+01  0.26416249069E+02  0.20866006856E+01  0.27220090595E+02  0.00000000000E+00 0. -1.
         -5    1    5    5    0  502 -0.49922722556E+02  0.39042501700E+02  0.92200069932E+00  0.63557338300E+02  0.47000000000E+01 0.  1.
         13    1    6    6    0    0 -0.53838197601E+02 -0.33055066573E+02  0.72491276762E+02  0.96157028623E+02  0.00000000000E+00 0. -1.
        -14    1    6    6    0    0  0.18229328710E+02 -0.15868080318E+01  0.91960542198E+02  0.93763360148E+02  0.00000000000E+00 0.  1.
</event>
<event>
12    1  0.8684423E-002  0.1880383E+03  0.7818608E-02  0.1164681E+00
         21   -1    0    0  501  502  0.00000000000E+00  0.00000000000E+00  0.18402943945E+03  0.18402943945E+03  0.00000000000E+00 0.  1.
         21   -1    0    0  502  503 -0.00000000000E+00 -0.00000000000E+00 -0.20328229631E+03  0.20328229631E+03  0.00000000000E+00 0.  1.
         -6    2    1    2    0  503  0.35739556758E+02  0.22876476345E+02  0.64447847816E+02  0.18148603780E+03  0.16426505332E+03 0.  0.
        -24    2    3    3    0    0 -0.25066936426E+02  0.13278912667E+02  0.81381285297E+02  0.11746749247E+03  0.79818652997E+02 0.  0.
          6    2    1    2  501    0 -0.35739556758E+02 -0.22876476345E+02 -0.83700704675E+02  0.20582569796E+03  0.18318777494E+03 0.  0.
         24    2    5    5    0    0 -0.77986384780E+02  0.32980147191E+02 -0.50772706973E+02  0.12829441457E+03  0.81926935232E+02 0.  0.
          5    1    5    5  501    0  0.42246828022E+02 -0.55856623536E+02 -0.32927997703E+02  0.77531283386E+02  0.47000000000E+01 0. -1.
        -13    1    6    6    0    0  0.32565863473E+01 -0.19752741668E+02 -0.15107584422E+02  0.25080176736E+02  0.00000000000E+00 0.  1.
         14    1    6    6    0    0 -0.81242971127E+02  0.52732888859E+02 -0.35665122551E+02  0.10321423783E+03  0.00000000000E+00 0. -1.
         -5    1    3    3    0  503  0.60806493184E+02  0.95975636783E+01 -0.16933437481E+02  0.64018545335E+02  0.47000000000E+01 0.  1.
         11    1    4    4    0    0 -0.57653801433E+00  0.17875275563E+02 -0.11525861782E+02  0.21276826886E+02  0.00000000000E+00 0. -1.
        -12    1    4    4    0    0 -0.24490398412E+02 -0.45963628965E+01  0.92907147079E+02  0.96190665580E+02  0.00000000000E+00 0.  1.
</event>
<event>
12    1  0.8684423E-002  0.3127907E+03  0.7818608E-02  0.1079121E+00
         21   -1    0    0  503  502  0.00000000000E+00  0.00000000000E+00  0.26337836059E+03  0.26337836059E+03  0.00000000000E+00 0.  1.
         21   -1    0    0  501  503 -0.00000000000E+00 -0.00000000000E+00 -0.44256150972E+03  0.44256150972E+03  0.00000000000E+00 0. -1.
          6    2    1    2  501    0  0.16073129326E+03 -0.20426245913E+03 -0.23220314681E+03  0.38955917234E+03  0.17401248955E+03 0.  0.
         24    2    3    3    0    0  0.12954106909E+03 -0.12987242031E+03 -0.75853880331E+02  0.21356516367E+03  0.78794249999E+02 0.  0.
         -6    2    1    2    0  502 -0.16073129326E+03  0.20426245913E+03  0.53019997680E+02  0.31638069798E+03  0.17241787916E+03 0.  0.
        -24    2    5    5    0    0 -0.15003101484E+03  0.80609445648E+02  0.26722534615E+02  0.18942318435E+03  0.78484780515E+02 0.  0.
          5    1    3    3  501    0  0.31190224174E+02 -0.74390038819E+02 -0.15634926648E+03  0.17599400867E+03  0.47000000000E+01 0. -1.
        -13    1    4    4    0    0  0.46439600386E+02 -0.10590210267E+02  0.38260346423E+01  0.47785223434E+02  0.00000000000E+00 0.  1.
         14    1    4    4    0    0  0.83101468700E+02 -0.11928221005E+03 -0.79679914974E+02  0.16577994023E+03  0.00000000000E+00 0. -1.
         -5    1    5    5    0  502 -0.10700278420E+02  0.12365301348E+03  0.26297463066E+02  0.12695751362E+03  0.47000000000E+01 0.  1.
         13    1    6    6    0    0 -0.49697201463E+02  0.10151926155E+02 -0.24768477115E+02  0.56447771404E+02  0.00000000000E+00 0. -1.
        -14    1    6    6    0    0 -0.10033381338E+03  0.70457519493E+02  0.51491011730E+02  0.13297541295E+03  0.00000000000E+00 0.  1.
</event>
<event>
12    1  0.8684423E-002  0.1754372E+03  0.7818608E-02  0.1172595E+00
         21   -1    0    0  501  502  0.00000000000E+00  0.00000000000E+00  0.34243898445E+03  0.34243898445E+03  0.00000000000E+00 0. -1.
         21   -1    0    0  502  503 -0.00000000000E+00 -0.00000000000E+00 -0.24329135846E+03  0.24329135846E+03  0.00000000000E+00 0.  1.
         -6    2    1    2    0  503 -0.15935852231E+02 -0.27667119454E+02 -0.18338716724E+03  0.25378940116E+03  0.17250735100E+03 0.  0.
        -24    2    3    3    0    0  0.39496936239E+02  0.39824037032E+02 -0.12233298891E+03  0.14712378846E+03  0.59448187998E+02 0.  0.
          6    2    1    2  501    0  0.15935852231E+02  0.27667119454E+02  0.28253479322E+03  0.33194094175E+03  0.17128764856E+03 0.  0.
         24    2    5    5    0    0 -0.53628078089E+02  0.39666135895E+02  0.19351907084E+03  0.21823515638E+03  0.75680774337E+02 0.  0.
          5    1    5    5  501    0  0.69563930320E+02 -0.11999016441E+02  0.89015722376E+02  0.11370578537E+03  0.47000000000E+01 0. -1.
        -11    1    6    6    0    0  0.49918291727E+01 -0.16282093197E+02  0.17292508586E+02  0.24270471165E+02  0.00000000000E+00 0.  1.
         12    1    6    6    0    0 -0.58619907261E+02  0.55948229092E+02  0.17622656226E+03  0.19396468522E+03  0.00000000000E+00 0. -1.
         -5    1    3    3    0  503 -0.55432788471E+02 -0.67491156486E+02 -0.61054178322E+02  0.10666561270E+03  0.47000000000E+01 0.  1.
         13    1    4    4    0    0  0.17834303158E+02  0.31888690537E+02 -0.18874318469E+02  0.41124090884E+02  0.00000000000E+00 0. -1.
        -14    1    4    4    0    0  0.21662633081E+02  0.79353464947E+01 -0.10345867045E+03  0.10599969758E+03  0.00000000000E+00 0.  1.
</event>
<event>
12    1  0.8684423E-002  0.2127676E+03  0.7818608E-02  0.1139773E+00
         21   -1    0    0  503  502  0.00000000000E+00  0.00000000000E+00  0.42928726507E+03  0.42928726507E+03  0.00000000000E+00 0. -1.
         21   -1    0    0  501  503 -0.00000000000E+00 -0.00000000000E+00 -0.15830479333E+03  0.15830479333E+03  0.00000000000E+00 0. -1.
          6    2    1    2  501    0  0.11566959985E+03  0.38717711870E+02 -0.35390790827E+02  0.21569093109E+03  0.17433173015E+03 0.  0.
         24    2    3    3    0    0  0.88496317128E+02  0.17016169099E+02 -0.82451325378E+02  0.15698719897E+03  0.98618514631E+02 0.  0.
         -6    2    1    2    0  502 -0.11566959985E+03 -0.38717711870E+02  0.30637326256E+03  0.37190112731E+03  0.17195160638E+03 0.  0.
        -24    2    5    5    0    0 -0.11082349610E+02  0.28221595021E+02  0.11043514906E+03  0.13988130479E+03  0.80321730452E+02 0.  0.
          5    1    3    3  501    0  0.27173282719E+02  0.21701542771E+02  0.47060534551E+02  0.58703732118E+02  0.47000000000E+01 0. -1.
        -11    1    4    4    0    0 -0.20318300559E+02  0.16303420813E+00 -0.16040317653E+01  0.20382169552E+02  0.00000000000E+00 0.  1.
         12    1    4    4    0    0  0.10881461769E+03  0.16853134891E+02 -0.80847293613E+02  0.13660502942E+03  0.00000000000E+00 0. -1.
         -5    1    5    5    0  502 -0.10458725024E+03 -0.66939306892E+02  0.19593811350E+03  0.23201982252E+03  0.47000000000E+01 0.  1.
         13    1    6    6    0    0 -0.45598154852E+02  0.96579425818E+01  0.57543459752E+02  0.74052125837E+02  0.00000000000E+00 0. -1.
        -14    1    6    6    0    0  0.34515805242E+02  0.18563652439E+02  0.52891689310E+02  0.65829178952E+02  0.00000000000E+00 0.  1.
</event>
<event>
12    1  0.8684423E-002  0.1809373E+03  0.7818608E-02  0.1167048E+00
         21   -1    0    0  503  502  0.00000000000E+00  0.00000000000E+00  0.21100423447E+04  0.21100423447E+04  0.00000000000E+00 0. -1.
         21   -1    0    0  501  503 -0.00000000000E+00 -0.00000000000E+00 -0.17583355878E+02  0.17583355878E+02  0.00000000000E+00 0.  1.
          6    2    1    2  501    0  0.24445702287E+02 -0.49768853218E+02  0.67834351901E+03  0.70205998731E+03  0.17223171861E+03 0.  0.
         24    2    3    3    0    0 -0.30503728167E+02 -0.82631758819E+02  0.33825239793E+03  0.35596249945E+03  0.67350807784E+02 0.  0.
         -6    2    1    2    0  502 -0.24445702287E+02  0.49768853218E+02  0.14141154698E+04  0.14255657133E+04  0.17158237019E+03 0.  0.
        -24    2    5    5    0    0  0.43329096796E+02 -0.77606572805E+01  0.70938811506E+03  0.71523775907E+03  0.79974469581E+02 0.  0.
          5    1    3    3  501    0  0.54949430454E+02  0.32862905601E+02  0.34009112107E+03  0.34609748786E+03  0.47000000000E+01 0. -1.
        -11    1    4    4    0    0  0.61261334290E+01 -0.43916498675E+01  0.74535999820E+00  0.75744082855E+01  0.00000000000E+00 0.  1.
         12    1    4    4    0    0 -0.36629861596E+02 -0.78240108951E+02  0.33750703793E+03  0.34838809116E+03  0.00000000000E+00 0. -1.
         -5    1    5    5    0  502 -0.67774799083E+02  0.57529510498E+02  0.70472735478E+03  0.71032795422E+03  0.47000000000E+01 0.  1.
         11    1    6    6    0    0 -0.21639675387E+01 -0.31858401211E+02  0.42722433005E+03  0.42841599955E+03  0.00000000000E+00 0. -1.
        -12    1    6    6    0    0  0.45493064334E+02  0.24097743930E+02  0.28216378501E+03  0.28682175953E+03  0.00000000000E+00 0.  1.
</event>
<event>
12    1  0.8684423E-002  0.1839606E+03  0.7818608E-02  0.1164285E+00
         21   -1    0    0  501  502  0.00000000000E+00  0.00000000000E+00  0.15178130856E+03  0.15178130856E+03  0.00000000000E+00 0. -1.
         21   -1    0    0  502  503 -0.00000000000E+00 -0.00000000000E+00 -0.25608075767E+03  0.25608075767E+03  0.00000000000E+00 0. -1.
         -6    2    1    2    0  503  0.10832790533E+02  0.62647919416E+02 -0.12682059593E+03  0.22252807694E+03  0.17144436507E+03 0.  0.
        -24    2    3    3    0    0 -0.59774106514E+02  0.32486688317E+02 -0.87512509832E+02  0.13614376468E+03  0.79046546769E+02 0.  0.
          6    2    1    2  501    0 -0.10832790533E+02 -0.62647919416E+02  0.22521146821E+02  0.18533398930E+03  0.17262495294E+03 0.  0.
         24    2    5    5    0    0 -0.89509240758E+01 -0.71847538445E+02  0.71030703591E+02  0.13570092059E+03  0.90150935507E+02 0.  0.
          5    1    5    5  501    0 -0.18818664570E+01  0.91996190296E+01 -0.48509556770E+02  0.49633068711E+02  0.47000000000E+01 0. -1.
        -11    1    6    6    0    0 -0.18929497551E+02  0.73638032884E+01  0.48751146959E+02  0.52813121534E+02  0.00000000000E+00 0.  1.
         12    1    6    6    0    0  0.99785734756E+01 -0.79211341734E+02  0.22279556633E+02  0.82887799052E+02  0.00000000000E+00 0. -1.
         -5    1    3    3    0  503  0.70606897047E+02  0.30161231099E+02 -0.39308086099E+02  0.86384312261E+02  0.47000000000E+01 0.  1.
         11    1    4    4    0    0 -0.44635930061E+02  0.50291185238E+01 -0.18867633456E+01  0.44957959935E+02  0.00000000000E+00 0. -1.
        -12    1    4    4    0    0 -0.15138176453E+02  0.27457569793E+02 -0.85625746487E+02  0.91185804743E+02  0.00000000000E+00 0.  1.
</event>
<event>
12    1  0.8684423E-002  0.2034625E+03  0.7818608E-02  0.1147339E+00
         21   -1    0    0  503  502  0.00000000000E+00  0.00000000000E+00  0.28495146838E+03  0.28495146838E+03  0.00000000000E+00 0. -1.
         21   -1    0    0  501  503 -0.00000000000E+00 -0.00000000000E+00 -0.35773975978E+03  0.35773975978E+03  0.00000000000E+00 0.  1.
          6    2    1    2  501    0  0.10233774773E+03  0.14245273364E+02 -0.28509881393E+03  0.35025463322E+03  0.17527416229E+03 0.  0.
         24    2    3    3    0    0  0.65677417351E+02  0.38531359097E+02 -0.70254560740E+02  0.13090574010E+03  0.80015127967E+02 0.  0.
         -6    2    1    2    0  502 -0.10233774773E+03 -0.14245273364E+02  0.21231052253E+03  0.29243659494E+03  0.17253249451E+03 0.  0.
        -24    2    5    5    0    0 -0.11442922990E+03 -0.31978624872E+01  0.22940920663E+03  0.26829732763E+03  0.79060716840E+02 0.  0.
          5    1    3    3  501    0  0.36660330381E+02 -0.24286085733E+02 -0.21484425319E+03  0.21934889311E+03  0.47000000000E+01 0. -1.
        -11    1    4    4    0    0  0.28713792451E+02  0.47821106579E+02 -0.73934258705E+02  0.92615412981E+02  0.00000000000E+00 0.  1.
         12    1    4    4    0    0  0.36963624901E+02 -0.92897474820E+01  0.36796979651E+01  0.38290327123E+02  0.00000000000E+00 0. -1.
         -5    1    5    5    0  502  0.12091482171E+02 -0.11047410876E+02 -0.17098684104E+02  0.24139267309E+02  0.47000000000E+01 0.  1.
         13    1    6    6    0    0 -0.40477547928E+02 -0.29965439896E+02  0.43917488049E+02  0.66821442898E+02  0.00000000000E+00 0. -1.
        -14    1    6    6    0    0 -0.73951681975E+02  0.26767577409E+02  0.18549171858E+03  0.20147588474E+03  0.00000000000E+00 0.  1.
</event>
<event>
12    1  0.8684423E-002  0.2005591E+03  0.7818608E-02  0.1149468E+00
         21   -1    0    0  501  502  0.00000000000E+00  0.00000000000E+00  0.43773633772E+03  0.43773633772E+03  0.00000000000E+00 0.  1.
         21   -1    0    0  502  503 -0.00000000000E+00 -0.00000000000E+00 -0.10674225202E+03  0.10674225202E+03  0.00000000000E+00 0.  1.
         -6    2    1    2    0  503  0.10798285626E+01  0.10382445058E+03  0.62813759209E+02  0.21016543497E+03  0.17159038184E+03 0.  0.
        -24    2    3    3    0    0 -0.27087796117E+02  0.84594844095E+02  0.10203026053E+03  0.15798098497E+03  0.81595227818E+02 0.  0.
          6    2    1    2  501    0 -0.10798285626E+01 -0.10382445058E+03  0.26818032648E+03  0.33431315477E+03  0.17048142238E+03 0.  0.
         24    2    5    5    0    0  0.68891625189E+02 -0.42605538308E+02  0.18471306183E+03  0.20928262319E+03  0.55848126589E+02 0.  0.
          5    1    5    5  501    0 -0.69971453751E+02 -0.61218912270E+02  0.83467264657E+02  0.12503053159E+03  0.47000000000E+01 0. -1.
        -13    1    6    6    0    0  0.43767295962E+02 -0.53589668939E+02  0.14878241152E+03  0.16408423078E+03  0.00000000000E+00 0.  1.
         14    1    6    6    0    0  0.25124329227E+02  0.10984130631E+02  0.35930650301E+02  0.45198392404E+02  0.00000000000E+00 0. -1.
         -5    1    3    3    0  503  0.28167624679E+02  0.19229606483E+02 -0.39216501320E+02  0.52184449996E+02  0.47000000000E+01 0.  1.
         13    1    4    4    0    0  0.25939387287E+02  0.34187843328E+02  0.17926814317E+02  0.46508398337E+02  0.00000000000E+00 0. -1.
        -14    1    4    4    0    0 -0.53027183404E+02  0.50407000767E+02  0.84103446212E+02  0.11147258663E+03  0.00000000000E+00 0.  1.
</event>
<event>
12    1  0.8684423E-002  0.1850581E+03  0.7818608E-02  0.1163179E+00
         21   -1    0    0  501  502  0.00000000000E+00  0.00000000000E+00  0.16587457308E+04  0.16587457308E+04  0.00000000000E+00 0. -1.
         21   -1    0    0  502  503 -0.00000000000E+00 -0.00000000000E+00 -0.57681196079E+02  0.57681196079E+02  0.00000000000E+00 0. -1.
         -6    2    1    2    0  503  0.22258033468E+02  0.59403062682E+02  0.11264929965E+03  0.21664802647E+03  0.17384579014E+03 0.  0.
        -24    2    3    3    0    0 -0.41584758207E+02  0.10719471447E+02  0.20983385537E+02  0.94702448788E+02  0.81756052709E+02 0.  0.
          6    2    1    2  501    0 -0.22258033468E+02 -0.59403062682E+02  0.14884152351E+04  0.14997789004E+04  0.17301067664E+03 0.  0.
         24    2    5    5    0    0 -0.37927169706E+01  0.36769607754E+02  0.66578071822E+03  0.67132263194E+03  0.77741383142E+02 0.  0.
          5    1    5    5  501    0 -0.18465316497E+02 -0.96172670436E+02  0.82263451687E+03  0.82845626849E+03  0.47000000000E+01 0. -1.
        -13    1    6    6    0    0 -0.37516171558E+02  0.34045785244E+02  0.33384255623E+03  0.33766467238E+03  0.00000000000E+00 0.  1.
         14    1    6    6    0    0  0.33723454588E+02  0.27238225098E+01  0.33193816199E+03  0.33365795957E+03  0.00000000000E+00 0. -1.
         -5    1    3    3    0  503  0.63842791675E+02  0.48683591235E+02  0.91665914115E+02  0.12194557768E+03  0.47000000000E+01 0.  1.
         13    1    4    4    0    0  0.16798901777E+02 -0.11713344114E+01  0.30037865794E+02  0.34436151160E+02  0.00000000000E+00 0. -1.
        -14    1    4    4    0    0 -0.58383659984E+02  0.11890805859E+02 -0.90544802571E+01  0.60266297629E+02  0.00000000000E+00 0.  1.
</event>
<event>
12    1  0.8684423E-002  0.4197144E+03  0.7818608E-02  0.1037346E+00
         21   -1    0    0  501  502  0.00000000000E+00  0.00000000000E+00  0.25568860777E+03  0.25568860777E+03  0.00000000000E+00 0.  1.
         21   -1    0    0  502  503 -0.00000000000E+00 -0.00000000000E+00 -0.74017471532E+03  0.74017471532E+03  0.00000000000E+00 0. -1.
         -6    2    1    2    0  503 -0.38058752413E+03 -0.63147656943E+01 -0.37852305811E+03  0.56519015423E+03  0.17684305224E+03 0.  0.
        -24    2    3    3    0    0 -0.66790162380E+02  0.18440904476E+02 -0.99833813113E+02  0.14474822872E+03  0.78640108903E+02 0.  0.
          6    2    1    2  501    0  0.38058752413E+03  0.63147656943E+01 -0.10596304944E+03  0.43067316886E+03  0.17136064524E+03 0.  0.
         24    2    5    5    0    0  0.16860307555E+03  0.53668919143E+02 -0.17982002269E+02  0.19627483919E+03  0.83024756105E+02 0.  0.
          5    1    5    5  501    0  0.21198444858E+03 -0.47354153449E+02 -0.87981047172E+02  0.23439832967E+03  0.47000000000E+01 0. -1.
        -13    1    6    6    0    0  0.10865912979E+03  0.71039171635E+02 -0.28689965748E+02  0.13295294103E+03  0.00000000000E+00 0.  1.
         14    1    6    6    0    0  0.59943945761E+02 -0.17370252491E+02  0.10707963480E+02  0.63321898163E+02  0.00000000000E+00 0. -1.
         -5    1    3    3    0  503 -0.31379736175E+03 -0.24755670171E+02 -0.27868924500E+03  0.42044192551E+03  0.47000000000E+01 0.  1.
         13    1    4    4    0    0 -0.68047741541E+02  0.28657187134E+02 -0.10853556465E+03  0.13126956348E+03  0.00000000000E+00 0. -1.
        -14    1    4    4    0    0  0.12575791609E+01 -0.10216282658E+02  0.87017515385E+01  0.13478665235E+02  0.00000000000E+00 0.  1.
</event>
<event>
12    1  0.8684423E-002  0.3521514E+03  0.7818608E-02  0.1061784E+00
         21   -1    0    0  501  502  0.00000000000E+00  0.00000000000E+00  0.12008493125E+04  0.12008493125E+04  0.00000000000E+00 0. -1.
         21   -1    0    0  502  503 -0.00000000000E+00 -0.00000000000E+00 -0.12274197866E+03  0.12274197866E+03  0.00000000000E+00 0.  1.
         -6    2    1    2    0  503  0.23723494208E+02 -0.30616593307E+03  0.27421185132E+03  0.44594752956E+03  0.17139625717E+03 0.  0.
        -24    2    3    3    0    0  0.82355265962E+02 -0.19823517586E+03  0.16794421814E+03  0.28346173674E+03  0.77882738818E+02 0.  0.
          6    2    1    2  501    0 -0.23723494208E+02  0.30616593307E+03  0.80389548254E+03  0.87764376161E+03  0.17236659390E+03 0.  0.
         24    2    5    5    0    0  0.53532541586E+02  0.15380022692E+03  0.42215204348E+03  0.45939270453E+03  0.79429631484E+02 0.  0.
          5    1    5    5  501    0 -0.77256035794E+02  0.15236570615E+03  0.38174343907E+03  0.41825105708E+03  0.47000000000E+01 0. -1.
        -13    1    6    6    0    0  0.41931645429E+02  0.90363844248E+02  0.15263025013E+03  0.18226321760E+03  0.00000000000E+00 0.  1.
         14    1    6    6    0    0  0.11600896157E+02  0.63436382671E+02  0.26952179335E+03  0.27712948693E+03  0.00000000000E+00 0. -1.
         -5    1    3    3    0  503 -0.58631771754E+02 -0.10793075721E+03  0.10626763317E+03  0.16248579283E+03  0.47000000000E+01 0.  1.
         13    1    4    4    0    0  0.40504012242E+02 -0.11875274921E+03  0.14298707415E+03  0.19023168461E+03  0.00000000000E+00 0. -1.
        -14    1    4    4    0    0  0.41851253720E+02 -0.79482426650E+02  0.24957143987E+02  0.93230052130E+02  0.00000000000E+00 0.  1.
</event>
<event>
12    1  0.8684423E-002  0.2618976E+03  0.7818608E-02  0.1106571E+00
         21   -1    0    0  501  502  0.00000000000E+00  0.00000000000E+00  0.19988140064E+03  0.19988140064E+03  0.00000000000E+00 0. -1.
         21   -1    0    0  502  503 -0.00000000000E+00 -0.00000000000E+00 -0.12526612434E+04  0.12526612434E+04  0.00000000000E+00 0.  1.
         -6    2    1    2    0  503 -0.75307959461E+01 -0.19684351783E+03 -0.11479224454E+04  0.11774193320E+04  0.17258696212E+03 0.  0.
        -24    2    3    3    0    0 -0.37202897810E+02 -0.13136986197E+03 -0.47385166680E+03  0.49951023950E+03  0.79580028862E+02 0.  0.
          6    2    1    2  501    0  0.75307959461E+01  0.19684351783E+03  0.95142602645E+02  0.27512331196E+03  0.16684315553E+03 0.  0.
         24    2    5    5    0    0 -0.58424534394E+02  0.68050452015E+02  0.43371237371E+02  0.12136986106E+03  0.69320189723E+02 0.  0.
          5    1    5    5  501    0  0.65955330340E+02  0.12879306581E+03  0.51771365273E+02  0.15375345090E+03  0.47000000000E+01 0. -1.
        -13    1    6    6    0    0 -0.19829180559E+02  0.62093715593E+01 -0.16900054076E+02  0.26783661523E+02  0.00000000000E+00 0.  1.
         14    1    6    6    0    0 -0.38595353835E+02  0.61841080455E+02  0.60271291447E+02  0.94586199533E+02  0.00000000000E+00 0. -1.
         -5    1    3    3    0  503  0.29672101864E+02 -0.65473655862E+02 -0.67407077855E+03  0.67790909253E+03  0.47000000000E+01 0.  1.
         11    1    4    4    0    0  0.15757014924E+02 -0.16387358387E+02 -0.28174136434E+02  0.36202361774E+02  0.00000000000E+00 0. -1.
        -12    1    4    4    0    0 -0.52959912734E+02 -0.11498250358E+03 -0.44567753037E+03  0.46330787773E+03  0.00000000000E+00 0.  1.
</event>
<event>
12    1  0.8684423E-002  0.2452302E+03  0.7818608E-02  0.1116476E+00
         21   -1    0    0  501  502  0.00000000000E+00  0.00000000000E+00  0.15081556161E+03  0.15081556161E+03  0.00000000000E+00 0. -1.
         21   -1    0    0  502  503 -0.00000000000E+00 -0.00000000000E+00 -0.69737187627E+03  0.69737187627E+03  0.00000000000E+00 0.  1.
         -6    2    1    2    0  503 -0.10604110586E+03 -0.14006958524E+03 -0.55111637790E+03  0.60291483937E+03  0.17003775081E+03 0.  0.
        -24    2    3    3    0    0 -0.24164548788E+02 -0.57196624652E+02 -0.39671641180E+03  0.40943838673E+03  0.80003136463E+02 0.  0.
          6    2    1    2  501    0  0.10604110586E+03  0.14006958524E+03  0.45600632406E+01  0.24527259851E+03  0.17109543699E+03 0.  0.
         24    2    5    5    0    0  0.12098593060E+03  0.14530806031E+03  0.36992567011E+02  0.20887552846E+03  0.80675328223E+02 0.  0.
          5    1    5    5  501    0 -0.14944824732E+02 -0.52384750653E+01 -0.32432503770E+02  0.36397070048E+02  0.47000000000E+01 0. -1.
        -13    1    6    6    0    0  0.18392776700E+02  0.66307894123E+02 -0.13084197162E+02  0.70044466399E+02  0.00000000000E+00 0.  1.
         14    1    6    6    0    0  0.10259315390E+03  0.79000166184E+02  0.50076764173E+02  0.13883106206E+03  0.00000000000E+00 0. -1.
         -5    1    3    3    0  503 -0.81876557077E+02 -0.82872960590E+02 -0.15439996610E+03  0.19347645264E+03  0.47000000000E+01 0.  1.
         13    1    4    4    0    0 -0.65797538716E+01 -0.73345239577E+02 -0.24410350886E+03  0.25496929299E+03  0.00000000000E+00 0. -1.
        -14    1    4    4    0    0 -0.17584794916E+02  0.16148614925E+02 -0.15261290294E+03  0.15446909374E+03  0.00000000000E+00 0.  1.
</event>
<event>
12    1  0.8684423E-002  0.2551265E+03  0.7818608E-02  0.1111218E+00
         21   -1    0    0  503  502  0.00000000000E+00  0.00000000000E+00  0.11397973227E+04  0.11397973227E+04  0.00000000000E+00 0. -1.
         21   -1    0    0  501  503 -0.00000000000E+00 -0.00000000000E+00 -0.55780626416E+02  0.55780626416E+02  0.00000000000E+00 0. -1.
          6    2    1    2  501    0 -0.15682109673E+03  0.84449464180E+02  0.49405561962E+03  0.55281549093E+03  0.17259618580E+03 0.  0.
         24    2    3    3    0    0 -0.21118302124E+02 -0.71121166786E+01  0.13623068827E+03  0.15929351816E+03  0.79492512946E+02 0.  0.
         -6    2    1    2    0  502  0.15682109673E+03 -0.84449464180E+02  0.58996107669E+03  0.64276245822E+03  0.18266071635E+03 0.  0.
        -24    2    5    5    0    0  0.12047383918E+03  0.47965998251E+01  0.24572222519E+03  0.28525936738E+03  0.80352606869E+02 0.  0.
          5    1    3    3  501    0 -0.13570279461E+03  0.91561580859E+02  0.35782493135E+03  0.39352197277E+03  0.47000000000E+01 0. -1.
        -11    1    4    4    0    0  0.17979346144E+02  0.16011499781E+02  0.11761344521E+02  0.26794668088E+02  0.00000000000E+00 0.  1.
         12    1    4    4    0    0 -0.39097648269E+02 -0.23123616460E+02  0.12446934375E+03  0.13249885007E+03  0.00000000000E+00 0. -1.
         -5    1    5    5    0  502  0.36347257554E+02 -0.89246064005E+02  0.34423885150E+03  0.35750309083E+03  0.47000000000E+01 0.  1.
         13    1    6    6    0    0  0.97855023730E+02  0.13506328131E+02  0.24114464718E+03  0.26059310703E+03  0.00000000000E+00 0. -1.
        -14    1    6    6    0    0  0.22618815447E+02 -0.87097283057E+01  0.45775780147E+01  0.24666260354E+02  0.00000000000E+00 0.  1.
</event>
<event>
12    1  0.8684423E-002  0.2169147E+03  0.7818608E-02  0.1136484E+00
         21   -1    0    0  503  502  0.00000000000E+00  0.00000000000E+00  0.13704759520E+03  0.13704759520E+03  0.00000000000E+00 0.  1.
         21   -1    0    0  501  503 -0.00000000000E+00 -0.00000000000E+00 -0.62697290955E+03  0.62697290955E+03  0.00000000000E+00 0.  1.
          6    2    1    2  501    0 -0.10894362995E+03  0.63244229327E+02 -0.50250332153E+03  0.54674138829E+03  0.17477989150E+03 0.  0.
         24    2    3    3    0    0 -0.69560085409E+02 -0.32196812137E+02 -0.26427066805E+03  0.28705514845E+03  0.81770606390E+02 0.  0.
         -6    2    1    2    0  502  0.10894362995E+03 -0.63244229327E+02  0.12578007177E+02  0.21727911645E+03  0.17658839467E+03 0.  0.
        -24    2    5    5    0    0 -0.12046195434E+02 -0.61160378001E+01 -0.23045916770E+02  0.78739150846E+02  0.74069041127E+02 0.  0.
          5    1    3    3  501    0 -0.39383544538E+02  0.95441041464E+02 -0.23823265349E+03  0.25968623984E+03  0.47000000000E+01 0. -1.
        -11    1    4    4    0    0 -0.45948900151E+02 -0.28519668112E+02 -0.25618122038E+03  0.26182721510E+03  0.00000000000E+00 0.  1.
         12    1    4    4    0    0 -0.23611185258E+02 -0.36771440248E+01 -0.80894476680E+01  0.25227933349E+02  0.00000000000E+00 0. -1.
         -5    1    5    5    0  502  0.12098982538E+03 -0.57128191527E+02  0.35623923947E+02  0.13853996561E+03  0.47000000000E+01 0.  1.
         13    1    6    6    0    0  0.25501395023E+02  0.16533478303E+02 -0.30485207079E+01  0.30544566316E+02  0.00000000000E+00 0. -1.
        -14    1    6    6    0    0 -0.37547590457E+02 -0.22649516103E+02 -0.19997396062E+02  0.48194584531E+02  0.00000000000E+00 0.  1.
</event>
<event>
12    1  0.8684423E-002  0.3112305E+03  0.7818608E-02  0.1079918E+00
         21   -1    0    0  503  502  0.00000000000E+00  0.00000000000E+00  0.14658153052E+04  0.14658153052E+04  0.00000000000E+00 0.  1.
         21   -1    0    0  501  503 -0.00000000000E+00 -0.00000000000E+00 -0.11126957156E+03  0.11126957156E+03  0.00000000000E+00 0. -1.
          6    2    1    2  501    0  0.25746651131E+03  0.20864447715E+01  0.17404943183E+03  0.35659166563E+03  0.17484579944E+03 0.  0.
         24    2    3    3    0    0  0.11175300535E+03  0.38389075186E+02  0.14558086027E+03  0.20367712623E+03  0.79549541651E+02 0.  0.
         -6    2    1    2    0  502 -0.25746651131E+03 -0.20864447715E+01  0.11804963018E+04  0.12204932111E+04  0.17244941906E+03 0.  0.
        -24    2    5    5    0    0 -0.46541254773E+02  0.77292848288E+01  0.47863102708E+03  0.48753839242E+03  0.79876115119E+02 0.  0.
          5    1    3    3  501    0  0.14571350596E+03 -0.36302630415E+02  0.28468571568E+02  0.15291453940E+03  0.47000000000E+01 0. -1.
        -13    1    4    4    0    0  0.11034233606E+03  0.38477774171E+02  0.88524855142E+02  0.14660361595E+03  0.00000000000E+00 0.  1.
         14    1    4    4    0    0  0.14106692915E+01 -0.88698984638E-01  0.57056005124E+02  0.57073510283E+02  0.00000000000E+00 0. -1.
         -5    1    5    5    0  502 -0.21092525653E+03 -0.98157296004E+01  0.70186527473E+03  0.73295481870E+03  0.47000000000E+01 0.  1.
         13    1    6    6    0    0 -0.31802497388E+02 -0.42851055232E+00  0.54713243659E+02  0.63286029209E+02  0.00000000000E+00 0. -1.
        -14    1    6    6    0    0 -0.14738757385E+02  0.81577953812E+01  0.42391778342E+03  0.42425236321E+03  0.00000000000E+00 0.  1.
</event>
<event>
12    1  0.8684423E-002  0.1722293E+03  0.7818608E-02  0.1175969E+00
         21   -1    0    0  501  502  0.00000000000E+00  0.00000000000E+00  0.15659170461E+02  0.15659170461E+02  0.00000000000E+00 0. -1.
         21   -1    0    0  502  503 -0.00000000000E+00 -0.00000000000E+00 -0.19846948011E+04  0.19846948011E+04  0.00000000000E+00 0. -1.
         -6    2    1    2    0  503  0.49559579269E+00  0.69637848195E+01 -0.12229362040E+04  0.12350044106E+04  0.17208775464E+03 0.  0.
        -24    2    3    3    0    0  0.71503775818E+01 -0.56877716925E+02 -0.91589161816E+03  0.92128719536E+03  0.81402933128E+02 0.  0.
          6    2    1    2  501    0 -0.49559579269E+00 -0.69637848195E+01 -0.74609942669E+03  0.76534956098E+03  0.17043138232E+03 0.  0.
         24    2    5    5    0    0 -0.15089802330E+01  0.14463956380E+02 -0.73721039260E+03  0.74165821302E+03  0.79788839705E+02 0.  0.
          5    1    5    5  501    0  0.10133844403E+01 -0.21427741199E+02 -0.88890340917E+01  0.23691347957E+02  0.47000000000E+01 0. -1.
        -11    1    6    6    0    0 -0.14411369971E+02  0.33762147933E+02 -0.16751599333E+03  0.17149104419E+03  0.00000000000E+00 0.  1.
         12    1    6    6    0    0  0.12902389738E+02 -0.19298191553E+02 -0.56969439927E+03  0.57016716884E+03  0.00000000000E+00 0. -1.
         -5    1    3    3    0  503 -0.66547817891E+01  0.63841501744E+02 -0.30704458583E+03  0.31371721526E+03  0.47000000000E+01 0.  1.
         13    1    4    4    0    0  0.22552018713E+02  0.13921074679E+02 -0.20289064060E+03  0.20461427592E+03  0.00000000000E+00 0. -1.
        -14    1    4    4    0    0 -0.15401641131E+02 -0.70798791604E+02 -0.71300097757E+03  0.71667291944E+03  0.00000000000E+00 0.  1.
</event>
<event>
12    1  0.8684423E-002  0.1815006E+03  0.7818608E-02  0.1166491E+00
         21   -1    0    0  501  502  0.00000000000E+00  0.00000000000E+00  0.20794061407E+04  0.20794061407E+04  0.00000000000E+00 0. -1.
         21   -1    0    0  502  503 -0.00000000000E+00 -0.00000000000E+00 -0.45449244099E+02  0.45449244099E+02  0.00000000000E+00 0. -1.
         -6    2    1    2    0  503  0.54589552490E+02 -0.17687244202E+02  0.15824369528E+03  0.24038132554E+03  0.17160785742E+03 0.  0.
        -24    2    3    3    0    0  0.35464616142E+02 -0.60268091042E+02  0.16171682972E+03  0.19333832000E+03  0.79607733103E+02 0.  0.
          6    2    1    2  501    0 -0.54589552490E+02  0.17687244202E+02  0.18757132014E+04  0.18844740593E+04  0.17219061684E+03 0.  0.
         24    2    5    5    0    0  0.12977401184E+02  0.63539841878E+02  0.11530877046E+04  0.11572344478E+04  0.73311583261E+02 0.  0.
          5    1    5    5  501    0 -0.67566953675E+02 -0.45852597676E+02  0.72262549673E+03  0.72723961146E+03  0.47000000000E+01 0. -1.
        -13    1    6    6    0    0  0.12362976005E+02  0.18457166210E+02  0.75412633862E+02  0.78616636319E+02  0.00000000000E+00 0.  1.
         14    1    6    6    0    0  0.61442517899E+00  0.45082675668E+02  0.10776750708E+04  0.10786178115E+04  0.00000000000E+00 0. -1.
         -5    1    3    3    0  503  0.19124936348E+02  0.42580846839E+02 -0.34731344430E+01  0.47043005545E+02  0.47000000000E+01 0.  1.
         11    1    4    4    0    0 -0.14683269181E+02 -0.31591991358E+02  0.11143110579E+03  0.11674991927E+03  0.00000000000E+00 0. -1.
        -12    1    4    4    0    0  0.50147885323E+02 -0.28676099684E+02  0.50285723932E+02  0.76588400733E+02  0.00000000000E+00 0.  1.
</event>
<event>
12    1  0.8684423E-002  0.2013976E+03  0.7818608E-02  0.1151601E+00
         21   -1    0    0  503  502  0.00000000000E+00  0.00000000000E+00  0.54624169190E+02  0.54624169190E+02  0.00000000000E+00 0. -1.
         21   -1    0    0  501  503 -0.00000000000E+00 -0.00000000000E+00 -0.89109974698E+03  0.89109974698E+03  0.00000000000E+00 0. -1.
          6    2    1    2  501    0  0.69255139167E+02  0.21624797984E+02 -0.65336557611E+03  0.68370138673E+03  0.18787523515E+03 0.  0.
         24    2    3    3    0    0  0.11552408828E+03  0.10541955628E+02 -0.57387525300E+03  0.59094123088E+03  0.80136037690E+02 0.  0.
         -6    2    1    2    0  502 -0.69255139167E+02 -0.21624797984E+02 -0.18311000168E+03  0.26202252944E+03  0.17280806414E+03 0.  0.
        -24    2    5    5    0    0 -0.11405688690E+03 -0.10139877810E+02 -0.15263934686E+03  0.20643790210E+03  0.78778465609E+02 0.  0.
          5    1    3    3  501    0 -0.46268949112E+02  0.11082842356E+02 -0.79490323105E+02  0.92760155854E+02  0.47000000000E+01 0. -1.
        -11    1    4    4    0    0  0.36132778979E+01  0.24792246860E+02 -0.63884463185E+02  0.68621686936E+02  0.00000000000E+00 0.  1.
         12    1    4    4    0    0  0.11191081038E+03 -0.14250291232E+02 -0.50999078982E+03  0.52231954394E+03  0.00000000000E+00 0. -1.
         -5    1    5    5    0  502  0.44801747732E+02 -0.11484920174E+02 -0.30470654818E+02  0.55584627337E+02  0.47000000000E+01 0.  1.
         13    1    6    6    0    0 -0.69249875831E+02 -0.35676121181E+02 -0.52929139735E+02  0.94179747070E+02  0.00000000000E+00 0. -1.
        -14    1    6    6    0    0 -0.44807011067E+02  0.25536243371E+02 -0.99710207128E+02  0.11225815503E+03  0.00000000000E+00 0.  1.
</event>
<event>
12    1  0.8684423E-002  0.2930565E+03  0.7818608E-02  0.1088866E+00
         21   -1    0    0  503  502  0.00000000000E+00  0.00000000000E+00  0.35625805951E+03  0.35625805951E+03  0.00000000000E+00 0.  1.
         21   -1    0    0  501  503 -0.00000000000E+00 -0.00000000000E+00 -0.27478970056E+03  0.27478970056E+03  0.00000000000E+00 0.  1.
          6    2    1    2  501    0  0.20389046831E+03  0.11970976124E+03 -0.70813310519E+02  0.30149072721E+03  0.17314844395E+03 0.  0.
         24    2    3    3    0    0  0.56927028295E+02  0.24809755596E+02 -0.76684746279E+02  0.12638839276E+03  0.78976357150E+02 0.  0.
         -6    2    1    2    0  502 -0.20389046831E+03 -0.11970976124E+03  0.15228166947E+03  0.32955703286E+03  0.17180332083E+03 0.  0.
        -24    2    5    5    0    0 -0.56163754437E+02 -0.80582729878E+02  0.12234376684E+03  0.17376077299E+03  0.74678412401E+02 0.  0.
          5    1    3    3  501    0  0.14696344001E+03  0.94900005647E+02  0.58714357599E+01  0.17510233445E+03  0.47000000000E+01 0. -1.
        -11    1    4    4    0    0  0.62678062556E+02  0.43914866545E+02 -0.73637382818E+02  0.10620508075E+03  0.00000000000E+00 0.  1.
         12    1    4    4    0    0 -0.57510342611E+01 -0.19105110949E+02 -0.30473634614E+01  0.20183312005E+02  0.00000000000E+00 0. -1.
         -5    1    5    5    0  502 -0.14772671387E+03 -0.39127031365E+02  0.29937902626E+02  0.15579625986E+03  0.47000000000E+01 0.  1.
         11    1    6    6    0    0  0.15533204959E+02 -0.29629505581E+02  0.48477425355E+02  0.58900329595E+02  0.00000000000E+00 0. -1.
        -12    1    6    6    0    0 -0.71696959396E+02 -0.50953224297E+02  0.73866341489E+02  0.11486044340E+03  0.00000000000E+00 0.  1.
</event>
<event>
12    1  0.8684423E-002  0.1957110E+03  0.7818608E-02  0.1153567E+00
         21   -1    0    0  503  502  0.00000000000E+00  0.00000000000E+00  0.62387021149E+03  0.62387021149E+03  0.00000000000E+00 0.  1.
         21   -1    0    0  501  503 -0.00000000000E+00 -0.00000000000E+00 -0.74379354420E+02  0.74379354420E+02  0.00000000000E+00 0.  1.
          6    2    1    2  501    0 -0.46244570681E+02  0.78132626659E+02  0.12802328493E+03  0.23386479774E+03  0.17337679912E+03 0.  0.
         24    2    3    3    0    0 -0.47612555154E+02  0.11796487128E+03  0.12240539611E+03  0.19334159738E+03  0.78836704761E+02 0.  0.
         -6    2    1    2    0  502  0.46244570681E+02 -0.78132626659E+02  0.42146757214E+03  0.46438476817E+03  0.17255442873E+03 0.  0.
        -24    2    5    5    0    0  0.63067355254E+02 -0.10931830383E+03  0.38538598866E+03  0.41359576141E+03  0.81308737214E+02 0.  0.
          5    1    3    3  501    0  0.13679844730E+01 -0.39832244618E+02  0.56178888216E+01  0.40523200362E+02  0.47000000000E+01 0. -1.
        -11    1    4    4    0    0 -0.12436780705E+02  0.24501090472E+01  0.52087221459E+02  0.53607417285E+02  0.00000000000E+00 0.  1.
         12    1    4    4    0    0 -0.35175774449E+02  0.11551476223E+03  0.70318174649E+02  0.13973418010E+03  0.00000000000E+00 0. -1.
         -5    1    5    5    0  502 -0.16822784573E+02  0.31185677170E+02  0.36081583478E+02  0.50789006760E+02  0.47000000000E+01 0.  1.
         11    1    6    6    0    0 -0.13430312691E+02 -0.11865075281E+02  0.11229891031E+03  0.11371982487E+03  0.00000000000E+00 0. -1.
        -12    1    6    6    0    0  0.76497667944E+02 -0.97453228547E+02  0.27308707835E+03  0.29987593654E+03  0.00000000000E+00 0.  1.
</event>
<event>
12    1  0.8684423E-002  0.1917083E+03  0.7818608E-02  0.1157141E+00
         21   -1    0    0  503  502  0.00000000000E+00  0.00000000000E+00  0.26150169499E+03  0.26150169499E+03  0.00000000000E+00 0.  1.
         21   -1    0    0  501  503 -0.00000000000E+00 -0.00000000000E+00 -0.14414136562E+03  0.14414136562E+03  0.00000000000E+00 0.  1.
          6    2    1    2  501    0  0.64619860052E+02 -0.51246379051E+02  0.23543685640E+02  0.19221005978E+03  0.17201303517E+03 0.  0.
         24    2    3    3    0    0  0.10498989943E+03 -0.69608925096E+02  0.16736671399E+02  0.14709522164E+03  0.74085130932E+02 0.  0.
         -6    2    1    2    0  502 -0.64619860052E+02  0.51246379051E+02  0.93816643737E+02  0.21343300083E+03  0.17306116122E+03 0.  0.
        -24    2    5    5    0    0 -0.59236263893E+02  0.78752521328E+02  0.12073122817E+03  0.17429151612E+03  0.78042351065E+02 0.  0.
          5    1    3    3  501    0 -0.40370039381E+02  0.18362546046E+02  0.68070142409E+01  0.45114838133E+02  0.47000000000E+01 0. -1.
        -13    1    4    4    0    0  0.36455371233E+02  0.12769267095E+02  0.89687489232E+01  0.39654592813E+02  0.00000000000E+00 0.  1.
         14    1    4    4    0    0  0.68534528200E+02 -0.82378192191E+02  0.77679224754E+01  0.10744062883E+03  0.00000000000E+00 0. -1.
         -5    1    5    5    0  502 -0.53835961595E+01 -0.27506142277E+02 -0.26914584434E+02  0.39141484717E+02  0.47000000000E+01 0.  1.
         13    1    6    6    0    0 -0.64590582676E+01  0.46332946585E+02  0.10645262453E+02  0.47976900542E+02  0.00000000000E+00 0. -1.
        -14    1    6    6    0    0 -0.52777205625E+02  0.32419574743E+02  0.11008596572E+03  0.12631461558E+03  0.00000000000E+00 0.  1.
</event>
<event>
12    1  0.8684423E-002  0.2312044E+03  0.7818608E-02  0.1127578E+00
         21   -1    0    0  501  502  0.00000000000E+00  0.00000000000E+00  0.19780822466E+03  0.19780822466E+03  0.00000000000E+00 0. -1.
         21   -1    0    0  502  503 -0.00000000000E+00 -0.00000000000E+00 -0.28121959713E+03  0.28121959713E+03  0.00000000000E+00 0.  1.
         -6    2    1    2    0  503  0.15681352188E+03 -0.19756897550E+02 -0.11029073607E+03  0.25616309063E+03  0.16874438330E+03 0.  0.
        -24    2    3    3    0    0  0.22066455325E+02  0.32264794142E+02 -0.42572299070E+02  0.96567022194E+02  0.77361771797E+02 0.  0.
          6    2    1    2  501    0 -0.15681352188E+03  0.19756897550E+02  0.26879363605E+02  0.22286473116E+03  0.15480753394E+03 0.  0.
         24    2    5    5    0    0 -0.16684866042E+03 -0.11734925522E+02  0.10600718141E+02  0.18572279766E+03  0.80027485180E+02 0.  0.
          5    1    5    5  501    0  0.10035138545E+02  0.31491823072E+02  0.16278645464E+02  0.37141933500E+02  0.47000000000E+01 0. -1.
        -13    1    6    6    0    0 -0.98221464267E+02  0.19199929266E+02 -0.23933010061E+02  0.10290229491E+03  0.00000000000E+00 0.  1.
         14    1    6    6    0    0 -0.68627196156E+02 -0.30934854788E+02  0.34533728202E+02  0.82820502754E+02  0.00000000000E+00 0. -1.
         -5    1    3    3    0  503  0.13474706655E+03 -0.52021691692E+02 -0.67718436998E+02  0.15959606844E+03  0.47000000000E+01 0.  1.
         13    1    4    4    0    0 -0.27826656903E+02  0.10640536133E+02 -0.26478019693E+02  0.39857613707E+02  0.00000000000E+00 0. -1.
        -14    1    4    4    0    0  0.49893112228E+02  0.21624258008E+02 -0.16094279377E+02  0.56709408486E+02  0.00000000000E+00 0.  1.
</event>
<event>
12    1  0.8684423E-002  0.2736646E+03  0.7818608E-02  0.1099312E+00
         21   -1    0    0  503  502  0.00000000000E+00  0.00000000000E+00  0.10733068678E+03  0.10733068678E+03  0.00000000000E+00 0.  1.
         21   -1    0    0  501  503 -0.00000000000E+00 -0.00000000000E+00 -0.73226053186E+03  0.73226053186E+03  0.00000000000E+00 0.  1.
          6    2    1    2  501    0  0.55001883216E+02 -0.20339613005E+03 -0.21916128582E+03  0.35060519726E+03  0.17463431012E+03 0.  0.
         24    2    3    3    0    0  0.35503063385E+02 -0.18998755017E+03 -0.10419143268E+03  0.23313115282E+03  0.78348854743E+02 0.  0.
         -6    2    1    2    0  502 -0.55001883216E+02  0.20339613005E+03 -0.40576855926E+03  0.48898602138E+03  0.17338977057E+03 0.  0.
        -24    2    5    5    0    0 -0.56384473978E+02  0.17977606992E+03 -0.41531530409E+03  0.46304283085E+03  0.80144975943E+02 0.  0.
          5    1    3    3  501    0  0.19498819831E+02 -0.13408579884E+02 -0.11496985313E+03  0.11747404445E+03  0.47000000000E+01 0. -1.
        -11    1    4    4    0    0 -0.94833876033E+01 -0.13309497240E+03 -0.84638041852E+02  0.15801203893E+03  0.00000000000E+00 0.  1.
         12    1    4    4    0    0  0.44986450988E+02 -0.56892577765E+02 -0.19553390830E+02  0.75119113881E+02  0.00000000000E+00 0. -1.
         -5    1    5    5    0  502  0.13825907618E+01  0.23620060131E+02  0.95467448289E+01  0.25943190525E+02  0.47000000000E+01 0.  1.
         11    1    6    6    0    0  0.11865932142E+02  0.18516194077E+02 -0.99784234368E+02  0.10217897640E+03  0.00000000000E+00 0. -1.
        -12    1    6    6    0    0 -0.68250406120E+02  0.16125987585E+03 -0.31553106972E+03  0.36086385446E+03  0.00000000000E+00 0.  1.
</event>
<event>
12    1  0.8684423E-002  0.2455704E+03  0.7818608E-02  0.1116182E+00
         21   -1    0    0  503  502  0.00000000000E+00  0.00000000000E+00  0.66631304162E+03  0.66631304162E+03  0.00000000000E+00 0. -1.
         21   -1    0    0  501  503 -0.00000000000E+00 -0.00000000000E+00 -0.10666251293E+03  0.10666251293E+03  0.00000000000E+00 0.  1.
          6    2    1    2  501    0  0.20346682747E+02  0.17358227556E+03  0.12905619584E+03  0.27741727488E+03  0.17251101074E+03 0.  0.
         24    2    3    3    0    0  0.40660259462E+01  0.84031345243E+02 -0.43593639835E+01  0.11584304887E+03  0.79516088726E+02 0.  0.
         -6    2    1    2    0  502 -0.20346682747E+02 -0.17358227556E+03  0.43059433285E+03  0.49555827967E+03  0.17210966033E+03 0.  0.
        -24    2    5    5    0    0  0.43195307294E+02 -0.13688065804E+03  0.23612039171E+03  0.28764772917E+03  0.79913876117E+02 0.  0.
          5    1    3    3  501    0  0.16280656801E+02  0.89550930319E+02  0.13341555983E+03  0.16157422601E+03  0.47000000000E+01 0. -1.
        -11    1    4    4    0    0 -0.15605031618E+01  0.26301971641E+02 -0.39902115181E+02  0.47816395496E+02  0.00000000000E+00 0.  1.
         12    1    4    4    0    0  0.56265291080E+01  0.57729373602E+02  0.35542751197E+02  0.68026653372E+02  0.00000000000E+00 0. -1.
         -5    1    5    5    0  502 -0.63541990041E+02 -0.36701617521E+02  0.19447394114E+03  0.20791055050E+03  0.47000000000E+01 0.  1.
         13    1    6    6    0    0  0.42045220024E+02 -0.64409187143E+02  0.61163957742E+02  0.98271937205E+02  0.00000000000E+00 0. -1.
        -14    1    6    6    0    0  0.11500872692E+01 -0.72471470899E+02  0.17495643397E+03  0.18937579196E+03  0.00000000000E+00 0.  1.
</event>
<event>
12    1  0.8684423E-002  0.1935041E+03  0.7818608E-02  0.1155347E+00
         21   -1    0    0  501  502  0.00000000000E+00  0.00000000000E+00  0.29619687566E+03  0.29619687566E+03  0.00000000000E+00 0. -1.
         21   -1    0    0  502  503 -0.00000000000E+00 -0.00000000000E+00 -0.13064373453E+03  0.13064373453E+03  0.00000000000E+00 0.  1.
         -6    2    1    2    0  503  0.66049763833E+02 -0.58394738364E+02  0.44268757850E+02  0.19850330281E+03  0.17225365464E+03 0.  0.
        -24    2    3    3    0    0 -0.23291416704E+02  0.36742926934E+01  0.29614258102E+02  0.88634037236E+02  0.80143607074E+02 0.  0.
          6    2    1    2  501    0 -0.66049763833E+02  0.58394738364E+02  0.12128438328E+03  0.22833730738E+03  0.17220774531E+03 0.  0.
         24    2    5    5    0    0 -0.82039675497E+02  0.37874286306E+02  0.19936401641E+02  0.12359825254E+03  0.81939599714E+02 0.  0.
          5    1    5    5  501    0  0.15989911665E+02  0.20520452057E+02  0.10134798164E+03  0.10473905484E+03  0.47000000000E+01 0. -1.
        -13    1    6    6    0    0 -0.18913394159E+02 -0.30560648128E+01 -0.28338862244E+02  0.34207413290E+02  0.00000000000E+00 0.  1.
         14    1    6    6    0    0 -0.63126281338E+02  0.40930351119E+02  0.48275263885E+02  0.89390839248E+02  0.00000000000E+00 0. -1.
         -5    1    3    3    0  503  0.89341180537E+02 -0.62069031057E+02  0.14654499748E+02  0.10986926558E+03  0.47000000000E+01 0.  1.
         13    1    4    4    0    0 -0.22540185127E+02 -0.36151844843E+02  0.81141914866E+01  0.43368835983E+02  0.00000000000E+00 0. -1.
        -14    1    4    4    0    0 -0.75123157697E+00  0.39826137536E+02  0.21500066616E+02  0.45265201252E+02  0.00000000000E+00 0.  1.
</event>
<event>
12    1  0.8684423E-002  0.1816849E+03  0.7818608E-02  0.1166736E+00
         21   -1    0    0  503  502  0.00000000000E+00  0.00000000000E+00  0.15609085302E+03  0.15609085302E+03  0.00000000000E+00 0.  1.
         21   -1    0    0  501  503 -0.00000000000E+00 -0.00000000000E+00 -0.25586958127E+03  0.25586958127E+03  0.00000000000E+00 0.  1.
          6    2    1    2  501    0 -0.29469399739E+02  0.42077224184E+02 -0.13796976956E+03  0.22630493601E+03  0.17187009174E+03 0.  0.
         24    2    3    3    0    0 -0.26638302428E+02  0.96251428717E+02 -0.92100595668E+02  0.15510851291E+03  0.74847808041E+02 0.  0.
         -6    2    1    2    0  502  0.29469399739E+02 -0.42077224184E+02  0.38191041305E+02  0.18565549829E+03  0.17427125435E+03 0.  0.
        -24    2    5    5    0    0 -0.41708991764E+02  0.20605231870E+02  0.14982780293E+02  0.87899848358E+02  0.73059455662E+02 0.  0.
          5    1    3    3  501    0 -0.28310973116E+01 -0.54174204533E+02 -0.45869173889E+02  0.71196423099E+02  0.47000000000E+01 0. -1.
        -11    1    4    4    0    0 -0.46249444035E+02  0.93629841181E+02 -0.82665720355E+02  0.13318851135E+03  0.00000000000E+00 0.  1.
         12    1    4    4    0    0  0.19611141607E+02  0.26215875365E+01 -0.94348753123E+01  0.21920001563E+02  0.00000000000E+00 0. -1.
         -5    1    5    5    0  502  0.71178391503E+02 -0.62682456054E+02  0.23208261011E+02  0.97755649929E+02  0.47000000000E+01 0.  1.
         13    1    6    6    0    0 -0.19329859006E+02 -0.40418135023E+01 -0.27544253102E+02  0.33891969322E+02  0.00000000000E+00 0. -1.
        -14    1    6    6    0    0 -0.22379132758E+02  0.24647045372E+02  0.42527033395E+02  0.54007879036E+02  0.00000000000E+00 0.  1.
</event>
<event>
12    1  0.8684423E-002  0.2202783E+03  0.7818608E-02  0.1134111E+00
         21   -1    0    0  503  502  0.00000000000E+00  0.00000000000E+00  0.48863948574E+03  0.48863948574E+03  0.00000000000E+00 0.  1.
         21   -1    0    0  501  503 -0.00000000000E+00 -0.00000000000E+00 -0.99089302540E+02  0.99089302540E+02  0.00000000000E+00 0. -1.
          6    2    1    2  501    0  0.56982304086E+02 -0.12257007140E+03  0.22072145073E+03  0.31019378789E+03  0.17097316119E+03 0.  0.
         24    2    3    3    0    0  0.59990830848E+02 -0.11951512673E+03  0.24219491785E+03  0.28779772327E+03  0.79286732717E+02 0.  0.
         -6    2    1    2    0  502 -0.56982304086E+02  0.12257007140E+03  0.16882873247E+03  0.27753500040E+03  0.17393139497E+03 0.  0.
        -24    2    5    5    0    0  0.13797636771E+01  0.67430396042E+02  0.16731494302E+03  0.19709311883E+03  0.79389201225E+02 0.  0.
          5    1    3    3  501    0 -0.30085267620E+01 -0.30549446709E+01 -0.21473467117E+02  0.22396064615E+02  0.47000000000E+01 0. -1.
        -11    1    4    4    0    0  0.54388697402E+02 -0.89067921781E+02  0.23331400475E+03  0.25559078604E+03  0.00000000000E+00 0.  1.
         12    1    4    4    0    0  0.56021334465E+01 -0.30447204949E+02  0.88809130975E+01  0.32206937231E+02  0.00000000000E+00 0. -1.
         -5    1    5    5    0  502 -0.58362067764E+02  0.55139675358E+02  0.15137894468E+01  0.80441881571E+02  0.47000000000E+01 0.  1.
         13    1    6    6    0    0 -0.85715382250E+01  0.28146514136E+01 -0.66769096862E+01  0.11223843062E+02  0.00000000000E+00 0. -1.
        -14    1    6    6    0    0  0.99513019021E+01  0.64615744629E+02  0.17399185271E+03  0.18586927576E+03  0.00000000000E+00 0.  1.
</event>
<event>
12    1  0.8684423E-002  0.1997424E+03  0.7818608E-02  0.1150654E+00
         21   -1    0    0  503  502  0.00000000000E+00  0.00000000000E+00  0.87441564029E+03  0.87441564029E+03  0.00000000000E+00 0. -1.
         21   -1    0    0  501  503 -0.00000000000E+00 -0.00000000000E+00 -0.44893119830E+02  0.44893119830E+02  0.00000000000E+00 0. -1.
          6    2    1    2  501    0  0.81989597731E+02 -0.47049884542E+02  0.41119065019E+03  0.45713757953E+03  0.17595746658E+03 0.  0.
         24    2    3    3    0    0 -0.10228013799E+02 -0.66548882387E+02  0.18960973497E+03  0.21629636465E+03  0.79365608138E+02 0.  0.
         -6    2    1    2    0  502 -0.81989597731E+02  0.47049884542E+02  0.41833187027E+03  0.46217118058E+03  0.17223431920E+03 0.  0.
        -24    2    5    5    0    0 -0.58216182168E+02  0.41370570691E+01  0.16224532850E+03  0.20138565007E+03  0.10404996073E+03 0.  0.
          5    1    3    3  501    0  0.92217611530E+02  0.19498997845E+02  0.22158091522E+03  0.24084121488E+03  0.47000000000E+01 0. -1.
        -13    1    4    4    0    0 -0.25772273591E+02 -0.51818923416E+02  0.18572340637E+03  0.19453173156E+03  0.00000000000E+00 0.  1.
         14    1    4    4    0    0  0.15544259793E+02 -0.14729958971E+02  0.38863285980E+01  0.21764633095E+02  0.00000000000E+00 0. -1.
         -5    1    5    5    0  502 -0.23773415563E+02  0.42912827473E+02  0.25608654177E+03  0.26078553051E+03  0.47000000000E+01 0.  1.
         13    1    6    6    0    0 -0.61701752512E+02  0.36425450794E+02  0.15079143430E+03  0.16694902332E+03  0.00000000000E+00 0. -1.
        -14    1    6    6    0    0  0.34855703443E+01 -0.32288393725E+02  0.11453894198E+02  0.34436626755E+02  0.00000000000E+00 0.  1.
</event>
<event>
12    1  0.8684423E-002  0.2198329E+03  0.7818608E-02  0.1134068E+00
         21   -1    0    0  503  502  0.00000000000E+00  0.00000000000E+00  0.14309280301E+03  0.14309280301E+03  0.00000000000E+00 0.  1.
         21   -1    0    0  501  503 -0.00000000000E+00 -0.00000000000E+00 -0.38946968259E+03  0.38946968259E+03  0.00000000000E+00 0.  1.
          6    2    1    2  501    0 -0.12054733448E+03 -0.65622470609E+02 -0.22063275244E+03  0.31122731559E+03  0.17130575595E+03 0.  0.
         24    2    3    3    0    0 -0.52318477569E+02  0.27537340008E+02 -0.11622346164E+03  0.15547970811E+03  0.84678913607E+02 0.  0.
         -6    2    1    2    0  502  0.12054733448E+03  0.65622470609E+02 -0.25744127137E+02  0.22133517001E+03  0.17172224347E+03 0.  0.
        -24    2    5    5    0    0  0.30300654083E+02  0.43412256824E+02 -0.74873546849E+02  0.11610424870E+03  0.71213726676E+02 0.  0.
          5    1    3    3  501    0 -0.68228856911E+02 -0.93159810617E+02 -0.10440929080E+03  0.15574760748E+03  0.47000000000E+01 0. -1.
        -11    1    4    4    0    0 -0.47948125999E+02  0.23957571659E+02 -0.17195834890E+02  0.56291071798E+02  0.00000000000E+00 0.  1.
         12    1    4    4    0    0 -0.43703515699E+01  0.35797683487E+01 -0.99027626751E+02  0.99188636315E+02  0.00000000000E+00 0. -1.
         -5    1    5    5    0  502  0.90246680396E+02  0.22210213785E+02  0.49129419712E+02  0.10523092131E+03  0.47000000000E+01 0.  1.
         11    1    6    6    0    0 -0.55370904482E+01  0.34380093950E+02 -0.70827300599E+02  0.78925007068E+02  0.00000000000E+00 0. -1.
        -12    1    6    6    0    0  0.35837744532E+02  0.90321628742E+01 -0.40462462500E+01  0.37179241628E+02  0.00000000000E+00 0.  1.
</event>
<event>
12    1  0.8684423E-002  0.2264436E+03  0.7818608E-02  0.1129169E+00
         21   -1    0    0  503  502  0.00000000000E+00  0.00000000000E+00  0.82307486780E+02  0.82307486780E+02  0.00000000000E+00 0.  1.
         21   -1    0    0  501  503 -0.00000000000E+00 -0.00000000000E+00 -0.74069989638E+03  0.74069989638E+03  0.00000000000E+00 0.  1.
          6    2    1    2  501    0 -0.12979914533E+03  0.66536641849E+02 -0.49324195881E+03  0.54273723233E+03  0.17320834446E+03 0.  0.
         24    2    3    3    0    0 -0.14826262963E+03  0.49319346875E+02 -0.29822597098E+03  0.34603781441E+03  0.79932683661E+02 0.  0.
         -6    2    1    2    0  502  0.12979914533E+03 -0.66536641849E+02 -0.16515045079E+03  0.28027015083E+03  0.17321011291E+03 0.  0.
        -24    2    5    5    0    0  0.35885826523E+02 -0.95421002557E+02 -0.72702353729E+02  0.14527845334E+03  0.73669780045E+02 0.  0.
          5    1    3    3  501    0  0.18463484304E+02  0.17217294975E+02 -0.19501598783E+03  0.19669941792E+03  0.47000000000E+01 0. -1.
        -11    1    4    4    0    0 -0.62571834881E+02 -0.40104327508E+01 -0.17989742083E+03  0.19051089237E+03  0.00000000000E+00 0.  1.
         12    1    4    4    0    0 -0.85690794749E+02  0.53329779625E+02 -0.11832855015E+03  0.15552692204E+03  0.00000000000E+00 0. -1.
         -5    1    5    5    0  502  0.93913318803E+02  0.28884360708E+02 -0.92448097062E+02  0.13499169749E+03  0.47000000000E+01 0.  1.
         13    1    6    6    0    0  0.45702958441E+02 -0.44439826885E+02 -0.11083146316E+02  0.64703127869E+02  0.00000000000E+00 0. -1.
        -14    1    6    6    0    0 -0.98171319173E+01 -0.50981175672E+02 -0.61619207413E+02  0.80575325468E+02  0.00000000000E+00 0.  1.
</event>
<event>
12    1  0.8684423E-002  0.2295406E+03  0.7818608E-02  0.1127876E+00
         21   -1    0    0  501  502  0.00000000000E+00  0.00000000000E+00  0.65002324640E+03  0.65002324640E+03  0.00000000000E+00 0.  1.
         21   -1    0    0  502  503 -0.00000000000E+00 -0.00000000000E+00 -0.80676325376E+02  0.80676325376E+02  0.00000000000E+00 0. -1.
         -6    2    1    2    0  503  0.64262039141E+02  0.12852767535E+03  0.32990029450E+03  0.39900153968E+03  0.17239214413E+03 0.  0.
        -24    2    3    3    0    0 -0.26027947205E+02  0.82328060220E+02  0.14353512328E+03  0.18677347105E+03  0.82623449086E+02 0.  0.
          6    2    1    2  501    0 -0.64262039141E+02 -0.12852767535E+03  0.23944662652E+03  0.33169803209E+03  0.17899699588E+03 0.  0.
         24    2    5    5    0    0 -0.73222376872E+02 -0.36502412232E+02  0.20188506236E+03  0.23178858406E+03  0.79211279003E+02 0.  0.
          5    1    5    5  501    0  0.89603377302E+01 -0.92025263114E+02  0.37561564161E+02  0.99909448031E+02  0.47000000000E+01 0. -1.
        -13    1    6    6    0    0 -0.40914851012E+02 -0.42754976557E+00  0.24014914901E+02  0.47443903400E+02  0.00000000000E+00 0.  1.
         14    1    6    6    0    0 -0.32307525860E+02 -0.36074862467E+02  0.17787014746E+03  0.18434468066E+03  0.00000000000E+00 0. -1.
         -5    1    3    3    0  503  0.90289986346E+02  0.46199615127E+02  0.18636517122E+03  0.21222806863E+03  0.47000000000E+01 0.  1.
         13    1    4    4    0    0  0.92362508984E+01  0.40701477613E+02  0.10573902446E+02  0.43054918691E+02  0.00000000000E+00 0. -1.
        -14    1    4    4    0    0 -0.35264198103E+02  0.41626582606E+02  0.13296122083E+03  0.14371855236E+03  0.00000000000E+00 0.  1.
</event>
<event>
12    1  0.8684423E-002  0.2043036E+03  0.7818608E-02  0.1147033E+00
         21   -1    0    0  501  502  0.00000000000E+00  0.00000000000E+00  0.13601037611E+03  0.13601037611E+03  0.00000000000E+00 0.  1.
         21   -1    0    0  502  503 -0.00000000000E+00 -0.00000000000E+00 -0.59961341399E+03  0.59961341399E+03  0.00000000000E+00 0. -1.
         -6    2    1    2    0  503 -0.94930634481E+02  0.33188233067E+02 -0.49032595119E+03  0.52957996494E+03  0.17298010486E+03 0.  0.
        -24    2    3    3    0    0 -0.88423950739E+01 -0.36001895384E+02 -0.18551253795E+03  0.20533967483E+03  0.79844573398E+02 0.  0.
          6    2    1    2  501    0  0.94930634481E+02 -0.33188233067E+02  0.26722913312E+02  0.20604382516E+03  0.17783885856E+03 0.  0.
         24    2    5    5    0    0  0.21296126369E+02 -0.16311938740E+02  0.76940644958E+02  0.11521012730E+03  0.81448795219E+02 0.  0.
          5    1    5    5  501    0  0.73634508112E+02 -0.16876294327E+02 -0.50217731646E+02  0.90833697859E+02  0.47000000000E+01 0. -1.
        -11    1    6    6    0    0 -0.19724634337E+02  0.22041390162E+02  0.25473279203E+02  0.39035522711E+02  0.00000000000E+00 0.  1.
         12    1    6    6    0    0  0.41020760706E+02 -0.38353328902E+02  0.51467365755E+02  0.76174604590E+02  0.00000000000E+00 0. -1.
         -5    1    3    3    0  503 -0.86088239407E+02  0.69190128451E+02 -0.30481341324E+03  0.32424029011E+03  0.47000000000E+01 0.  1.
         11    1    4    4    0    0  0.16270751856E+02 -0.10832921488E+02 -0.16093315343E+03  0.16211591355E+03  0.00000000000E+00 0. -1.
        -12    1    4    4    0    0 -0.25113146930E+02 -0.25168973897E+02 -0.24579384520E+02  0.43223761279E+02  0.00000000000E+00 0.  1.
</event>
<event>
12    1  0.8684423E-002  0.2526360E+03  0.7818608E-02  0.1111659E+00
         21   -1    0    0  503  502  0.00000000000E+00  0.00000000000E+00  0.10761942489E+03  0.10761942489E+03  0.00000000000E+00 0. -1.
         21   -1    0    0  501  503 -0.00000000000E+00 -0.00000000000E+00 -0.90048616955E+03  0.90048616955E+03  0.00000000000E+00 0.  1.
          6    2    1    2  501    0  0.15578643276E+03  0.10153484173E+03 -0.69103858172E+03  0.73577119755E+03  0.17101519526E+03 0.  0.
         24    2    3    3    0    0  0.10571940687E+03  0.24587407111E+02 -0.55820045018E+03  0.57422964263E+03  0.79817330936E+02 0.  0.
         -6    2    1    2    0  502 -0.15578643276E+03 -0.10153484173E+03 -0.10182816294E+03  0.27233439688E+03  0.17093364865E+03 0.  0.
        -24    2    5    5    0    0 -0.15441116729E+03 -0.86379214896E+02 -0.13493989865E+03  0.23559121491E+03  0.77396814839E+02 0.  0.
          5    1    3    3  501    0  0.50067025891E+02  0.76947434624E+02 -0.13283813154E+03  0.16154155493E+03  0.47000000000E+01 0. -1.
        -13    1    4    4    0    0  0.34530376079E+02  0.18877990409E+02 -0.38322767299E+03  0.38524300739E+03  0.00000000000E+00 0.  1.
         14    1    4    4    0    0  0.71189030788E+02  0.57094167014E+01 -0.17497277718E+03  0.18898663524E+03  0.00000000000E+00 0. -1.
         -5    1    5    5    0  502 -0.13752654725E+01 -0.15155626838E+02  0.33111735710E+02  0.36743181975E+02  0.47000000000E+01 0.  1.
         11    1    6    6    0    0 -0.12036237614E+02  0.97328673817E+01 -0.31432493415E+02  0.35037142659E+02  0.00000000000E+00 0. -1.
        -12    1    6    6    0    0 -0.14237492967E+03 -0.96112082278E+02 -0.10350740523E+03  0.20055407225E+03  0.00000000000E+00 0.  1.
</event>
<event>
12    1  0.8684423E-002  0.1808850E+03  0.7818608E-02  0.1167094E+00
         21   -1    0    0  501  502  0.00000000000E+00  0.00000000000E+00  0.21283431005E+02  0.21283431005E+02  0.00000000000E+00 0. -1.
         21   -1    0    0  502  503 -0.00000000000E+00 -0.00000000000E+00 -0.15676483403E+04  0.15676483403E+04  0.00000000000E+00 0. -1.
         -6    2    1    2    0  503  0.49748086607E+02  0.24229115011E+02 -0.89389374723E+03  0.91201173155E+03  0.17221337060E+03 0.  0.
        -24    2    3    3    0    0  0.56235002380E+02  0.42092701583E+02 -0.88322603751E+03  0.88971648919E+03  0.81074205333E+02 0.  0.
          6    2    1    2  501    0 -0.49748086607E+02 -0.24229115011E+02 -0.65247116209E+03  0.67692003978E+03  0.17158146975E+03 0.  0.
         24    2    5    5    0    0 -0.95915248808E+02  0.33424868163E+01 -0.42633159795E+03  0.44442747525E+03  0.80908851023E+02 0.  0.
          5    1    5    5  501    0  0.46167162200E+02 -0.27571601827E+02 -0.22613956414E+03  0.23249256453E+03  0.47000000000E+01 0. -1.
        -11    1    6    6    0    0 -0.60009342671E+02  0.28829467575E+02 -0.14353074753E+03  0.15821926208E+03  0.00000000000E+00 0.  1.
         12    1    6    6    0    0 -0.35905906136E+02 -0.25486980758E+02 -0.28280085042E+03  0.28620821317E+03  0.00000000000E+00 0. -1.
         -5    1    3    3    0  503 -0.64869157728E+01 -0.17863586572E+02 -0.10667709717E+02  0.22295242364E+02  0.47000000000E+01 0.  1.
         13    1    4    4    0    0  0.73893120958E+02  0.29374892147E+02 -0.54255954442E+03  0.54835566638E+03  0.00000000000E+00 0. -1.
        -14    1    4    4    0    0 -0.17658118578E+02  0.12717809435E+02 -0.34066649310E+03  0.34136082281E+03  0.00000000000E+00 0.  1.
</event>
<event>
12    1  0.8684423E-002  0.2261658E+03  0.7818608E-02  0.1129580E+00
         21   -1    0    0  501  502  0.00000000000E+00  0.00000000000E+00  0.15936688950E+04  0.15936688950E+04  0.00000000000E+00 0. -1.
         21   -1    0    0  502  503 -0.00000000000E+00 -0.00000000000E+00 -0.82454639427E+02  0.82454639427E+02  0.00000000000E+00 0.  1.
         -6    2    1    2    0  503  0.41088204643E+02  0.13894756779E+03  0.98815528423E+02  0.24573157986E+03  0.17211866118E+03 0.  0.
        -24    2    3    3    0    0  0.19300754514E+02  0.12243023179E+03  0.13525648045E+03  0.19993258035E+03  0.79479811273E+02 0.  0.
          6    2    1    2  501    0 -0.41088204643E+02 -0.13894756779E+03  0.14123987271E+04  0.14303919545E+04  0.17365572860E+03 0.  0.
         24    2    5    5    0    0 -0.94151384605E+02 -0.11504130963E+03  0.93418599166E+03  0.94862777924E+03  0.71359725197E+02 0.  0.
          5    1    5    5  501    0  0.53063179962E+02 -0.23906258167E+02  0.47821273545E+03  0.48176417529E+03  0.47000000000E+01 0. -1.
        -11    1    6    6    0    0 -0.56790430850E+02 -0.10993282658E+03  0.78805605954E+03  0.79771093284E+03  0.00000000000E+00 0.  1.
         12    1    6    6    0    0 -0.37360953755E+02 -0.51084830505E+01  0.14612993212E+03  0.15091684640E+03  0.00000000000E+00 0. -1.
         -5    1    3    3    0  503  0.21787450129E+02  0.16517336007E+02 -0.36440952027E+02  0.45798999514E+02  0.47000000000E+01 0.  1.
         11    1    4    4    0    0  0.31036538882E+02  0.10837473847E+03  0.14119987156E+03  0.18068136155E+03  0.00000000000E+00 0. -1.
        -12    1    4    4    0    0 -0.11735784368E+02  0.14055493320E+02 -0.59433911098E+01  0.19251218795E+02  0.00000000000E+00 0.  1.
</event>
<event>
12    1  0.8684423E-002  0.1986482E+03  0.7818608E-02  0.1151049E+00
         21   -1    0    0  501  502  0.00000000000E+00  0.00000000000E+00  0.15894863798E+04  0.15894863798E+04  0.00000000000E+00 0. -1.
         21   -1    0    0  502  503 -0.00000000000E+00 -0.00000000000E+00 -0.58914112545E+02  0.58914112545E+02  0.00000000000E+00 0. -1.
         -6    2    1    2    0  503  0.23238543667E+02 -0.94580519774E+02  0.13809165188E+03  0.24193058256E+03  0.17313462341E+03 0.  0.
        -24    2    3    3    0    0  0.25821871894E+02 -0.11874635200E+03  0.58093208985E+02  0.15818990011E+03  0.82956364339E+02 0.  0.
          6    2    1    2  501    0 -0.23238543667E+02  0.94580519774E+02  0.13924806154E+04  0.14064699098E+04  0.17224934923E+03 0.  0.
         24    2    5    5    0    0 -0.22846309751E+02  0.15084349706E+02  0.30315105229E+03  0.31423331367E+03  0.78054618288E+02 0.  0.
          5    1    5    5  501    0 -0.39223391563E+00  0.79496170068E+02  0.10893295631E+04  0.10922365961E+04  0.47000000000E+01 0. -1.
        -11    1    6    6    0    0 -0.47762661044E+02  0.12253430667E+02  0.12580865630E+03  0.13512674182E+03  0.00000000000E+00 0.  1.
         12    1    6    6    0    0  0.24916351293E+02  0.28309190387E+01  0.17734239599E+03  0.17910657185E+03  0.00000000000E+00 0. -1.
         -5    1    3    3    0  503 -0.25833282271E+01  0.24165832224E+02  0.79998442895E+02  0.83740682452E+02  0.47000000000E+01 0.  1.
         11    1    4    4    0    0  0.20063649623E+02 -0.92678562283E+02  0.62928849549E+00  0.94827537915E+02  0.00000000000E+00 0. -1.
        -12    1    4    4    0    0  0.57582222710E+01 -0.26067789714E+02  0.57463920489E+02  0.63362362190E+02  0.00000000000E+00 0.  1.
</event>
<event>
12    1  0.8684423E-002  0.3629251E+03  0.7818608E-02  0.1057496E+00
         21   -1    0    0  501  502  0.00000000000E+00  0.00000000000E+00  0.92027300758E+03  0.92027300758E+03  0.00000000000E+00 0.  1.
         21   -1    0    0  502  503 -0.00000000000E+00 -0.00000000000E+00 -0.70893551761E+03  0.70893551761E+03  0.00000000000E+00 0. -1.
         -6    2    1    2    0  503 -0.92230892798E+01  0.31866001212E+03 -0.62222283565E+03  0.72033039196E+03  0.17345128330E+03 0.  0.
        -24    2    3    3    0    0  0.80140831559E+01  0.27441034733E+03 -0.39734061291E+03  0.49044072919E+03  0.85365578112E+02 0.  0.
          6    2    1    2  501    0  0.92230892798E+01 -0.31866001212E+03  0.83356032561E+03  0.90887813323E+03  0.17206793989E+03 0.  0.
         24    2    5    5    0    0  0.26740636586E+02 -0.20432004089E+03  0.69080821415E+03  0.72508273392E+03  0.77892499835E+02 0.  0.
          5    1    5    5  501    0 -0.17517547306E+02 -0.11433997122E+03  0.14275211146E+03  0.18379539931E+03  0.47000000000E+01 0. -1.
        -13    1    6    6    0    0 -0.11309378450E+02 -0.85289418126E+01  0.15784053269E+02  0.21208046278E+02  0.00000000000E+00 0.  1.
         14    1    6    6    0    0  0.38050015036E+02 -0.19579109908E+03  0.67502416089E+03  0.70387468764E+03  0.00000000000E+00 0. -1.
         -5    1    3    3    0  503 -0.17237172436E+02  0.44249664791E+02 -0.22488222273E+03  0.22988966277E+03  0.47000000000E+01 0.  1.
         13    1    4    4    0    0 -0.10002830613E+02  0.17687469182E+03 -0.18536504547E+03  0.25640770915E+03  0.00000000000E+00 0. -1.
        -14    1    4    4    0    0  0.18016913769E+02  0.97535655502E+02 -0.21197556744E+03  0.23403302004E+03  0.00000000000E+00 0.  1.
</event>
<event>
12    1  0.8684423E-002  0.2824944E+03  0.7818608E-02  0.1094919E+00
         21   -1    0    0  501  502  0.00000000000E+00  0.00000000000E+00  0.39214333483E+03  0.39214333483E+03  0.00000000000E+00 0.  1.
         21   -1    0    0  502  503 -0.00000000000E+00 -0.00000000000E+00 -0.71128422223E+03  0.71128422223E+03  0.00000000000E+00 0.  1.
         -6    2    1    2    0  503  0.34761216706E+02  0.22104228597E+03 -0.62747745812E+03  0.68813591567E+03  0.17243852127E+03 0.  0.
        -24    2    3    3    0    0  0.30335775712E+02  0.83476696315E+02 -0.15414213514E+03  0.19517314430E+03  0.80275402911E+02 0.  0.
          6    2    1    2  501    0 -0.34761216706E+02 -0.22104228597E+03  0.30833657072E+03  0.41529164139E+03  0.16531083507E+03 0.  0.
         24    2    5    5    0    0  0.12535994427E+02 -0.12588750029E+03  0.25762794144E+03  0.29745737430E+03  0.78127584279E+02 0.  0.
          5    1    5    5  501    0 -0.47297211132E+02 -0.95154785676E+02  0.50708629276E+02  0.11783426709E+03  0.47000000000E+01 0. -1.
        -13    1    6    6    0    0  0.24739516446E+01 -0.42225413628E+02  0.22978606562E+02  0.48136497093E+02  0.00000000000E+00 0.  1.
         14    1    6    6    0    0  0.10062042782E+02 -0.83662086664E+02  0.23464933488E+03  0.24932087721E+03  0.00000000000E+00 0. -1.
         -5    1    3    3    0  503  0.44254409939E+01  0.13756558965E+03 -0.47333532298E+03  0.49296277138E+03  0.47000000000E+01 0.  1.
         11    1    4    4    0    0  0.55030387190E+02  0.37334856704E+02 -0.74361109117E+02  0.99758756951E+02  0.00000000000E+00 0. -1.
        -12    1    4    4    0    0 -0.24694611478E+02  0.46141839611E+02 -0.79781026025E+02  0.95414387344E+02  0.00000000000E+00 0.  1.
</event>
<event>
12    1  0.8684423E-002  0.2873117E+03  0.7818608E-02  0.1091848E+00
         21   -1    0    0  503  502  0.00000000000E+00  0.00000000000E+00  0.27585924279E+03  0.27585924279E+03  0.00000000000E+00 0.  1.
         21   -1    0    0  501  503 -0.00000000000E+00 -0.00000000000E+00 -0.16528279905E+04  0.16528279905E+04  0.00000000000E+00 0. -1.
          6    2    1    2  501    0 -0.88920731458E+02 -0.21216779259E+03 -0.15615411269E+04  0.15877527217E+04  0.17212189149E+03 0.  0.
         24    2    3    3    0    0 -0.39577037507E+02 -0.27579471006E+02 -0.47879401681E+03  0.48826600371E+03  0.82662027125E+02 0.  0.
         -6    2    1    2    0  502  0.88920731458E+02  0.21216779259E+03  0.18457237921E+03  0.34093451158E+03  0.17101844732E+03 0.  0.
        -24    2    5    5    0    0 -0.19435689554E+01  0.46929398816E+02  0.92583258039E+02  0.13106756259E+03  0.80005627051E+02 0.  0.
          5    1    3    3  501    0 -0.49343693951E+02 -0.18458832158E+03 -0.10827471101E+04  0.10994867180E+04  0.47000000000E+01 0. -1.
        -11    1    4    4    0    0 -0.14519229594E+02  0.15278396188E+02 -0.34358219062E+03  0.34422806267E+03  0.00000000000E+00 0.  1.
         12    1    4    4    0    0 -0.25057807913E+02 -0.42857867195E+02 -0.13521182619E+03  0.14403794104E+03  0.00000000000E+00 0. -1.
         -5    1    5    5    0  502  0.90864300414E+02  0.16523839377E+03  0.91989121171E+02  0.20986694899E+03  0.47000000000E+01 0.  1.
         13    1    6    6    0    0 -0.21359230761E+02  0.63533947074E+02  0.70776444302E+02  0.97478634775E+02  0.00000000000E+00 0. -1.
        -14    1    6    6    0    0  0.19415661806E+02 -0.16604548258E+02  0.21806813737E+02  0.33588927812E+02  0.00000000000E+00 0.  1.
</event>
<event>
12    1  0.8684423E-002  0.2180218E+03  0.7818608E-02  0.1136542E+00
         21   -1    0    0  501  502  0.00000000000E+00  0.00000000000E+00  0.36880102168E+03  0.36880102168E+03  0.00000000000E+00 0.  1.
         21   -1    0    0  502  503 -0.00000000000E+00 -0.00000000000E+00 -0.14420261211E+03  0.14420261211E+03  0.00000000000E+00 0. -1.
         -6    2    1    2    0  503  0.10231359308E+03  0.70014526870E+02  0.20792105302E+02  0.21901100983E+03  0.17934158883E+03 0.  0.
        -24    2    3    3    0    0  0.13641102910E+03  0.83140005242E+02  0.31667640049E+02  0.18060162840E+03  0.78063303935E+02 0.  0.
          6    2    1    2  501    0 -0.10231359308E+03 -0.70014526870E+02  0.20380630427E+03  0.29399262396E+03  0.17182708745E+03 0.  0.
         24    2    5    5    0    0 -0.74108952947E+02 -0.25820025848E+02  0.32700693012E+02  0.11497341871E+03  0.77399877545E+02 0.  0.
          5    1    5    5  501    0 -0.28204640132E+02 -0.44194501022E+02  0.17110561126E+03  0.17901920526E+03  0.47000000000E+01 0. -1.
        -13    1    6    6    0    0 -0.56920241696E+01 -0.32062339020E+01  0.41832684667E+02  0.42339728169E+02  0.00000000000E+00 0.  1.
         14    1    6    6    0    0 -0.68416928778E+02 -0.22613791946E+02 -0.91319916551E+01  0.72633690538E+02  0.00000000000E+00 0. -1.
         -5    1    3    3    0  503 -0.34097436024E+02 -0.13125478372E+02 -0.10875534747E+02  0.38409381432E+02  0.47000000000E+01 0.  1.
         13    1    4    4    0    0  0.17174882848E+02  0.51303947915E+02  0.49399917647E+01  0.54327480994E+02  0.00000000000E+00 0. -1.
        -14    1    4    4    0    0  0.11923614626E+03  0.31836057327E+02  0.26727648285E+02  0.12627414740E+03  0.00000000000E+00 0.  1.
</event>
<event>
12    1  0.8684423E-002  0.1781429E+03  0.7818608E-02  0.1170046E+00
         21   -1    0    0  501  502  0.00000000000E+00  0.00000000000E+00  0.20541749799E+03  0.20541749799E+03  0.00000000000E+00 0.  1.
         21   -1    0    0  502  503 -0.00000000000E+00 -0.00000000000E+00 -0.22314792740E+03  0.22314792740E+03  0.00000000000E+00 0.  1.
         -6    2    1    2    0  503  0.16905047146E+02  0.33816971861E+02 -0.12900377912E+03  0.21852574940E+03  0.17228511230E+03 0.  0.
        -24    2    3    3    0    0  0.30888400742E+02 -0.22889268440E+02 -0.17327955680E+02  0.92411866708E+02  0.82229454274E+02 0.  0.
          6    2    1    2  501    0 -0.16905047146E+02 -0.33816971861E+02  0.11127334970E+03  0.21003967599E+03  0.17408486130E+03 0.  0.
         24    2    5    5    0    0 -0.24559962200E+02 -0.72280196088E+02  0.12579334860E+03  0.16795716525E+03  0.80981629516E+02 0.  0.
          5    1    5    5  501    0  0.76549150542E+01  0.38463224227E+02 -0.14519998893E+02  0.42082510741E+02  0.47000000000E+01 0. -1.
        -11    1    6    6    0    0 -0.36515776952E+02  0.82810641252E+00  0.33038479183E+02  0.49250673431E+02  0.00000000000E+00 0.  1.
         12    1    6    6    0    0  0.11955814752E+02 -0.73108302501E+02  0.92754869413E+02  0.11870649182E+03  0.00000000000E+00 0. -1.
         -5    1    3    3    0  503 -0.13983353597E+02  0.56706240301E+02 -0.11167582344E+03  0.12611388269E+03  0.47000000000E+01 0.  1.
         13    1    4    4    0    0 -0.23497474830E+01 -0.77445753511E+01  0.30883593103E+02  0.31926416704E+02  0.00000000000E+00 0. -1.
        -14    1    4    4    0    0  0.33238148226E+02 -0.15144693089E+02 -0.48211548783E+02  0.60485450004E+02  0.00000000000E+00 0.  1.
</event>
<event>
12    1  0.8684423E-002  0.2262583E+03  0.7818608E-02  0.1129421E+00
         21   -1    0    0  501  502  0.00000000000E+00  0.00000000000E+00  0.41129399311E+02  0.41129399311E+02  0.00000000000E+00 0.  1.
         21   -1    0    0  502  503 -0.00000000000E+00 -0.00000000000E+00 -0.12618044254E+04  0.12618044254E+04  0.00000000000E+00 0. -1.
         -6    2    1    2    0  503 -0.12961401088E+03  0.67594840479E+02 -0.69485597653E+03  0.73076511760E+03  0.17269619194E+03 0.  0.
        -24    2    3    3    0    0 -0.13971370612E+03  0.41870106772E+02 -0.38797115642E+03  0.42260258162E+03  0.82451793570E+02 0.  0.
          6    2    1    2  501    0  0.12961401088E+03 -0.67594840479E+02 -0.52581904955E+03  0.57216870709E+03  0.17182113442E+03 0.  0.
         24    2    5    5    0    0  0.47468746165E+02 -0.33164363562E+02 -0.10674157434E+03  0.14370479673E+03  0.76838454163E+02 0.  0.
          5    1    5    5  501    0  0.82145264718E+02 -0.34430476917E+02 -0.41907747521E+03  0.42846391036E+03  0.47000000000E+01 0. -1.
        -11    1    6    6    0    0  0.57968311600E+02 -0.15956576024E+01 -0.88375813401E+02  0.10570314880E+03  0.00000000000E+00 0.  1.
         12    1    6    6    0    0 -0.10499565435E+02 -0.31568705959E+02 -0.18365760936E+02  0.38001647925E+02  0.00000000000E+00 0. -1.
         -5    1    3    3    0  503  0.10099695236E+02  0.25724733707E+02 -0.30688482011E+03  0.30816253598E+03  0.47000000000E+01 0.  1.
         11    1    4    4    0    0  0.15316740830E+01 -0.10381139768E+02 -0.69858157369E+02  0.70641887286E+02  0.00000000000E+00 0. -1.
        -12    1    4    4    0    0 -0.14124538020E+03  0.52251246541E+02 -0.31811299905E+03  0.35196069434E+03  0.00000000000E+00 0.  1.
</event>
<event>
12    1  0.8684423E-002  0.1755002E+03  0.7818608E-02  0.1172327E+00
         21   -1    0    0  503  502  0.00000000000E+00  0.00000000000E+00  0.32863347167E+03  0.32863347167E+03  0.00000000000E+00 0.  1.
         21   -1    0    0  501  503 -0.00000000000E+00 -0.00000000000E+00 -0.17011093761E+03  0.17011093761E+03  0.00000000000E+00 0.  1.
          6    2    1    2  501    0  0.10520950144E+02 -0.32671631791E+02 -0.88118051043E+02  0.19603677383E+03  0.17171924720E+03 0.  0.
         24    2    3    3    0    0 -0.37224764018E+02 -0.59976118580E+02 -0.47366597695E+02  0.12742220417E+03  0.94921049732E+02 0.  0.
         -6    2    1    2    0  502 -0.10520950144E+02  0.32671631791E+02  0.24664058510E+03  0.30270763544E+03  0.17211103515E+03 0.  0.
        -24    2    5    5    0    0  0.34271019361E+00 -0.38584503180E+02  0.73420972248E+02  0.11503083836E+03  0.79703031756E+02 0.  0.
          5    1    3    3  501    0  0.47745714161E+02  0.27304486789E+02 -0.40751453349E+02  0.68614569660E+02  0.47000000000E+01 0. -1.
        -13    1    4    4    0    0  0.15970778468E+02 -0.50979871439E+02 -0.50320513783E+02  0.73390511404E+02  0.00000000000E+00 0.  1.
         14    1    4    4    0    0 -0.53195542485E+02 -0.89962471413E+01  0.29539160879E+01  0.54031692766E+02  0.00000000000E+00 0. -1.
         -5    1    5    5    0  502 -0.10863660337E+02  0.71256134971E+02  0.17321961286E+03  0.18767679709E+03  0.47000000000E+01 0.  1.
         11    1    6    6    0    0 -0.24025479939E+02  0.13867420908E+02  0.10748833456E+02  0.29750066716E+02  0.00000000000E+00 0. -1.
        -12    1    6    6    0    0  0.24368190132E+02 -0.52451924088E+02  0.62672138792E+02  0.85280771640E+02  0.00000000000E+00 0.  1.
</event>
<event>
12    1  0.8684423E-002  0.2273197E+03  0.7818608E-02  0.1129876E+00
         21   -1    0    0  503  502  0.00000000000E+00  0.00000000000E+00  0.71118543132E+03  0.71118543132E+03  0.00000000000E+00 0.  1.
         21   -1    0    0  501  503 -0.00000000000E+00 -0.00000000000E+00 -0.83316379540E+02  0.83316379540E+02  0.00000000000E+00 0.  1.
          6    2    1    2  501    0  0.10813076696E+03  0.83852694808E+02  0.16147331661E+03  0.27883308990E+03  0.18152333971E+03 0.  0.
         24    2    3    3    0    0  0.32742466091E+02  0.11819902304E+03  0.11548920865E+03  0.18396637100E+03  0.73910690787E+02 0.  0.
         -6    2    1    2    0  502 -0.10813076696E+03 -0.83852694808E+02  0.46639573517E+03  0.51566872095E+03  0.17223736760E+03 0.  0.
        -24    2    5    5    0    0 -0.61593325215E+02 -0.17358182184E+02  0.39098726394E+03  0.40478237722E+03  0.82961968080E+02 0.  0.
          5    1    3    3  501    0  0.75388300866E+02 -0.34346328229E+02  0.45984107961E+02  0.94866718902E+02  0.47000000000E+01 0. -1.
        -11    1    4    4    0    0  0.51759543559E+02  0.88498543876E+02  0.61734547036E+02  0.11967538141E+03  0.00000000000E+00 0.  1.
         12    1    4    4    0    0 -0.19017077468E+02  0.29700479161E+02  0.53754661610E+02  0.64290989591E+02  0.00000000000E+00 0. -1.
         -5    1    5    5    0  502 -0.46537441742E+02 -0.66494512624E+02  0.75408471231E+02  0.11088634373E+03  0.47000000000E+01 0.  1.
         13    1    6    6    0    0 -0.74104882504E+02  0.99181940263E+01  0.27889657348E+03  0.28874418242E+03  0.00000000000E+00 0. -1.
        -14    1    6    6    0    0  0.12511557289E+02 -0.27276376211E+02  0.11209069046E+03  0.11603819480E+03  0.00000000000E+00 0.  1.
</event>
<event>
12    1  0.8684423E-002  0.2058604E+03  0.7818608E-02  0.1145058E+00
         21   -1    0    0  501  502  0.00000000000E+00  0.00000000000E+00  0.29488314083E+03  0.29488314083E+03  0.00000000000E+00 0. -1.
         21   -1    0    0  502  503 -0.00000000000E+00 -0.00000000000E+00 -0.17797436332E+03  0.17797436332E+03  0.00000000000E+00 0. -1.
         -6    2    1    2    0  503  0.87943561665E+02 -0.67377045157E+02 -0.46067231078E+02  0.21095189607E+03  0.17350728061E+03 0.  0.
        -24    2    3    3    0    0 -0.11720777462E+02  0.92020128542E+01  0.10882849251E+02  0.72884034973E+02  0.70509520500E+02 0.  0.
          6    2    1    2  501    0 -0.87943561665E+02  0.67377045157E+02  0.16297600859E+03  0.26190560808E+03  0.17250980238E+03 0.  0.
         24    2    5    5    0    0  0.94131799438E+01 -0.44684258493E+01  0.38464594791E+02  0.88224034485E+02  0.78710738926E+02 0.  0.
          5    1    5    5  501    0 -0.97356741609E+02  0.71845471006E+02  0.12451141380E+03  0.17368157360E+03  0.47000000000E+01 0. -1.
        -13    1    6    6    0    0 -0.28009580077E+02 -0.66315370837E+01  0.41622758794E+02  0.50606006658E+02  0.00000000000E+00 0.  1.
         14    1    6    6    0    0  0.37422760021E+02  0.21631112344E+01 -0.31581640039E+01  0.37618027828E+02  0.00000000000E+00 0. -1.
         -5    1    3    3    0  503  0.99664339127E+02 -0.76579058011E+02 -0.56950080329E+02  0.13806786110E+03  0.47000000000E+01 0.  1.
         13    1    4    4    0    0 -0.36447237467E+02 -0.12359229148E+02  0.11177150520E+02  0.40075932402E+02  0.00000000000E+00 0. -1.
        -14    1    4    4    0    0  0.24726460005E+02  0.21561242002E+02 -0.29430126871E+00  0.32808102571E+02  0.00000000000E+00 0.  1.
</event>
<event>
12    1  0.8684423E-002  0.1771780E+03  0.7818608E-02  0.1170674E+00
         21   -1    0    0  501  502  0.00000000000E+00  0.00000000000E+00  0.58399042938E+03  0.58399042938E+03  0.00000000000E+00 0.  1.
         21   -1    0    0  502  503 -0.00000000000E+00 -0.00000000000E+00 -0.58979942499E+02  0.58979942499E+02  0.00000000000E+00 0.  1.
         -6    2    1    2    0  503 -0.39162980436E+02 -0.22499438321E+02  0.16526070264E+03  0.24195670932E+03  0.17085662289E+03 0.  0.
        -24    2    3    3    0    0 -0.30375298351E+02 -0.83121833304E+02  0.11234471737E+03  0.16087348277E+03  0.73668473702E+02 0.  0.
          6    2    1    2  501    0  0.39162980436E+02  0.22499438321E+02  0.35974978424E+03  0.40101366256E+03  0.17132450653E+03 0.  0.
         24    2    5    5    0    0 -0.41013640179E+02 -0.12148432174E+02  0.21649340302E+03  0.23316478355E+03  0.75277617216E+02 0.  0.
          5    1    5    5  501    0  0.80176620614E+02  0.34647870495E+02  0.14325638122E+03  0.16784887900E+03  0.47000000000E+01 0. -1.
        -11    1    6    6    0    0 -0.50314347576E+02  0.14697717337E+02  0.17641434092E+03  0.18403688801E+03  0.00000000000E+00 0.  1.
         12    1    6    6    0    0  0.93007073971E+01 -0.26846149511E+02  0.40079062102E+02  0.49127895544E+02  0.00000000000E+00 0. -1.
         -5    1    3    3    0  503 -0.87876820849E+01  0.60622394983E+02  0.52915985278E+02  0.81083226550E+02  0.47000000000E+01 0.  1.
         11    1    4    4    0    0  0.10593219286E+00 -0.22110710943E+02  0.84264882534E+02  0.87117536630E+02  0.00000000000E+00 0. -1.
        -12    1    4    4    0    0 -0.30481230544E+02 -0.61011122361E+02  0.28079834833E+02  0.73755946143E+02  0.00000000000E+00 0.  1.
</event>
<event>
12    1  0.8684423E-002  0.2449206E+03  0.7818608E-02  0.1116746E+00
         21   -1    0    0  501  502  0.00000000000E+00  0.00000000000E+00  0.16532973073E+04  0.16532973073E+04  0.00000000000E+00 0.  1.
         21   -1    0    0  502  503 -0.00000000000E+00 -0.00000000000E+00 -0.39155858441E+02  0.39155858441E+02  0.00000000000E+00 0. -1.
         -6    2    1    2    0  503 -0.14734050940E+03  0.89681316742E+02  0.57287422088E+03  0.62303366763E+03  0.17387959559E+03 0.  0.
        -24    2    3    3    0    0 -0.14868687910E+03  0.29611730351E+02  0.31310132334E+03  0.35636117895E+03  0.77305941509E+02 0.  0.
          6    2    1    2  501    0  0.14734050940E+03 -0.89681316742E+02  0.10412672279E+04  0.10694194981E+04  0.17224592479E+03 0.  0.
         24    2    5    5    0    0  0.14886459456E+03 -0.30993681938E+02  0.90481323094E+03  0.92079801709E+03  0.77850687568E+02 0.  0.
          5    1    5    5  501    0 -0.15240851640E+01 -0.58687634804E+02  0.13645399701E+03  0.14862148100E+03  0.47000000000E+01 0. -1.
        -11    1    6    6    0    0  0.69923583677E+02  0.23854697248E+02  0.34906139135E+03  0.35679435122E+03  0.00000000000E+00 0.  1.
         12    1    6    6    0    0  0.78941010888E+02 -0.54848379186E+02  0.55575183959E+03  0.56400366587E+03  0.00000000000E+00 0. -1.
         -5    1    3    3    0  503  0.13463696999E+01  0.60069586392E+02  0.25977289754E+03  0.26667248868E+03  0.47000000000E+01 0.  1.
         13    1    4    4    0    0 -0.12116466192E+03  0.27975118831E+02  0.30207137474E+03  0.32666588131E+03  0.00000000000E+00 0. -1.
        -14    1    4    4    0    0 -0.27522217180E+02  0.16366115196E+01  0.11029948596E+02  0.29695297638E+02  0.00000000000E+00 0.  1.
</event>
<event>
12    1  0.8684423E-002  0.3475153E+03  0.7818608E-02  0.1063814E+00
         21   -1    0    0  501  502  0.00000000000E+00  0.00000000000E+00  0.11312730554E+03  0.11312730554E+03  0.00000000000E+00 0. -1.
         21   -1    0    0  502  503 -0.00000000000E+00 -0.00000000000E+00 -0.15395037699E+04  0.15395037699E+04  0.00000000000E+00 0.  1.
         -6    2    1    2    0  503 -0.19877328860E+03  0.22623527264E+03 -0.11720119597E+04  0.12219708954E+04  0.17002240102E+03 0.  0.
        -24    2    3    3    0    0 -0.91009864725E+02  0.20141242309E+03 -0.80435807595E+03  0.83801699508E+03  0.80192331626E+02 0.  0.
          6    2    1    2  501    0  0.19877328860E+03 -0.22623527264E+03 -0.25436450467E+03  0.43066017999E+03  0.17341761890E+03 0.  0.
         24    2    5    5    0    0  0.10241574870E+03 -0.13153408590E+03 -0.23155052382E+03  0.29356292258E+03  0.69089384863E+02 0.  0.
          5    1    5    5  501    0  0.96357539903E+02 -0.94701186737E+02 -0.22813980856E+02  0.13709725741E+03  0.47000000000E+01 0. -1.
        -11    1    6    6    0    0  0.85144958106E+02 -0.53718312806E+02 -0.13328316536E+03  0.16703210227E+03  0.00000000000E+00 0.  1.
         12    1    6    6    0    0  0.17270790591E+02 -0.77815773097E+02 -0.98267358461E+02  0.12653082031E+03  0.00000000000E+00 0. -1.
         -5    1    3    3    0  503 -0.10776342387E+03  0.24822849553E+02 -0.36765388371E+03  0.38395390035E+03  0.47000000000E+01 0.  1.
         13    1    4    4    0    0 -0.27417084541E+02  0.11834823888E+03 -0.31525761160E+03  0.33785405702E+03  0.00000000000E+00 0. -1.
        -14    1    4    4    0    0 -0.63592780184E+02  0.83064184211E+02 -0.48910046434E+03  0.50016293806E+03  0.00000000000E+00 0.  1.
</event>
<event>
12    1  0.8684423E-002  0.1855625E+03  0.7818608E-02  0.1163845E+00
         21   -1    0    0  501  502  0.00000000000E+00  0.00000000000E+00  0.50842487845E+03  0.50842487845E+03  0.00000000000E+00 0. -1.
         21   -1    0    0  502  503 -0.00000000000E+00 -0.00000000000E+00 -0.14922280063E+03  0.14922280063E+03  0.00000000000E+00 0. -1.
         -6    2    1    2    0  503  0.44784296739E+02  0.40177358099E+02 -0.65180005278E+02  0.19667704199E+03  0.17553795151E+03 0.  0.
        -24    2    3    3    0    0 -0.17896845280E+02 -0.33188995572E+02 -0.42354660565E+02  0.97406533897E+02  0.79197910808E+02 0.  0.
          6    2    1    2  501    0 -0.44784296739E+02 -0.40177358099E+02  0.42438208309E+03  0.46097063709E+03  0.16962877842E+03 0.  0.
         24    2    5    5    0    0 -0.93538903219E+02 -0.11818112608E+02  0.29102736637E+03  0.31610232127E+03  0.79589919777E+02 0.  0.
          5    1    5    5  501    0  0.48754606480E+02 -0.28359245491E+02  0.13335471672E+03  0.14486831582E+03  0.47000000000E+01 0. -1.
        -13    1    6    6    0    0 -0.43169812154E+02  0.29527219936E+02  0.82974774465E+02  0.98083141243E+02  0.00000000000E+00 0.  1.
         14    1    6    6    0    0 -0.50369091065E+02 -0.41345332544E+02  0.20805259191E+03  0.21801918002E+03  0.00000000000E+00 0. -1.
         -5    1    3    3    0  503  0.62681142019E+02  0.73366353671E+02 -0.22825344713E+02  0.99270508093E+02  0.47000000000E+01 0.  1.
         13    1    4    4    0    0  0.17155486639E+02 -0.41087107081E+01 -0.48351137603E+02  0.51468677203E+02  0.00000000000E+00 0. -1.
        -14    1    4    4    0    0 -0.35052331920E+02 -0.29080284864E+02  0.59964770387E+01  0.45937856694E+02  0.00000000000E+00 0.  1.
</event>
<event>
12    1  0.8684423E-002  0.2817577E+03  0.7818608E-02  0.1094774E+00
         21   -1    0    0  503  502  0.00000000000E+00  0.00000000000E+00  0.55362206953E+03  0.55362206953E+03  0.00000000000E+00 0.  1.
         21   -1    0    0  501  503 -0.00000000000E+00 -0.00000000000E+00 -0.19164974089E+03  0.19164974089E+03  0.00000000000E+00 0.  1.
          6    2    1    2  501    0  0.69640941092E+02  0.21104820598E+03 -0.62196766542E+01  0.28182638005E+03  0.17319416327E+03 0.  0.
         24    2    3    3    0    0  0.28309246503E+02  0.98866595128E+02  0.72083527955E+02  0.13883510534E+03  0.59187282436E+02 0.  0.
         -6    2    1    2    0  502 -0.69640941092E+02 -0.21104820598E+03  0.36819200530E+03  0.46344543037E+03  0.17269947377E+03 0.  0.
        -24    2    5    5    0    0 -0.94544305785E+02 -0.12151808971E+03  0.16729497864E+03  0.24204641362E+03  0.83027613414E+02 0.  0.
          5    1    3    3  501    0  0.41331694589E+02  0.11218161085E+03 -0.78303204609E+02  0.14299127471E+03  0.47000000000E+01 0. -1.
        -13    1    4    4    0    0  0.31987475062E+02  0.30922101704E+02  0.76857397767E+01  0.45149147617E+02  0.00000000000E+00 0.  1.
         14    1    4    4    0    0 -0.36782285588E+01  0.67944493424E+02  0.64397788178E+02  0.93685957722E+02  0.00000000000E+00 0. -1.
         -5    1    5    5    0  502  0.24903364693E+02 -0.89530116278E+02  0.20089702667E+03  0.22139901675E+03  0.47000000000E+01 0.  1.
         13    1    6    6    0    0 -0.17276328899E+02 -0.14988202516E+02 -0.67507732063E+01  0.23847236607E+02  0.00000000000E+00 0. -1.
        -14    1    6    6    0    0 -0.77267976886E+02 -0.10652988719E+03  0.17404575184E+03  0.21819917702E+03  0.00000000000E+00 0.  1.
</event>
<event>
12    1  0.8684423E-002  0.1740868E+03  0.7818608E-02  0.1175860E+00
         21   -1    0    0  501  502  0.00000000000E+00  0.00000000000E+00  0.15575494199E+03  0.15575494199E+03  0.00000000000E+00 0.  1.
         21   -1    0    0  502  503 -0.00000000000E+00 -0.00000000000E+00 -0.27185735960E+03  0.27185735960E+03  0.00000000000E+00 0.  1.
         -6    2    1    2    0  503 -0.13318340801E+02  0.53768201643E+01 -0.17775759931E+03  0.24292993130E+03  0.16495726421E+03 0.  0.
        -24    2    3    3    0    0 -0.71718965982E+02  0.12774369368E+01 -0.10876872425E+03  0.15232643884E+03  0.78914299519E+02 0.  0.
          6    2    1    2  501    0  0.13318340801E+02 -0.53768201643E+01  0.61655181705E+02  0.18468237029E+03  0.17349330842E+03 0.  0.
         24    2    5    5    0    0  0.29132163825E+02  0.55137572982E+02  0.66859312468E+02  0.12174397379E+03  0.80390251694E+02 0.  0.
          5    1    5    5  501    0 -0.15813823025E+02 -0.60514393147E+02 -0.52041307627E+01  0.62938396497E+02  0.47000000000E+01 0. -1.
        -11    1    6    6    0    0  0.51392891001E+02  0.16669749181E+02  0.51715221534E+02  0.74790199369E+02  0.00000000000E+00 0.  1.
         12    1    6    6    0    0 -0.22260727176E+02  0.38467823801E+02  0.15144090933E+02  0.46953774423E+02  0.00000000000E+00 0. -1.
         -5    1    3    3    0  503  0.58400625181E+02  0.40993832275E+01 -0.68988875063E+02  0.90603492465E+02  0.47000000000E+01 0.  1.
         11    1    4    4    0    0  0.34352759136E+01  0.48086474148E+01  0.10068485099E+02  0.11674699257E+02  0.00000000000E+00 0. -1.
        -12    1    4    4    0    0 -0.75154241895E+02 -0.35312104780E+01 -0.11883720935E+03  0.14065173958E+03  0.00000000000E+00 0.  1.
</event>
<event>
12    1  0.8684423E-002  0.1834108E+03  0.7818608E-02  0.1165722E+00
         21   -1    0    0  501  502  0.00000000000E+00  0.00000000000E+00  0.62643673235E+03  0.62643673235E+03  0.00000000000E+00 0. -1.
         21   -1    0    0  502  503 -0.00000000000E+00 -0.00000000000E+00 -0.52645182041E+02  0.52645182041E+02  0.00000000000E+00 0. -1.
         -6    2    1    2    0  503 -0.78910076865E+01  0.64547406761E+02  0.31174791175E+03  0.35922822275E+03  0.16622129772E+03 0.  0.
        -24    2    3    3    0    0  0.19964207001E+00  0.30952602648E+02  0.57849454293E+02  0.10294598346E+03  0.79329771713E+02 0.  0.
          6    2    1    2  501    0  0.78910076865E+01 -0.64547406761E+02  0.26204363856E+03  0.31985369164E+03  0.17149600528E+03 0.  0.
         24    2    5    5    0    0  0.52944633161E+02  0.57671127679E+01  0.17422107914E+03  0.19857363241E+03  0.79007020583E+02 0.  0.
          5    1    5    5  501    0 -0.45053625475E+02 -0.70314519529E+02  0.87822559421E+02  0.12128005924E+03  0.47000000000E+01 0. -1.
        -11    1    6    6    0    0  0.68993896850E+02 -0.24817700883E+01  0.95685723385E+02  0.11799184143E+03  0.00000000000E+00 0.  1.
         12    1    6    6    0    0 -0.16049263688E+02  0.82488828562E+01  0.78535355750E+02  0.80581790971E+02  0.00000000000E+00 0. -1.
         -5    1    3    3    0  503 -0.80906497565E+01  0.33594804113E+02  0.25389845746E+03  0.25628223930E+03  0.47000000000E+01 0.  1.
         13    1    4    4    0    0 -0.19881594468E+02  0.42243424883E+02  0.71166559296E+01  0.47227444733E+02  0.00000000000E+00 0. -1.
        -14    1    4    4    0    0  0.20081236538E+02 -0.11290822235E+02  0.50732798363E+02  0.55718538723E+02  0.00000000000E+00 0.  1.
</event>
<event>
12    1  0.8684423E-002  0.1844203E+03  0.7818608E-02  0.1163948E+00
         21   -1    0    0  503  502  0.00000000000E+00  0.00000000000E+00  0.15941698057E+03  0.15941698057E+03  0.00000000000E+00 0. -1.
         21   -1    0    0  501  503 -0.00000000000E+00 -0.00000000000E+00 -0.32374515610E+03  0.32374515610E+03  0.00000000000E+00 0. -1.
          6    2    1    2  501    0  0.22082519290E+02  0.58537975440E+02 -0.22412468756E+03  0.28928981462E+03  0.17187899534E+03 0.  0.
         24    2    3    3    0    0  0.12542411171E+02  0.10391350556E+03 -0.19204639169E+03  0.23271190848E+03  0.79483879323E+02 0.  0.
         -6    2    1    2    0  502 -0.22082519290E+02 -0.58537975440E+02  0.59796512029E+02  0.19387232205E+03  0.17348349253E+03 0.  0.
        -24    2    5    5    0    0  0.34450939433E+02 -0.83101918741E+02  0.29430791115E+02  0.12499862408E+03  0.81643667425E+02 0.  0.
          5    1    3    3  501    0  0.95401081182E+01 -0.45375530120E+02 -0.32078295868E+02  0.56577906133E+02  0.47000000000E+01 0. -1.
        -13    1    4    4    0    0  0.34354417218E+02  0.11294642391E+02 -0.48692225946E+02  0.60652516821E+02  0.00000000000E+00 0.  1.
         14    1    4    4    0    0 -0.21812006047E+02  0.92618863169E+02 -0.14335416574E+03  0.17205939166E+03  0.00000000000E+00 0. -1.
         -5    1    5    5    0  502 -0.56533458722E+02  0.24563943301E+02  0.30365720914E+02  0.68873697971E+02  0.47000000000E+01 0.  1.
         11    1    6    6    0    0  0.31709121005E+02 -0.53909525613E+02 -0.21579584981E+02  0.66161800117E+02  0.00000000000E+00 0. -1.
        -12    1    6    6    0    0  0.27418184274E+01 -0.29192393128E+02  0.51010376096E+02  0.58836823965E+02  0.00000000000E+00 0.  1.
</event>
<event>
12    1  0.8684423E-002  0.2746304E+03  0.7818608E-02  0.1098808E+00
         21   -1    0    0  503  502  0.00000000000E+00  0.00000000000E+00  0.27068656930E+03  0.27068656930E+03  0.00000000000E+00 0.  1.
         21   -1    0    0  501  503 -0.00000000000E+00 -0.00000000000E+00 -0.40022054210E+03  0.40022054210E+03  0.00000000000E+00 0. -1.
          6    2    1    2  501    0  0.11749376157E+02 -0.21325194616E+03 -0.25039616120E+03  0.37085791378E+03  0.17094710962E+03 0.  0.
         24    2    3    3    0    0  0.34019430459E+02 -0.13385437300E+03 -0.72135527949E+02  0.17439195411E+03  0.78324354106E+02 0.  0.
         -6    2    1    2    0  502 -0.11749376157E+02  0.21325194616E+03  0.12086218840E+03  0.30004919762E+03  0.17264823204E+03 0.  0.
        -24    2    5    5    0    0  0.97761641913E+01  0.30599687943E+02  0.13122781601E+02  0.86847260252E+02  0.79613597632E+02 0.  0.
          5    1    3    3  501    0 -0.22270054302E+02 -0.79397573164E+02 -0.17826063325E+03  0.19646595967E+03  0.47000000000E+01 0. -1.
        -13    1    4    4    0    0  0.23618703127E+02 -0.11782038927E+03 -0.88495248070E+02  0.14923436667E+03  0.00000000000E+00 0.  1.
         14    1    4    4    0    0  0.10400727332E+02 -0.16033983730E+02  0.16359720121E+02  0.25157587438E+02  0.00000000000E+00 0. -1.
         -5    1    5    5    0  502 -0.21525540348E+02  0.18265225822E+03  0.10773940680E+03  0.21320193737E+03  0.47000000000E+01 0.  1.
         13    1    6    6    0    0 -0.34058612859E+02  0.22617188144E+02  0.10517683274E+02  0.42215494441E+02  0.00000000000E+00 0. -1.
        -14    1    6    6    0    0  0.43834777051E+02  0.79824997984E+01  0.26050983268E+01  0.44631765811E+02  0.00000000000E+00 0.  1.
</event>
<event>
12    1  0.8684423E-002  0.2661930E+03  0.7818608E-02  0.1103752E+00
         21   -1    0    0  503  502  0.00000000000E+00  0.00000000000E+00  0.57495271035E+03  0.57495271035E+03  0.00000000000E+00 0. -1.
         21   -1    0    0  501  503 -0.00000000000E+00 -0.00000000000E+00 -0.14563915782E+03  0.14563915782E+03  0.00000000000E+00 0. -1.
          6    2    1    2  501    0 -0.12895576250E+03  0.15432890997E+03  0.71301573596E+02  0.27557690991E+03  0.17438955743E+03 0.  0.
         24    2    3    3    0    0 -0.77508695723E+02  0.17702387923E+03  0.43748875615E+02  0.21278277423E+03  0.77572502604E+02 0.  0.
         -6    2    1    2    0  502  0.12895576250E+03 -0.15432890997E+03  0.35801197894E+03  0.44501495827E+03  0.17151890533E+03 0.  0.
        -24    2    5    5    0    0  0.69949407970E+02 -0.57204322752E+02  0.28486031576E+03  0.30978111951E+03  0.81570143416E+02 0.  0.
          5    1    3    3  501    0 -0.51447066781E+02 -0.22694969255E+02  0.27552697981E+02  0.62794135681E+02  0.47000000000E+01 0. -1.
        -11    1    4    4    0    0 -0.28729382471E+02  0.13786783958E+03  0.87378241851E+01  0.14110020616E+03  0.00000000000E+00 0.  1.
         12    1    4    4    0    0 -0.48779313252E+02  0.39156039653E+02  0.35011051430E+02  0.71682568069E+02  0.00000000000E+00 0. -1.
         -5    1    5    5    0  502  0.59006354534E+02 -0.97124587223E+02  0.73151663180E+02  0.13523383876E+03  0.47000000000E+01 0.  1.
         13    1    6    6    0    0  0.85572779517E+02 -0.40429057239E+02  0.19100558639E+03  0.21316740674E+03  0.00000000000E+00 0. -1.
        -14    1    6    6    0    0 -0.15623371547E+02 -0.16775265512E+02  0.93854729369E+02  0.96613712776E+02  0.00000000000E+00 0.  1.
</event>
<event>
12    1  0.8684423E-002  0.1723637E+03  0.7818608E-02  0.1175916E+00
         21   -1    0    0  501  502  0.00000000000E+00  0.00000000000E+00  0.52783341488E+03  0.52783341488E+03  0.00000000000E+00 0. -1.
         21   -1    0    0  502  503 -0.00000000000E+00 -0.00000000000E+00 -0.10189416435E+03  0.10189416435E+03  0.00000000000E+00 0. -1.
         -6    2    1    2    0  503  0.10412419444E+02  0.19972355387E+01  0.15034842682E+01  0.17237027483E+03  0.17203733243E+03 0.  0.
        -24    2    3    3    0    0  0.71472770226E+02  0.56038942829E-01  0.19073291181E+02  0.10862921430E+03  0.79549706095E+02 0.  0.
          6    2    1    2  501    0 -0.10412419444E+02 -0.19972355387E+01  0.42443576626E+03  0.45735730441E+03  0.17005168857E+03 0.  0.
         24    2    5    5    0    0 -0.33974552340E+02  0.58587841504E+02  0.24251076450E+03  0.26410999671E+03  0.79723359718E+02 0.  0.
          5    1    5    5  501    0  0.23562132896E+02 -0.60585077043E+02  0.18192500176E+03  0.19324730770E+03  0.47000000000E+01 0. -1.
        -11    1    6    6    0    0  0.65871984371E+01  0.52337889405E+02  0.19153624813E+03  0.19866751168E+03  0.00000000000E+00 0.  1.
         12    1    6    6    0    0 -0.40561750777E+02  0.62499520992E+01  0.50974516372E+02  0.65442485029E+02  0.00000000000E+00 0. -1.
         -5    1    3    3    0  503 -0.61060350781E+02  0.19411965959E+01 -0.17569806913E+02  0.63741060524E+02  0.47000000000E+01 0.  1.
         11    1    4    4    0    0  0.86839540968E+02  0.31616837636E+01  0.41678835851E+01  0.86996973357E+02  0.00000000000E+00 0. -1.
        -12    1    4    4    0    0 -0.15366770742E+02 -0.31056448208E+01  0.14905407596E+02  0.21632240947E+02  0.00000000000E+00 0.  1.
</event>
<event>
12    1  0.8684423E-002  0.1759423E+03  0.7818608E-02  0.1172155E+00
         21   -1    0    0  503  502  0.00000000000E+00  0.00000000000E+00  0.10464276237E+03  0.10464276237E+03  0.00000000000E+00 0. -1.
         21   -1    0    0  501  503 -0.00000000000E+00 -0.00000000000E+00 -0.39396598991E+03  0.39396598991E+03  0.00000000000E+00 0. -1.
          6    2    1    2  501    0  0.27922715085E+02 -0.25593270164E+02 -0.27018925900E+03  0.32162903888E+03  0.17031825938E+03 0.  0.
         24    2    3    3    0    0  0.45252920328E+02 -0.32594279596E+01 -0.59724002636E+02  0.10922176345E+03  0.79397647640E+02 0.  0.
         -6    2    1    2    0  502 -0.27922715085E+02  0.25593270164E+02 -0.19133968535E+02  0.17697971340E+03  0.17181681148E+03 0.  0.
        -24    2    5    5    0    0 -0.72110241377E+02  0.31958737456E+02 -0.46596768130E+02  0.12435508024E+03  0.84093277791E+02 0.  0.
          5    1    3    3  501    0 -0.17330205243E+02 -0.22333842204E+02 -0.21046525636E+03  0.21240727543E+03  0.47000000000E+01 0. -1.
        -13    1    4    4    0    0  0.16343295766E+02 -0.37056728002E+02 -0.48814346476E+02  0.63428265218E+02  0.00000000000E+00 0.  1.
         14    1    4    4    0    0  0.28909624563E+02  0.33797300042E+02 -0.10909656159E+02  0.45793498229E+02  0.00000000000E+00 0. -1.
         -5    1    5    5    0  502  0.44187526292E+02 -0.63654672921E+01  0.27462799596E+02  0.52624633160E+02  0.47000000000E+01 0.  1.
         13    1    6    6    0    0  0.95567199501E+01 -0.16217292509E+02 -0.27141901701E+00  0.18825651139E+02  0.00000000000E+00 0. -1.
        -14    1    6    6    0    0 -0.81666961327E+02  0.48176029965E+02 -0.46325349113E+02  0.10552942910E+03  0.00000000000E+00 0.  1.
</event>
<event>
12    1  0.8684423E-002  0.2565082E+03  0.7818608E-02  0.1109295E+00
         21   -1    0    0  501  502  0.00000000000E+00  0.00000000000E+00  0.20114631442E+04  0.20114631442E+04  0.00000000000E+00 0.  1.
         21   -1    0    0  502  503 -0.00000000000E+00 -0.00000000000E+00 -0.48951918880E+02  0.48951918880E+02  0.00000000000E+00 0.  1.
         -6    2    1    2    0  503 -0.16345213077E+03 -0.97898819432E+02  0.15754932399E+04  0.15962378882E+04  0.17174303217E+03 0.  0.
        -24    2    3    3    0    0 -0.11526968967E+03  0.63529758127E+01  0.94601822464E+03  0.95635440726E+03  0.79597796915E+02 0.  0.
          6    2    1    2  501    0  0.16345213077E+03  0.97898819432E+02  0.38701798547E+03  0.46417717486E+03  0.17139647219E+03 0.  0.
         24    2    5    5    0    0  0.86677609098E+02  0.12129614448E+03  0.21057363142E+03  0.27027910350E+03  0.80521903580E+02 0.  0.
          5    1    5    5  501    0  0.76774521669E+02 -0.23397325052E+02  0.17644435405E+03  0.19389807135E+03  0.47000000000E+01 0. -1.
        -11    1    6    6    0    0  0.82035400678E+02  0.11291909214E+03  0.13526339365E+03  0.19436232658E+03  0.00000000000E+00 0.  1.
         12    1    6    6    0    0  0.46422084208E+01  0.83770523465E+01  0.75310237769E+02  0.75916776920E+02  0.00000000000E+00 0. -1.
         -5    1    3    3    0  503 -0.48182441096E+02 -0.10425179524E+03  0.62947501522E+03  0.63988348097E+03  0.47000000000E+01 0.  1.
         13    1    4    4    0    0 -0.61943682174E+01 -0.13598840299E+02  0.33652669363E+03  0.33685829986E+03  0.00000000000E+00 0. -1.
        -14    1    4    4    0    0 -0.10907532145E+03  0.19951816112E+02  0.60949153100E+03  0.61949610740E+03  0.00000000000E+00 0.  1.
</event>
<event>
12    1  0.8684423E-002  0.2391590E+03  0.7818608E-02  0.1120374E+00
         21   -1    0    0  503  502  0.00000000000E+00  0.00000000000E+00  0.19838606646E+03  0.19838606646E+03  0.00000000000E+00 0. -1.
         21   -1    0    0  501  503 -0.00000000000E+00 -0.00000000000E+00 -0.36912298428E+03  0.36912298428E+03  0.00000000000E+00 0. -1.
          6    2    1    2  501    0  0.45946615562E+01  0.16634894413E+03 -0.21826995984E+03  0.32378819289E+03  0.17176709919E+03 0.  0.
         24    2    3    3    0    0  0.31199537990E+02  0.91690437666E+02 -0.44969280304E+02  0.13316571897E+03  0.79563339603E+02 0.  0.
         -6    2    1    2    0  502 -0.45946615562E+01 -0.16634894413E+03  0.47533042010E+02  0.24372085784E+03  0.17160240190E+03 0.  0.
        -24    2    5    5    0    0  0.11775930022E+02 -0.10282444138E+03  0.96422088146E+02  0.16177216933E+03  0.78495078906E+02 0.  0.
          5    1    3    3  501    0 -0.26604876434E+02  0.74658506460E+02 -0.17330067953E+03  0.19062247392E+03  0.47000000000E+01 0. -1.
        -13    1    4    4    0    0  0.31807400182E+02  0.29037818677E+02 -0.54847413642E+02  0.69736248845E+02  0.00000000000E+00 0.  1.
         14    1    4    4    0    0 -0.60786219153E+00  0.62652618989E+02  0.98781333381E+01  0.63429470130E+02  0.00000000000E+00 0. -1.
         -5    1    5    5    0  502 -0.16370591578E+02 -0.63524502743E+02 -0.48889046135E+02  0.81948688516E+02  0.47000000000E+01 0.  1.
         13    1    6    6    0    0 -0.30915785736E+02 -0.30600825135E+02  0.18498828305E+02  0.47269471705E+02  0.00000000000E+00 0. -1.
        -14    1    6    6    0    0  0.42691715757E+02 -0.72223616248E+02  0.77923259841E+02  0.11450269762E+03  0.00000000000E+00 0.  1.
</event>
<event>
12    1  0.8684423E-002  0.1772487E+03  0.7818608E-02  0.1170611E+00
         21   -1    0    0  503  502  0.00000000000E+00  0.00000000000E+00  0.99480011203E+03  0.99480011203E+03  0.00000000000E+00 0.  1.
         21   -1    0    0  501  503 -0.00000000000E+00 -0.00000000000E+00 -0.33085902911E+02  0.33085902911E+02  0.00000000000E+00 0.  1.
          6    2    1    2  501    0  0.47817017177E+02 -0.94327117629E+01  0.36881800812E+03  0.40919899716E+03  0.17041611714E+03 0.  0.
         24    2    3    3    0    0  0.47293057670E+02  0.23086611515E+02  0.36323628058E+03  0.37586693148E+03  0.81029190523E+02 0.  0.
         -6    2    1    2    0  502 -0.47817017177E+02  0.94327117629E+01  0.59289620101E+03  0.61868701779E+03  0.16991844405E+03 0.  0.
        -24    2    5    5    0    0 -0.94518724473E+01 -0.34911512136E+02  0.22286445880E+03  0.24400865604E+03  0.92539211433E+02 0.  0.
          5    1    3    3  501    0  0.52395950682E+00 -0.32519323278E+02  0.55817275394E+01  0.33332065678E+02  0.47000000000E+01 0. -1.
        -11    1    4    4    0    0  0.14040963648E+02 -0.98859713314E+01  0.10697484910E+02  0.20231590958E+02  0.00000000000E+00 0.  1.
         12    1    4    4    0    0  0.33252094023E+02  0.32972582846E+02  0.35253879567E+03  0.35563534052E+03  0.00000000000E+00 0. -1.
         -5    1    5    5    0  502 -0.38365144730E+02  0.44344223899E+02  0.37003174221E+03  0.37467836175E+03  0.47000000000E+01 0.  1.
         13    1    6    6    0    0 -0.26813733443E+01  0.12849783230E+02 -0.26510576444E+01  0.13391594331E+02  0.00000000000E+00 0. -1.
        -14    1    6    6    0    0 -0.67704991030E+01 -0.47761295366E+02  0.22551551644E+03  0.23061706171E+03  0.00000000000E+00 0.  1.
</event>
<event>
12    1  0.8684423E-002  0.1985968E+03  0.7818608E-02  0.1152058E+00
         21   -1    0    0  503  502  0.00000000000E+00  0.00000000000E+00  0.15690070248E+02  0.15690070248E+02  0.00000000000E+00 0.  1.
         21   -1    0    0  501  503 -0.00000000000E+00 -0.00000000000E+00 -0.25054780845E+04  0.25054780845E+04  0.00000000000E+00 0.  1.
          6    2    1    2  501    0  0.88438723228E+02 -0.16820939170E+01 -0.14521571399E+04  0.14656742680E+04  0.17781018975E+03 0.  0.
         24    2    3    3    0    0  0.77828301360E+02  0.63616441376E+02 -0.10853979677E+04  0.10929667953E+04  0.79896002933E+02 0.  0.
         -6    2    1    2    0  502 -0.88438723228E+02  0.16820939170E+01 -0.10376308743E+04  0.10554938868E+04  0.17194556243E+03 0.  0.
        -24    2    5    5    0    0 -0.56590691106E+02 -0.56007855107E+01 -0.28894951621E+03  0.30608531765E+03  0.83441738005E+02 0.  0.
          5    1    3    3  501    0  0.10610421868E+02 -0.65298535293E+02 -0.36675917221E+03  0.37270747264E+03  0.47000000000E+01 0. -1.
        -11    1    4    4    0    0  0.61228407132E+02  0.61508081993E+00 -0.62292838013E+03  0.62593055760E+03  0.00000000000E+00 0.  1.
         12    1    4    4    0    0  0.16599894228E+02  0.63001360556E+02 -0.46246958757E+03  0.46703623773E+03  0.00000000000E+00 0. -1.
         -5    1    5    5    0  502 -0.31848032121E+02  0.72828794277E+01 -0.74868135812E+03  0.74940856912E+03  0.47000000000E+01 0.  1.
         11    1    6    6    0    0  0.19086957767E+02  0.12224950936E+02 -0.79619781709E+02  0.82783277428E+02  0.00000000000E+00 0. -1.
        -12    1    6    6    0    0 -0.75677648874E+02 -0.17825736447E+02 -0.20932973451E+03  0.22330204022E+03  0.00000000000E+00 0.  1.
</event>
<event>
12    1  0.8684423E-002  0.1799116E+03  0.7818608E-02  0.1167989E+00
         21   -1    0    0  503  502  0.00000000000E+00  0.00000000000E+00  0.54797122959E+03  0.54797122959E+03  0.00000000000E+00 0. -1.
         21   -1    0    0  501  503 -0.00000000000E+00 -0.00000000000E+00 -0.24897518208E+03  0.24897518208E+03  0.00000000000E+00 0. -1.
          6    2    1    2  501    0  0.17551827501E+02  0.49661974432E+02 -0.19859490322E+03  0.26797034134E+03  0.17202845666E+03 0.  0.
         24    2    3    3    0    0  0.46438129752E+02 -0.26484612272E+02 -0.97413877285E+02  0.13799953256E+03  0.81831979800E+02 0.  0.
         -6    2    1    2    0  502 -0.17551827501E+02 -0.49661974432E+02  0.49759095073E+03  0.52897607033E+03  0.17159414437E+03 0.  0.
        -24    2    5    5    0    0  0.25938774960E+02 -0.54507549130E+02  0.15631831309E+03  0.18487722509E+03  0.78104291749E+02 0.  0.
          5    1    3    3  501    0 -0.28886302251E+02  0.76146586704E+02 -0.10118102593E+03  0.12997080877E+03  0.47000000000E+01 0. -1.
        -13    1    4    4    0    0 -0.64846389287E+01 -0.35859425820E+02 -0.14564777065E+02  0.39243874593E+02  0.00000000000E+00 0.  1.
         14    1    4    4    0    0  0.52922768680E+02  0.93748135476E+01 -0.82849100220E+02  0.98755657970E+02  0.00000000000E+00 0. -1.
         -5    1    5    5    0  502 -0.43490602461E+02  0.48455746980E+01  0.34127263764E+03  0.34409884525E+03  0.47000000000E+01 0.  1.
         11    1    6    6    0    0  0.18552266011E+02 -0.67213103635E+02  0.15519346241E+03  0.17013758741E+03  0.00000000000E+00 0. -1.
        -12    1    6    6    0    0  0.73865089495E+01  0.12705554505E+02  0.11248506769E+01  0.14739637675E+02  0.00000000000E+00 0.  1.
</event>
<event>
12    1  0.8684423E-002  0.2031145E+03  0.7818608E-02  0.1147545E+00
         21   -1    0    0  501  502  0.00000000000E+00  0.00000000000E+00  0.22038662385E+03  0.22038662385E+03  0.00000000000E+00 0. -1.
         21   -1    0    0  502  503 -0.00000000000E+00 -0.00000000000E+00 -0.18539323508E+03  0.18539323508E+03  0.00000000000E+00 0. -1.
         -6    2    1    2    0  503 -0.86939590438E+02  0.60982122849E+02  0.17090787931E+02  0.20383226926E+03  0.17314210137E+03 0.  0.
        -24    2    3    3    0    0 -0.64053350342E+02 -0.32112423351E+02  0.55401875347E+01  0.10715817300E+03  0.79486734360E+02 0.  0.
          6    2    1    2  501    0  0.86939590438E+02 -0.60982122849E+02  0.17902600847E+02  0.20194758967E+03  0.17083622029E+03 0.  0.
         24    2    5    5    0    0  0.10363295533E+03 -0.90832078498E+02 -0.33122776329E+01  0.16142784939E+03  0.84010258075E+02 0.  0.
          5    1    5    5  501    0 -0.16693364887E+02  0.29849955649E+02  0.21214878480E+02  0.40519740281E+02  0.47000000000E+01 0. -1.
        -13    1    6    6    0    0  0.27476379721E+02  0.14025555422E+02 -0.75636421177E+01  0.31762813628E+02  0.00000000000E+00 0.  1.
         14    1    6    6    0    0  0.76156575605E+02 -0.10485763392E+03  0.42513644847E+01  0.12966503576E+03  0.00000000000E+00 0. -1.
         -5    1    3    3    0  503 -0.22886240096E+02  0.93094546200E+02  0.11550600396E+02  0.96674096259E+02  0.47000000000E+01 0.  1.
         11    1    4    4    0    0 -0.25419572517E+02 -0.27460299256E+02 -0.34805853123E+02  0.51104501894E+02  0.00000000000E+00 0. -1.
        -12    1    4    4    0    0 -0.38633777825E+02 -0.46521240947E+01  0.40346040658E+02  0.56053671105E+02  0.00000000000E+00 0.  1.
</event>
<event>
12    1  0.8684423E-002  0.1770006E+03  0.7818608E-02  0.1171529E+00
         21   -1    0    0  503  502  0.00000000000E+00  0.00000000000E+00  0.30911027074E+03  0.30911027074E+03  0.00000000000E+00 0. -1.
         21   -1    0    0  501  503 -0.00000000000E+00 -0.00000000000E+00 -0.10272367029E+03  0.10272367029E+03  0.00000000000E+00 0. -1.
          6    2    1    2  501    0  0.25432037666E+02 -0.29291923187E+02  0.14030063740E+03  0.22586160305E+03  0.17269739308E+03 0.  0.
         24    2    3    3    0    0 -0.38675477280E+02  0.81372819979E+01  0.46598379534E+02  0.10622497822E+03  0.86892629840E+02 0.  0.
         -6    2    1    2    0  502 -0.25432037666E+02  0.29291923187E+02  0.66085963056E+02  0.18597233797E+03  0.16945073229E+03 0.  0.
        -24    2    5    5    0    0  0.17506306356E+02  0.41107383689E+02 -0.16772276592E+02  0.91786965587E+02  0.78404400601E+02 0.  0.
          5    1    3    3  501    0  0.64107514946E+02 -0.37429205184E+02  0.93702257866E+02  0.11963662484E+03  0.47000000000E+01 0. -1.
        -13    1    4    4    0    0 -0.39152633948E+02  0.44313277805E+02  0.31756695681E+02  0.67119915491E+02  0.00000000000E+00 0.  1.
         14    1    4    4    0    0  0.47715666808E+00 -0.36175995807E+02  0.14841683852E+02  0.39105062725E+02  0.00000000000E+00 0. -1.
         -5    1    5    5    0  502 -0.42938344022E+02 -0.11815460502E+02  0.82858239648E+02  0.94185372387E+02  0.47000000000E+01 0.  1.
         13    1    6    6    0    0  0.12838969863E+02  0.64428156747E+02 -0.17523349885E+02  0.67991869515E+02  0.00000000000E+00 0. -1.
        -14    1    6    6    0    0  0.46673364932E+01 -0.23320773058E+02  0.75107329259E+00  0.23795096072E+02  0.00000000000E+00 0.  1.
</event>
<event>
12    1  0.8684423E-002  0.1923228E+03  0.7818608E-02  0.1156653E+00
         21   -1    0    0  503  502  0.00000000000E+00  0.00000000000E+00  0.18796195007E+04  0.18796195007E+04  0.00000000000E+00 0.  1.
         21   -1    0    0  501  503 -0.00000000000E+00 -0.00000000000E+00 -0.41566205049E+02  0.41566205049E+02  0.00000000000E+00 0.  1.
          6    2    1    2  501    0  0.80638017071E+02 -0.31793546244E+02  0.21862759555E+03  0.29037987293E+03  0.17032065549E+03 0.  0.
         24    2    3    3    0    0 -0.81348934133E+01 -0.21776598533E+02  0.42009053752E+02  0.92397125741E+02  0.78943470367E+02 0.  0.
         -6    2    1    2    0  502 -0.80638017071E+02  0.31793546244E+02  0.16194257001E+04  0.16308058328E+04  0.17168210982E+03 0.  0.
        -24    2    5    5    0    0  0.20324625367E+02  0.37785221913E+02  0.83584010620E+03  0.84070594780E+03  0.79479520227E+02 0.  0.
          5    1    3    3  501    0  0.88772910485E+02 -0.10016947711E+02  0.17661854180E+03  0.19798274719E+03  0.47000000000E+01 0. -1.
        -11    1    4    4    0    0  0.35056528793E+02 -0.83813798473E+01  0.11452248490E+02  0.37820123408E+02  0.00000000000E+00 0.  1.
         12    1    4    4    0    0 -0.43191422206E+02 -0.13395218686E+02  0.30556805262E+02  0.54577002333E+02  0.00000000000E+00 0. -1.
         -5    1    5    5    0  502 -0.10096264244E+03 -0.59916756696E+01  0.78358559389E+03  0.79009988502E+03  0.47000000000E+01 0.  1.
         13    1    6    6    0    0  0.14455729996E+02  0.60293257267E+02  0.71242827533E+03  0.71512117329E+03  0.00000000000E+00 0. -1.
        -14    1    6    6    0    0  0.58688953713E+01 -0.22508035354E+02  0.12341183088E+03  0.12558477451E+03  0.00000000000E+00 0.  1.
</event>
<event>
12    1  0.8684423E-002  0.2065900E+03  0.7818608E-02  0.1145085E+00
         21   -1    0    0  503  502  0.00000000000E+00  0.00000000000E+00  0.18743445669E+04  0.18743445669E+04  0.00000000000E+00 0. -1.
         21   -1    0    0  501  503 -0.00000000000E+00 -0.00000000000E+00 -0.22361446741E+02  0.22361446741E+02  0.00000000000E+00 0. -1.
          6    2    1    2  501    0 -0.10010758852E+03 -0.32745903082E+02  0.89262409374E+03  0.91535533369E+03  0.17321602335E+03 0.  0.
         24    2    3    3    0    0 -0.28719353189E+02 -0.75357844518E+02  0.60534023892E+03  0.61624638877E+03  0.82578452568E+02 0.  0.
         -6    2    1    2    0  502  0.10010758852E+03  0.32745903082E+02  0.95935902638E+03  0.98135067991E+03  0.17772335810E+03 0.  0.
        -24    2    5    5    0    0  0.67809230218E+02 -0.44126951225E+02  0.40536133111E+03  0.42109345680E+03  0.80353040244E+02 0.  0.
          5    1    3    3  501    0 -0.71388235329E+02  0.42611941436E+02  0.28728385481E+03  0.29910894492E+03  0.47000000000E+01 0. -1.
        -11    1    4    4    0    0  0.20299859277E+02  0.40326668260E+01  0.15212293441E+03  0.15352437547E+03  0.00000000000E+00 0.  1.
         12    1    4    4    0    0 -0.49019212466E+02 -0.79390511344E+02  0.45321730451E+03  0.46272201330E+03  0.00000000000E+00 0. -1.
         -5    1    5    5    0  502  0.32298358301E+02  0.76872854307E+02  0.55399769527E+03  0.56025722311E+03  0.47000000000E+01 0.  1.
         11    1    6    6    0    0  0.41301154875E+02  0.17505934766E+02  0.12465281207E+03  0.13247855186E+03  0.00000000000E+00 0. -1.
        -12    1    6    6    0    0  0.26508075342E+02 -0.61632885990E+02  0.28070851903E+03  0.28861490494E+03  0.00000000000E+00 0.  1.
</event>
<event>
12    1  0.8684423E-002  0.1813410E+03  0.7818608E-02  0.1167553E+00
         21   -1    0    0  503  502  0.00000000000E+00  0.00000000000E+00  0.22066508301E+03  0.22066508301E+03  0.00000000000E+00 0.  1.
         21   -1    0    0  501  503 -0.00000000000E+00 -0.00000000000E+00 -0.33217566355E+03  0.33217566355E+03  0.00000000000E+00 0.  1.
          6    2    1    2  501    0 -0.35596813679E+02  0.33631107475E+02 -0.26324878313E+03  0.31966308552E+03  0.17460349908E+03 0.  0.
         24    2    3    3    0    0 -0.24569531730E+01  0.73323252120E+02 -0.23862932711E+03  0.26220071248E+03  0.80143134140E+02 0.  0.
         -6    2    1    2    0  502  0.35596813679E+02 -0.33631107475E+02  0.15173820259E+03  0.23317766104E+03  0.17014451196E+03 0.  0.
        -24    2    5    5    0    0  0.65271518242E+02  0.29075055981E+02  0.10123956654E+03  0.14724249205E+03  0.79530947801E+02 0.  0.
          5    1    3    3  501    0 -0.33139860506E+02 -0.39692144645E+02 -0.24619456026E+02  0.57462373044E+02  0.47000000000E+01 0. -1.
        -11    1    4    4    0    0 -0.34314147819E+02  0.60553136633E+02 -0.12017803991E+03  0.13887729970E+03  0.00000000000E+00 0.  1.
         12    1    4    4    0    0  0.31857194646E+02  0.12770115487E+02 -0.11845128720E+03  0.12332341278E+03  0.00000000000E+00 0. -1.
         -5    1    5    5    0  502 -0.29674704563E+02 -0.62706163456E+02  0.50498636049E+02  0.85935168989E+02  0.47000000000E+01 0.  1.
         13    1    6    6    0    0  0.59968283596E+02  0.10153725848E+02  0.20557711402E+02  0.64202123673E+02  0.00000000000E+00 0. -1.
        -14    1    6    6    0    0  0.53032346458E+01  0.18921330133E+02  0.80681855138E+02  0.83040368377E+02  0.00000000000E+00 0.  1.
</event>
<event>
12    1  0.8684423E-002  0.1768097E+03  0.7818608E-02  0.1170945E+00
         21   -1    0    0  501  502  0.00000000000E+00  0.00000000000E+00  0.48065494443E+02  0.48065494443E+02  0.00000000000E+00 0.  1.
         21   -1    0    0  502  503 -0.00000000000E+00 -0.00000000000E+00 -0.70029835369E+03  0.70029835369E+03  0.00000000000E+00 0. -1.
         -6    2    1    2    0  503 -0.39801554356E+02 -0.15880814218E+02 -0.42621124903E+03  0.46140139590E+03  0.17146094410E+03 0.  0.
        -24    2    3    3    0    0 -0.99117925529E+00  0.45808055775E+02 -0.15398132269E+03  0.17954507667E+03  0.80167489722E+02 0.  0.
          6    2    1    2  501    0  0.39801554356E+02  0.15880814218E+02 -0.22602161021E+03  0.28696245223E+03  0.17153809115E+03 0.  0.
         24    2    5    5    0    0  0.18516293330E+02 -0.54156845106E+02 -0.89981634919E+02  0.13240728105E+03  0.78480420880E+02 0.  0.
          5    1    5    5  501    0  0.21285261026E+02  0.70037659324E+02 -0.13603997530E+03  0.15455517118E+03  0.47000000000E+01 0. -1.
        -13    1    6    6    0    0 -0.13496333112E+02  0.10400458869E+02  0.11467284891E+00  0.17039181378E+02  0.00000000000E+00 0.  1.
         14    1    6    6    0    0  0.32012626442E+02 -0.64557303976E+02 -0.90096307768E+02  0.11536809967E+03  0.00000000000E+00 0. -1.
         -5    1    3    3    0  503 -0.38810375101E+02 -0.61688869993E+02 -0.27222992634E+03  0.28185631923E+03  0.47000000000E+01 0.  1.
         11    1    4    4    0    0 -0.40514901163E+02  0.25522070124E+02 -0.77660623250E+02  0.91235988969E+02  0.00000000000E+00 0. -1.
        -12    1    4    4    0    0  0.39523721907E+02  0.20285985651E+02 -0.76320699443E+02  0.88309087702E+02  0.00000000000E+00 0.  1.
</event>
<event>
12    1  0.8684423E-002  0.2456417E+03  0.7818608E-02  0.1116097E+00
         21   -1    0    0  503  502  0.00000000000E+00  0.00000000000E+00  0.91341917955E+03  0.91341917955E+03  0.00000000000E+00 0. -1.
         21   -1    0    0  501  503 -0.00000000000E+00 -0.00000000000E+00 -0.79894848879E+02  0.79894848879E+02  0.00000000000E+00 0. -1.
          6    2    1    2  501    0  0.43018730527E+02 -0.17043740524E+03  0.20997169828E+03  0.32312170744E+03  0.17152260335E+03 0.  0.
         24    2    3    3    0    0  0.72512879883E+02 -0.47738370203E+02  0.10107830368E+03  0.15637393555E+03  0.81846896726E+02 0.  0.
         -6    2    1    2    0  502 -0.43018730527E+02  0.17043740524E+03  0.62355263239E+03  0.67019232099E+03  0.17158187978E+03 0.  0.
        -24    2    5    5    0    0 -0.44475653664E+02  0.36377303707E+02  0.36882789804E+03  0.38230169290E+03  0.82578290308E+02 0.  0.
          5    1    3    3  501    0 -0.29494149356E+02 -0.12269903504E+03  0.10889339460E+03  0.16674777190E+03  0.47000000000E+01 0. -1.
        -13    1    4    4    0    0 -0.26054527962E+01  0.44716427687E+01 -0.10728446730E+02  0.11911487840E+02  0.00000000000E+00 0.  1.
         14    1    4    4    0    0  0.75118332679E+02 -0.52210012971E+02  0.11180675041E+03  0.14446244771E+03  0.00000000000E+00 0. -1.
         -5    1    5    5    0  502  0.14569231374E+01  0.13406010154E+03  0.25472473436E+03  0.28789062809E+03  0.47000000000E+01 0.  1.
         11    1    6    6    0    0 -0.30715136722E+02  0.23472546693E+02  0.51403371988E+02  0.64317079566E+02  0.00000000000E+00 0. -1.
        -12    1    6    6    0    0 -0.13760516942E+02  0.12904757013E+02  0.31742452605E+03  0.31798461333E+03  0.00000000000E+00 0.  1.
</event>
<event>
12    1  0.8684423E-002  0.1796287E+03  0.7818608E-02  0.1168968E+00
         21   -1    0    0  501  502  0.00000000000E+00  0.00000000000E+00  0.27148009766E+03  0.27148009766E+03  0.00000000000E+00 0. -1.
         21   -1    0    0  502  503 -0.00000000000E+00 -0.00000000000E+00 -0.11821474128E+03  0.11821474128E+03  0.00000000000E+00 0. -1.
         -6    2    1    2    0  503  0.29975239321E+02  0.23315437749E+02  0.99470213895E+02  0.20533090371E+03  0.17556859615E+03 0.  0.
        -24    2    3    3    0    0  0.84369472191E+02  0.37219842909E+02  0.59327180326E+02  0.13615274099E+03  0.80711399506E+02 0.  0.
          6    2    1    2  501    0 -0.29975239321E+02 -0.23315437749E+02  0.53795142492E+02  0.18436393523E+03  0.17220342229E+03 0.  0.
         24    2    5    5    0    0  0.19517191298E+02  0.32793339566E+02  0.63617978038E+02  0.10875789263E+03  0.79528034072E+02 0.  0.
          5    1    5    5  501    0 -0.49492430619E+02 -0.56108777315E+02 -0.98228355469E+01  0.75606042606E+02  0.47000000000E+01 0. -1.
        -13    1    6    6    0    0 -0.16252670897E+02  0.10679476096E+02  0.63805994324E+02  0.66703863701E+02  0.00000000000E+00 0.  1.
         14    1    6    6    0    0  0.35769862194E+02  0.22113863470E+02 -0.18801628517E+00  0.42054028928E+02  0.00000000000E+00 0. -1.
         -5    1    3    3    0  503 -0.54394232870E+02 -0.13904405160E+02  0.40143033568E+02  0.69178162714E+02  0.47000000000E+01 0.  1.
         11    1    4    4    0    0  0.17437915580E+01  0.26189845374E+02  0.44238914281E+02  0.51439579571E+02  0.00000000000E+00 0. -1.
        -12    1    4    4    0    0  0.82625680633E+02  0.11029997536E+02  0.15088266046E+02  0.84713161421E+02  0.00000000000E+00 0.  1.
</event>
<event>
12    1  0.8684423E-002  0.2889761E+03  0.7818608E-02  0.1090958E+00
         21   -1    0    0  501  502  0.00000000000E+00  0.00000000000E+00  0.11174662125E+04  0.11174662125E+04  0.00000000000E+00 0.  1.
         21   -1    0    0  502  503 -0.00000000000E+00 -0.00000000000E+00 -0.81231091915E+02  0.81231091915E+02  0.00000000000E+00 0. -1.
         -6    2    1    2    0  503 -0.29794195845E+02  0.23039540434E+03  0.34623588319E+03  0.45062904150E+03  0.17093130137E+03 0.  0.
        -24    2    3    3    0    0  0.35185352112E+02  0.85603634249E+02  0.10069540646E+03  0.15822655510E+03  0.79561841715E+02 0.  0.
          6    2    1    2  501    0  0.29794195845E+02 -0.23039540434E+03  0.68999923739E+03  0.74806826291E+03  0.17186460346E+03 0.  0.
         24    2    5    5    0    0  0.46680288357E+01 -0.24350778308E+03  0.63292027755E+03  0.68416711737E+03  0.90436363519E+02 0.  0.
          5    1    5    5  501    0  0.25126167009E+02  0.13112378732E+02  0.57078959841E+02  0.63901145538E+02  0.47000000000E+01 0. -1.
        -13    1    6    6    0    0  0.47161374169E+02 -0.12728147914E+03  0.31429028640E+03  0.34234946220E+03  0.00000000000E+00 0.  1.
         14    1    6    6    0    0 -0.42493345334E+02 -0.11622630394E+03  0.31862999115E+03  0.34181765517E+03  0.00000000000E+00 0. -1.
         -5    1    3    3    0  503 -0.64979547956E+02  0.14479177010E+03  0.24554047673E+03  0.29240248640E+03  0.47000000000E+01 0.  1.
         13    1    4    4    0    0  0.21638478011E+02 -0.47888205672E+01  0.47638899552E+02  0.52541614779E+02  0.00000000000E+00 0. -1.
        -14    1    4    4    0    0  0.13546874101E+02  0.90392454816E+02  0.53056506907E+02  0.10568494032E+03  0.00000000000E+00 0.  1.
</event>
<event>
12    1  0.8684423E-002  0.1830005E+03  0.7818608E-02  0.1165401E+00
         21   -1    0    0  503  502  0.00000000000E+00  0.00000000000E+00  0.36364182180E+03  0.36364182180E+03  0.00000000000E+00 0.  1.
         21   -1    0    0  501  503 -0.00000000000E+00 -0.00000000000E+00 -0.98578518604E+02  0.98578518604E+02  0.00000000000E+00 0.  1.
          6    2    1    2  501    0  0.38366799426E+02 -0.40401533556E+02  0.19683904242E+03  0.26876532826E+03  0.17431264395E+03 0.  0.
         24    2    3    3    0    0  0.16303319537E+02  0.45413707431E+02  0.94594099840E+02  0.13338744597E+03  0.80721521088E+02 0.  0.
         -6    2    1    2    0  502 -0.38366799426E+02  0.40401533556E+02  0.68224260775E+02  0.19345501214E+03  0.17223819772E+03 0.  0.
        -24    2    5    5    0    0  0.33688942034E+02  0.26689757095E+01 -0.89956534072E+00  0.86609473464E+02  0.79739095989E+02 0.  0.
          5    1    3    3  501    0  0.22063479888E+02 -0.85815240987E+02  0.10224494258E+03  0.13537788229E+03  0.47000000000E+01 0. -1.
        -13    1    4    4    0    0  0.26357478602E+02  0.98729013014E+01 -0.36951326106E+01  0.28387406775E+02  0.00000000000E+00 0.  1.
         14    1    4    4    0    0 -0.10054159065E+02  0.35540806130E+02  0.98289232451E+02  0.10500003919E+03  0.00000000000E+00 0. -1.
         -5    1    5    5    0  502 -0.72055741460E+02  0.37732557846E+02  0.69123826116E+02  0.10684553868E+03  0.47000000000E+01 0.  1.
         13    1    6    6    0    0  0.43375416707E+01 -0.14537260831E+00 -0.38546383801E+02  0.38789935616E+02  0.00000000000E+00 0. -1.
        -14    1    6    6    0    0  0.29351400364E+02  0.28143483178E+01  0.37646818461E+02  0.47819537848E+02  0.00000000000E+00 0.  1.
</event>
<event>
12    1  0.8684423E-002  0.2513563E+03  0.7818608E-02  0.1112599E+00
         21   -1    0    0  501  502  0.00000000000E+00  0.00000000000E+00  0.47392764909E+03  0.47392764909E+03  0.00000000000E+00 0.  1.
         21   -1    0    0  502  503 -0.00000000000E+00 -0.00000000000E+00 -0.18235567664E+03  0.18235567664E+03  0.00000000000E+00 0. -1.
         -6    2    1    2    0  503 -0.50462828239E+02  0.17442915239E+03  0.31662543891E+03  0.40368149993E+03  0.17243856466E+03 0.  0.
        -24    2    3    3    0    0 -0.82197763882E+02  0.13242081852E+03  0.15407245056E+03  0.23275060665E+03  0.78375884751E+02 0.  0.
          6    2    1    2  501    0  0.50462828239E+02 -0.17442915239E+03 -0.25053466462E+02  0.25260182579E+03  0.17380443025E+03 0.  0.
         24    2    5    5    0    0  0.21293727866E+02 -0.73856230272E+02 -0.75542735477E+02  0.13625318865E+03  0.83367025475E+02 0.  0.
          5    1    5    5  501    0  0.29169100372E+02 -0.10057292212E+03  0.50489269015E+02  0.11634863715E+03  0.47000000000E+01 0. -1.
        -11    1    6    6    0    0  0.33683046701E+02  0.40392175135E+01 -0.29277020466E+02  0.44810789332E+02  0.00000000000E+00 0.  1.
         12    1    6    6    0    0 -0.12389318835E+02 -0.77895447786E+02 -0.46265715011E+02  0.91442399314E+02  0.00000000000E+00 0. -1.
         -5    1    3    3    0  503  0.31734935643E+02  0.42008333874E+02  0.16255298835E+03  0.17093089328E+03  0.47000000000E+01 0.  1.
         11    1    4    4    0    0 -0.60134835640E+02  0.41880615648E+02  0.10322280174E+03  0.12659040731E+03  0.00000000000E+00 0. -1.
        -12    1    4    4    0    0 -0.22062928241E+02  0.90540202871E+02  0.50849648822E+02  0.10616019934E+03  0.00000000000E+00 0.  1.
</event>
<event>
12    1  0.8684423E-002  0.1772356E+03  0.7818608E-02  0.1172569E+00
         21   -1    0    0  501  502  0.00000000000E+00  0.00000000000E+00  0.16418978770E+04  0.16418978770E+04  0.00000000000E+00 0.  1.
         21   -1    0    0  502  503 -0.00000000000E+00 -0.00000000000E+00 -0.19517253819E+02  0.19517253819E+02  0.00000000000E+00 0.  1.
         -6    2    1    2    0  503  0.30205613237E+02  0.32824132764E+02  0.58273291085E+03  0.60676834605E+03  0.16309622195E+03 0.  0.
        -24    2    3    3    0    0  0.35035443747E+02  0.66214428755E+02  0.54634159751E+03  0.55692201403E+03  0.77853424121E+02 0.  0.
          6    2    1    2  501    0 -0.30205613237E+02 -0.32824132764E+02  0.10396477123E+04  0.10546467848E+04  0.17153038247E+03 0.  0.
         24    2    5    5    0    0  0.33721460262E+02 -0.20954498993E+02  0.83702620622E+03  0.84179678202E+03  0.80204266782E+02 0.  0.
          5    1    5    5  501    0 -0.63927073498E+02 -0.11869633771E+02  0.20262150609E+03  0.21285000273E+03  0.47000000000E+01 0. -1.
        -13    1    6    6    0    0  0.52167081074E+02 -0.27630776106E+02  0.40021457791E+03  0.40454489554E+03  0.00000000000E+00 0.  1.
         14    1    6    6    0    0 -0.18445620813E+02  0.66762771126E+01  0.43681162832E+03  0.43725188649E+03  0.00000000000E+00 0. -1.
         -5    1    3    3    0  503 -0.48298305102E+01 -0.33390295991E+02  0.36391313340E+02  0.49846332019E+02  0.47000000000E+01 0.  1.
         13    1    4    4    0    0  0.43803020570E+02  0.15110241028E+02  0.37653820521E+03  0.37937849699E+03  0.00000000000E+00 0. -1.
        -14    1    4    4    0    0 -0.87675768235E+01  0.51104187726E+02  0.16980339230E+03  0.17754351704E+03  0.00000000000E+00 0.  1.
</event>
<event>
12    1  0.8684423E-002  0.2216388E+03  0.7818608E-02  0.1132716E+00
         21   -1    0    0  501  502  0.00000000000E+00  0.00000000000E+00  0.41415255829E+03  0.41415255829E+03  0.00000000000E+00 0.  1.
         21   -1    0    0  502  503 -0.00000000000E+00 -0.00000000000E+00 -0.11977621208E+03  0.11977621208E+03  0.00000000000E+00 0. -1.
         -6    2    1    2    0  503 -0.28091085405E+02 -0.13760126713E+03  0.17514027939E+03  0.28248519047E+03  0.17146587874E+03 0.  0.
        -24    2    3    3    0    0 -0.10351269426E+02 -0.16444749878E+03  0.17028150257E+03  0.24960481735E+03  0.78464298198E+02 0.  0.
          6    2    1    2  501    0  0.28091085405E+02  0.13760126713E+03  0.11923606682E+03  0.25144357990E+03  0.17112397975E+03 0.  0.
         24    2    5    5    0    0 -0.42801220676E+02  0.78350593376E+02  0.10133190945E+03  0.15721507968E+03  0.80483945193E+02 0.  0.
          5    1    5    5  501    0  0.70892306081E+02  0.59250673758E+02  0.17904157375E+02  0.94228500219E+02  0.47000000000E+01 0. -1.
        -13    1    6    6    0    0 -0.33476088545E+02  0.14304232524E+02 -0.67247397179E+00  0.36410325371E+02  0.00000000000E+00 0.  1.
         14    1    6    6    0    0 -0.93251321311E+01  0.64046360852E+02  0.10200438342E+03  0.12080475431E+03  0.00000000000E+00 0. -1.
         -5    1    3    3    0  503 -0.17739815979E+02  0.26846231643E+02  0.48587768194E+01  0.32880373121E+02  0.47000000000E+01 0.  1.
         11    1    4    4    0    0 -0.18702241157E+02 -0.18469912802E+02  0.62967887668E+02  0.68233909316E+02  0.00000000000E+00 0. -1.
        -12    1    4    4    0    0  0.83509717313E+01 -0.14597758598E+03  0.10731361490E+03  0.18137090803E+03  0.00000000000E+00 0.  1.
</event>
<event>
12    1  0.8684423E-002  0.2173615E+03  0.7818608E-02  0.1136328E+00
         21   -1    0    0  503  502  0.00000000000E+00  0.00000000000E+00  0.28838360042E+03  0.28838360042E+03  0.00000000000E+00 0. -1.
         21   -1    0    0  501  503 -0.00000000000E+00 -0.00000000000E+00 -0.16940840197E+03  0.16940840197E+03  0.00000000000E+00 0.  1.
          6    2    1    2  501    0  0.11035470243E+03  0.74616854840E+02  0.10701636618E+03  0.24010179819E+03  0.16867286530E+03 0.  0.
         24    2    3    3    0    0  0.11761456699E+03  0.10818310984E+03  0.10097347198E+03  0.20491649332E+03  0.79109769088E+02 0.  0.
         -6    2    1    2    0  502 -0.11035470243E+03 -0.74616854840E+02  0.11958832275E+02  0.21769020420E+03  0.17175615261E+03 0.  0.
        -24    2    5    5    0    0 -0.14489765199E+03 -0.47878627063E+02  0.21770421132E+02  0.17267347991E+03  0.77810583773E+02 0.  0.
          5    1    3    3  501    0 -0.72598645657E+01 -0.33566255003E+02  0.60428941907E+01  0.35185304868E+02  0.47000000000E+01 0. -1.
        -13    1    4    4    0    0  0.27318190572E+02  0.37443124571E+02 -0.76067781601E+01  0.46969502741E+02  0.00000000000E+00 0.  1.
         14    1    4    4    0    0  0.90296376420E+02  0.70739985273E+02  0.10858025014E+03  0.15794699058E+03  0.00000000000E+00 0. -1.
         -5    1    5    5    0  502  0.34542949566E+02 -0.26738227778E+02 -0.98115888570E+01  0.45016724285E+02  0.47000000000E+01 0.  1.
         11    1    6    6    0    0 -0.61146125952E+02 -0.61152328280E+02  0.12332645202E+02  0.87353020044E+02  0.00000000000E+00 0. -1.
        -12    1    6    6    0    0 -0.83751526040E+02  0.13273701217E+02  0.94377759296E+01  0.85320459871E+02  0.00000000000E+00 0.  1.
</event>
<event>
12    1  0.8684423E-002  0.1886802E+03  0.7818608E-02  0.1159872E+00
         21   -1    0    0  501  502  0.00000000000E+00  0.00000000000E+00  0.12079637191E+03  0.12079637191E+03  0.00000000000E+00 0. -1.
         21   -1    0    0  502  503 -0.00000000000E+00 -0.00000000000E+00 -0.64910135626E+03  0.64910135626E+03  0.00000000000E+00 0. -1.
         -6    2    1    2    0  503  0.12585512351E+02  0.77488871055E+02 -0.54887952773E+03  0.58009908641E+03  0.17053824742E+03 0.  0.
        -24    2    3    3    0    0 -0.56468379673E+02  0.47621003001E+02 -0.36807084380E+03  0.38420523829E+03  0.81737881337E+02 0.  0.
          6    2    1    2  501    0 -0.12585512351E+02 -0.77488871055E+02  0.20574543381E+02  0.18979864176E+03  0.17157299414E+03 0.  0.
         24    2    5    5    0    0  0.56579555575E+02 -0.56646749503E+02 -0.42364584410E+01  0.11327494305E+03  0.80019777588E+02 0.  0.
          5    1    5    5  501    0 -0.69165067926E+02 -0.20842121552E+02  0.24811001822E+02  0.76523698704E+02  0.47000000000E+01 0. -1.
        -11    1    6    6    0    0 -0.12966632949E+02 -0.22346610043E+02 -0.21755653543E+02  0.33775923548E+02  0.00000000000E+00 0.  1.
         12    1    6    6    0    0  0.69546188524E+02 -0.34300139460E+02  0.17519195102E+02  0.79499019505E+02  0.00000000000E+00 0. -1.
         -5    1    3    3    0  503  0.69053892024E+02  0.29867868055E+02 -0.18080868393E+03  0.19589384812E+03  0.47000000000E+01 0.  1.
         11    1    4    4    0    0 -0.56425450869E+02 -0.58154023027E+01 -0.18698589568E+03  0.19540055167E+03  0.00000000000E+00 0. -1.
        -12    1    4    4    0    0 -0.42928803704E-01  0.53436405303E+02 -0.18108494812E+03  0.18880468662E+03  0.00000000000E+00 0.  1.
</event>
<event>
12    1  0.8684423E-002  0.2042843E+03  0.7818608E-02  0.1146280E+00
         21   -1    0    0  503  502  0.00000000000E+00  0.00000000000E+00  0.75122356458E+02  0.75122356458E+02  0.00000000000E+00 0.  1.
         21   -1    0    0  501  503 -0.00000000000E+00 -0.00000000000E+00 -0.98330445512E+03  0.98330445512E+03  0.00000000000E+00 0.  1.
          6    2    1    2  501    0  0.78954629093E+02 -0.73987454957E+02 -0.80404919679E+03  0.82959458818E+03  0.17327461711E+03 0.  0.
         24    2    3    3    0    0  0.47808781601E+02 -0.77772966774E+02 -0.28832788712E+03  0.31289839779E+03  0.80237914292E+02 0.  0.
         -6    2    1    2    0  502 -0.78954629093E+02  0.73987454957E+02 -0.10413290187E+03  0.22883222340E+03  0.17266310627E+03 0.  0.
        -24    2    5    5    0    0  0.23048947212E+02  0.41553713185E+02 -0.61034391692E+02  0.11334954607E+03  0.82855039540E+02 0.  0.
          5    1    3    3  501    0  0.31145847493E+02  0.37855118172E+01 -0.51572130966E+03  0.51669619038E+03  0.47000000000E+01 0. -1.
        -13    1    4    4    0    0  0.24716901750E+02 -0.38117976503E+02 -0.24699890283E+03  0.25114211786E+03  0.00000000000E+00 0.  1.
         14    1    4    4    0    0  0.23091879850E+02 -0.39654990271E+02 -0.41328984296E+02  0.61756279934E+02  0.00000000000E+00 0. -1.
         -5    1    5    5    0  502 -0.10200357630E+03  0.32433741772E+02 -0.43098510181E+02  0.11548267733E+03  0.47000000000E+01 0.  1.
         13    1    6    6    0    0  0.42664038793E+02  0.18270916575E+02 -0.67799048730E+02  0.82162994148E+02  0.00000000000E+00 0. -1.
        -14    1    6    6    0    0 -0.19615091581E+02  0.23282796610E+02  0.67646570383E+01  0.31186551918E+02  0.00000000000E+00 0.  1.
</event>
<event>
12    1  0.8684423E-002  0.1767414E+03  0.7818608E-02  0.1171531E+00
         21   -1    0    0  501  502  0.00000000000E+00  0.00000000000E+00  0.19246819048E+03  0.19246819048E+03  0.00000000000E+00 0.  1.
         21   -1    0    0  502  503 -0.00000000000E+00 -0.00000000000E+00 -0.17022135835E+03  0.17022135835E+03  0.00000000000E+00 0.  1.
         -6    2    1    2    0  503  0.21158494547E+02  0.12801277094E+02 -0.32652310279E+02  0.17761814933E+03  0.17283078145E+03 0.  0.
        -24    2    3    3    0    0  0.29204512252E+01  0.73705279150E+02 -0.22663908333E+02  0.11309077634E+03  0.82673295221E+02 0.  0.
          6    2    1    2  501    0 -0.21158494547E+02 -0.12801277094E+02  0.54899142416E+02  0.18507139951E+03  0.17500272138E+03 0.  0.
         24    2    5    5    0    0  0.20481006631E+02 -0.40761794106E+02  0.85003095528E+02  0.12638599619E+03  0.81651076486E+02 0.  0.
          5    1    5    5  501    0 -0.41639501178E+02  0.27960517012E+02 -0.30103953112E+02  0.58685403320E+02  0.47000000000E+01 0. -1.
        -13    1    6    6    0    0 -0.24048123661E+01 -0.36604052454E+02  0.94417072210E+02  0.10129276037E+03  0.00000000000E+00 0.  1.
         14    1    6    6    0    0  0.22885818997E+02 -0.41577416528E+01 -0.94139766819E+01  0.25093235817E+02  0.00000000000E+00 0. -1.
         -5    1    3    3    0  503  0.18238043322E+02 -0.60904002056E+02 -0.99884019466E+01  0.64527372983E+02  0.47000000000E+01 0.  1.
         13    1    4    4    0    0  0.38407406593E+01  0.20043821772E+02  0.31051814143E+02  0.37158057559E+02  0.00000000000E+00 0. -1.
        -14    1    4    4    0    0 -0.92028943406E+00  0.53661457379E+02 -0.53715722475E+02  0.75932718783E+02  0.00000000000E+00 0.  1.
</event>
<event>
12    1  0.8684423E-002  0.2361301E+03  0.7818608E-02  0.1122421E+00
         21   -1    0    0  503  502  0.00000000000E+00  0.00000000000E+00  0.38410410910E+03  0.38410410910E+03  0.00000000000E+00 0.  1.
         21   -1    0    0  501  503 -0.00000000000E+00 -0.00000000000E+00 -0.16967831690E+03  0.16967831690E+03  0.00000000000E+00 0. -1.
          6    2    1    2  501    0 -0.10350113404E+03 -0.12219814804E+03  0.17549331062E+01  0.23599896913E+03  0.17334232462E+03 0.  0.
         24    2    3    3    0    0 -0.59187516744E+02  0.53436808047E+01  0.10896024274E+02  0.10058750606E+03  0.80420183827E+02 0.  0.
         -6    2    1    2    0  502  0.10350113404E+03  0.12219814804E+03  0.21267085910E+03  0.31778345687E+03  0.17352970645E+03 0.  0.
        -24    2    5    5    0    0  0.12873907537E+03  0.71101706929E+02  0.18110021665E+03  0.25246427561E+03  0.96497252457E+02 0.  0.
          5    1    3    3  501    0 -0.44313617301E+02 -0.12754182884E+03 -0.91410911678E+01  0.13541146307E+03  0.47000000000E+01 0. -1.
        -13    1    4    4    0    0 -0.17787741752E+01 -0.31521312271E+02  0.51081053572E+00  0.31575593301E+02  0.00000000000E+00 0.  1.
         14    1    4    4    0    0 -0.57408742569E+02  0.36864993076E+02  0.10385213738E+02  0.69011912756E+02  0.00000000000E+00 0. -1.
         -5    1    5    5    0  502 -0.25237941328E+02  0.51096441110E+02  0.31570642449E+02  0.65319181266E+02  0.47000000000E+01 0.  1.
         11    1    6    6    0    0  0.12653383873E+03  0.40736146533E+02  0.10152902866E+03  0.16726741953E+03  0.00000000000E+00 0. -1.
        -12    1    6    6    0    0  0.22052366475E+01  0.30365560396E+02  0.79571187989E+02  0.85196856073E+02  0.00000000000E+00 0.  1.
</event>
<event>
12    1  0.8684423E-002  0.1758822E+03  0.7818608E-02  0.1172015E+00
         21   -1    0    0  501  502  0.00000000000E+00  0.00000000000E+00  0.64458521197E+02  0.64458521197E+02  0.00000000000E+00 0. -1.
         21   -1    0    0  502  503 -0.00000000000E+00 -0.00000000000E+00 -0.54890881940E+03  0.54890881940E+03  0.00000000000E+00 0. -1.
         -6    2    1    2    0  503  0.17680408372E+02 -0.27635840079E+02 -0.35277729988E+03  0.39419076118E+03  0.17279524414E+03 0.  0.
        -24    2    3    3    0    0  0.34434742306E+02 -0.13762851188E+02 -0.74621918677E+02  0.11514654674E+03  0.79467785471E+02 0.  0.
          6    2    1    2  501    0 -0.17680408372E+02  0.27635840079E+02 -0.13167299833E+03  0.21917657941E+03  0.17211698922E+03 0.  0.
         24    2    5    5    0    0  0.14776184274E+02  0.70956885892E+02 -0.12239172383E+03  0.16405511832E+03  0.81738194925E+02 0.  0.
          5    1    5    5  501    0 -0.32456592645E+02 -0.43321045813E+02 -0.92812745010E+01  0.55121461091E+02  0.47000000000E+01 0. -1.
        -11    1    6    6    0    0  0.45505028538E+02  0.53546510969E+02 -0.60183618102E+02  0.92520291542E+02  0.00000000000E+00 0.  1.
         12    1    6    6    0    0 -0.30728844264E+02  0.17410374923E+02 -0.62208105724E+02  0.71534826781E+02  0.00000000000E+00 0. -1.
         -5    1    3    3    0  503 -0.16754333934E+02 -0.13872988891E+02 -0.27815538120E+03  0.27904421445E+03  0.47000000000E+01 0.  1.
         13    1    4    4    0    0  0.52012627213E+02 -0.32879910521E+02 -0.48942029670E+02  0.78623941478E+02  0.00000000000E+00 0. -1.
        -14    1    4    4    0    0 -0.17577884907E+02  0.19117059333E+02 -0.25679889007E+02  0.36522605257E+02  0.00000000000E+00 0.  1.
</event>
<event>
12    1  0.8684423E-002  0.2988591E+03  0.7818608E-02  0.1085881E+00
         21   -1    0    0  503  502  0.00000000000E+00  0.00000000000E+00  0.97626206549E+02  0.97626206549E+02  0.00000000000E+00 0. -1.
         21   -1    0    0  501  503 -0.00000000000E+00 -0.00000000000E+00 -0.11029616253E+04  0.11029616253E+04  0.00000000000E+00 0.  1.
          6    2    1    2  501    0 -0.10786150861E+03  0.21851970673E+03 -0.75127396798E+03  0.80833283091E+03  0.17205935976E+03 0.  0.
         24    2    3    3    0    0 -0.66929522298E+01  0.91451694052E+02 -0.44712814120E+03  0.46350224845E+03  0.80638400972E+02 0.  0.
         -6    2    1    2    0  502  0.10786150861E+03 -0.21851970673E+03 -0.25406145077E+03  0.39225500095E+03  0.17300808574E+03 0.  0.
        -24    2    5    5    0    0  0.42600978105E+02 -0.58352558793E+02 -0.16564804093E+03  0.19795761764E+03  0.80796537458E+02 0.  0.
          5    1    3    3  501    0 -0.10116855638E+03  0.12706801268E+03 -0.30414582678E+03  0.34483058245E+03  0.47000000000E+01 0. -1.
        -13    1    4    4    0    0 -0.42668070380E+02  0.36792140693E+02 -0.22402053551E+03  0.23099659343E+03  0.00000000000E+00 0.  1.
         14    1    4    4    0    0  0.35975118150E+02  0.54659553359E+02 -0.22310760569E+03  0.23250565502E+03  0.00000000000E+00 0. -1.
         -5    1    5    5    0  502  0.65260530504E+02 -0.16016714794E+03 -0.88413409846E+02  0.19429738331E+03  0.47000000000E+01 0.  1.
         11    1    6    6    0    0  0.46396432334E+02 -0.70739871519E+02 -0.99726947530E+02  0.13077546566E+03  0.00000000000E+00 0. -1.
        -12    1    6    6    0    0 -0.37954542290E+01  0.12387312726E+02 -0.65921093397E+02  0.67182151975E+02  0.00000000000E+00 0.  1.
</event>
<event>
12    1  0.8684423E-002  0.1801955E+03  0.7818608E-02  0.1171162E+00
         21   -1    0    0  503  502  0.00000000000E+00  0.00000000000E+00  0.96766291728E+03  0.96766291728E+03  0.00000000000E+00 0. -1.
         21   -1    0    0  501  503 -0.00000000000E+00 -0.00000000000E+00 -0.78382143293E+02  0.78382143293E+02  0.00000000000E+00 0.  1.
          6    2    1    2  501    0 -0.54277874751E+02  0.65183877735E+00  0.45210691215E+02  0.18578062288E+03  0.17182526199E+03 0.  0.
         24    2    3    3    0    0 -0.99477945629E+01 -0.53582235408E+02 -0.72888553563E+01  0.98117727641E+02  0.81264669427E+02 0.  0.
         -6    2    1    2    0  502  0.54277874751E+02 -0.65183877735E+00  0.84407008277E+03  0.86026443769E+03  0.15701619515E+03 0.  0.
        -24    2    5    5    0    0 -0.18129941556E+02 -0.23557557743E+02  0.54469957785E+03  0.55137553688E+03  0.80210343811E+02 0.  0.
          5    1    3    3  501    0 -0.44330080188E+02  0.54234074185E+02  0.52499546571E+02  0.87662895243E+02  0.47000000000E+01 0. -1.
        -13    1    4    4    0    0 -0.11246046103E+02 -0.73028542355E+01 -0.39502099586E+02  0.41715957434E+02  0.00000000000E+00 0.  1.
         14    1    4    4    0    0  0.12982515398E+01 -0.46279381172E+02  0.32213244230E+02  0.56401770208E+02  0.00000000000E+00 0. -1.
         -5    1    5    5    0  502  0.72407816307E+02  0.22905718966E+02  0.29937050492E+03  0.30888890080E+03  0.47000000000E+01 0.  1.
         13    1    6    6    0    0 -0.35165215765E+02 -0.41333244955E+02  0.25941421481E+03  0.26502974246E+03  0.00000000000E+00 0. -1.
        -14    1    6    6    0    0  0.17035274210E+02  0.17775687212E+02  0.28528536304E+03  0.28634579443E+03  0.00000000000E+00 0.  1.
</event>
<event>
12    1  0.8684423E-002  0.1860233E+03  0.7818608E-02  0.1162269E+00
         21   -1    0    0  503  502  0.00000000000E+00  0.00000000000E+00  0.19085200649E+03  0.19085200649E+03  0.00000000000E+00 0. -1.
         21   -1    0    0  501  503 -0.00000000000E+00 -0.00000000000E+00 -0.24454581652E+03  0.24454581652E+03  0.00000000000E+00 0. -1.
          6    2    1    2  501    0  0.29700618815E+02  0.63822286229E+02 -0.13820835516E+03  0.23174604749E+03  0.17218963417E+03 0.  0.
         24    2    3    3    0    0 -0.66925392638E+01  0.97965088298E+01 -0.14539882724E+03  0.16604186599E+03  0.79298932095E+02 0.  0.
         -6    2    1    2    0  502 -0.29700618815E+02 -0.63822286229E+02  0.84514545132E+02  0.20365177551E+03  0.17139406743E+03 0.  0.
        -24    2    5    5    0    0 -0.12137407849E+00 -0.99202186674E+02  0.93054641138E+02  0.15651694429E+03  0.77442230334E+02 0.  0.
          5    1    3    3  501    0  0.36393158079E+02  0.54025777400E+02  0.71904720776E+01  0.65704181505E+02  0.47000000000E+01 0. -1.
        -11    1    4    4    0    0  0.25821805013E+02 -0.13092111217E+02 -0.21904401738E+02  0.36303881414E+02  0.00000000000E+00 0.  1.
         12    1    4    4    0    0 -0.32514344277E+02  0.22888620047E+02 -0.12349442550E+03  0.12973798457E+03  0.00000000000E+00 0. -1.
         -5    1    5    5    0  502 -0.29579244737E+02  0.35379900444E+02 -0.85400960057E+01  0.47134831223E+02  0.47000000000E+01 0.  1.
         11    1    6    6    0    0 -0.26691437753E+02 -0.10960366836E+02  0.42604867529E+02  0.51456168024E+02  0.00000000000E+00 0. -1.
        -12    1    6    6    0    0  0.26570063674E+02 -0.88241819837E+02  0.50449773609E+02  0.10506077626E+03  0.00000000000E+00 0.  1.
</event>
<event>
12    1  0.8684423E-002  0.1864710E+03  0.7818608E-02  0.1161831E+00
         21   -1    0    0  503  502  0.00000000000E+00  0.00000000000E+00  0.25164331147E+03  0.25164331147E+03  0.00000000000E+00 0.  1.
         21   -1    0    0  501  503 -0.00000000000E+00 -0.00000000000E+00 -0.13844263447E+03  0.13844263447E+03  0.00000000000E+00 0.  1.
          6    2    1    2  501    0 -0.55838749816E+02  0.41500919142E+02  0.42462284106E+02  0.19124454100E+03  0.17300617510E+03 0.  0.
         24    2    3    3    0    0 -0.36572882224E+02 -0.37249791953E+02  0.55174572490E+02  0.10904636324E+03  0.78241633235E+02 0.  0.
         -6    2    1    2    0  502  0.55838749816E+02 -0.41500919142E+02  0.70738392898E+02  0.19884140493E+03  0.17231857652E+03 0.  0.
        -24    2    5    5    0    0  0.10023360941E+03 -0.39894053518E+02  0.66003642257E+02  0.15391932306E+03  0.87728930571E+02 0.  0.
          5    1    3    3  501    0 -0.19265867592E+02  0.78750711095E+02 -0.12712288385E+02  0.82198177765E+02  0.47000000000E+01 0. -1.
        -13    1    4    4    0    0 -0.48189245346E+02 -0.27795551494E+02  0.40556994668E+01  0.55778533040E+02  0.00000000000E+00 0.  1.
         14    1    4    4    0    0  0.11616363122E+02 -0.94542404586E+01  0.51118873024E+02  0.53267830198E+02  0.00000000000E+00 0. -1.
         -5    1    5    5    0  502 -0.44394859596E+02 -0.16068656235E+01  0.47347506408E+01  0.44922081867E+02  0.47000000000E+01 0.  1.
         13    1    6    6    0    0  0.64486577493E+01 -0.40866693405E+02  0.41727977554E+01  0.41582256525E+02  0.00000000000E+00 0. -1.
        -14    1    6    6    0    0  0.93784951662E+02  0.97263988622E+00  0.61830844502E+02  0.11233706654E+03  0.00000000000E+00 0.  1.
</event>
<event>
12    1  0.8684423E-002  0.2037335E+03  0.7818608E-02  0.1149032E+00
         21   -1    0    0  503  502  0.00000000000E+00  0.00000000000E+00  0.58499429547E+03  0.58499429547E+03  0.00000000000E+00 0.  1.
         21   -1    0    0  501  503 -0.00000000000E+00 -0.00000000000E+00 -0.79791646721E+02  0.79791646721E+02  0.00000000000E+00 0.  1.
          6    2    1    2  501    0 -0.72174978456E+02  0.45595767829E+02  0.11381659180E+03  0.22354858827E+03  0.17242840018E+03 0.  0.
         24    2    3    3    0    0 -0.75179916965E+00 -0.32498109308E+02  0.42974633467E+02  0.96109986400E+02  0.79584031398E+02 0.  0.
         -6    2    1    2    0  502  0.72174978456E+02 -0.45595767829E+02  0.39138605694E+03  0.44123735392E+03  0.18498420301E+03 0.  0.
        -24    2    5    5    0    0  0.51985738061E+02 -0.83692418764E+02  0.15060985901E+03  0.19658611699E+03  0.79093829350E+02 0.  0.
          5    1    3    3  501    0 -0.71423179286E+02  0.78093877137E+02  0.70841958337E+02  0.12743860187E+03  0.47000000000E+01 0. -1.
        -13    1    4    4    0    0  0.58836788001E+01  0.11567305081E+02 -0.17003016793E+02  0.21389782681E+02  0.00000000000E+00 0.  1.
         14    1    4    4    0    0 -0.66354779698E+01 -0.44065414388E+02  0.59977650260E+02  0.74720203719E+02  0.00000000000E+00 0. -1.
         -5    1    5    5    0  502  0.20189240395E+02  0.38096650935E+02  0.24077619794E+03  0.24465123693E+03  0.47000000000E+01 0.  1.
         13    1    6    6    0    0  0.21624839363E+02 -0.50495711017E+02  0.20021786353E+02  0.58466421451E+02  0.00000000000E+00 0. -1.
        -14    1    6    6    0    0  0.30360898698E+02 -0.33196707747E+02  0.13058807265E+03  0.13811969553E+03  0.00000000000E+00 0.  1.
</event>
<event>
12    1  0.8684423E-002  0.2805172E+03  0.7818608E-02  0.1095407E+00
         21   -1    0    0  503  502  0.00000000000E+00  0.00000000000E+00  0.12662380552E+04  0.12662380552E+04  0.00000000000E+00 0. -1.
         21   -1    0    0  501  503 -0.00000000000E+00 -0.00000000000E+00 -0.12693646747E+03  0.12693646747E+03  0.00000000000E+00 0.  1.
          6    2    1    2  501    0 -0.53237461281E+02  0.21470823496E+03  0.71978914166E+02  0.28960412903E+03  0.17249850441E+03 0.  0.
         24    2    3    3    0    0 -0.10081743964E+03  0.15528613940E+03  0.67964883777E+02  0.21322977325E+03  0.81054114930E+02 0.  0.
         -6    2    1    2    0  502  0.53237461281E+02 -0.21470823496E+03  0.10673226736E+04  0.11035703937E+04  0.17249948052E+03 0.  0.
        -24    2    5    5    0    0  0.43841985054E+02 -0.22506982220E+03  0.10587538276E+04  0.10865071998E+04  0.83424715767E+02 0.  0.
          5    1    3    3  501    0  0.47579978356E+02  0.59422095561E+02  0.40140303894E+01  0.76374355782E+02  0.47000000000E+01 0. -1.
        -11    1    4    4    0    0 -0.68115520305E+02  0.33490368720E+02  0.28713681845E+02  0.81152969314E+02  0.00000000000E+00 0.  1.
         12    1    4    4    0    0 -0.32701919332E+02  0.12179577068E+03  0.39251201932E+02  0.13207680394E+03  0.00000000000E+00 0. -1.
         -5    1    5    5    0  502  0.93954762268E+01  0.10361587237E+02  0.85688459611E+01  0.17063193860E+02  0.47000000000E+01 0.  1.
         11    1    6    6    0    0  0.51901564127E+02 -0.13395558813E+03  0.49665473370E+03  0.51701430972E+03  0.00000000000E+00 0. -1.
        -12    1    6    6    0    0 -0.80595790731E+01 -0.91114234069E+02  0.56209909393E+03  0.56949289009E+03  0.00000000000E+00 0.  1.
</event>
<event>
12    1  0.8684423E-002  0.2385871E+03  0.7818608E-02  0.1120915E+00
         21   -1    0    0  503  502  0.00000000000E+00  0.00000000000E+00  0.33915093700E+03  0.33915093700E+03  0.00000000000E+00 0.  1.
         21   -1    0    0  501  503 -0.00000000000E+00 -0.00000000000E+00 -0.20423070867E+03  0.20423070867E+03  0.00000000000E+00 0. -1.
          6    2    1    2  501    0 -0.63002440305E+02  0.15288655946E+03 -0.48259629674E+02  0.24341897110E+03  0.17198894175E+03 0.  0.
         24    2    3    3    0    0 -0.94127230029E+02  0.52942394021E+02 -0.27473186978E+02  0.13659315521E+03  0.78994186678E+02 0.  0.
         -6    2    1    2    0  502  0.63002440305E+02 -0.15288655946E+03  0.18317985800E+03  0.29996267457E+03  0.17052606313E+03 0.  0.
        -24    2    5    5    0    0  0.53892624948E+02 -0.43299228222E+02  0.15175202392E+03  0.18549796097E+03  0.81250098903E+02 0.  0.
          5    1    3    3  501    0  0.31124789724E+02  0.99944165441E+02 -0.20786442696E+02  0.10682581589E+03  0.47000000000E+01 0. -1.
        -11    1    4    4    0    0 -0.56744644918E+02  0.29763530124E+02  0.24414862530E+02  0.68570459855E+02  0.00000000000E+00 0.  1.
         12    1    4    4    0    0 -0.37382585111E+02  0.23178863897E+02 -0.51888049508E+02  0.68022695351E+02  0.00000000000E+00 0. -1.
         -5    1    5    5    0  502  0.91098153577E+01 -0.10958733124E+03  0.31427834086E+02  0.11446471360E+03  0.47000000000E+01 0.  1.
         13    1    6    6    0    0  0.18983818583E+01  0.17545778806E+02  0.50040720608E+01  0.18343907566E+02  0.00000000000E+00 0. -1.
        -14    1    6    6    0    0  0.51994243089E+02 -0.60845007028E+02  0.14674795186E+03  0.16715405340E+03  0.00000000000E+00 0.  1.
</event>
<event>
12    1  0.8684423E-002  0.1897477E+03  0.7818608E-02  0.1160128E+00
         21   -1    0    0  503  502  0.00000000000E+00  0.00000000000E+00  0.11049817541E+03  0.11049817541E+03  0.00000000000E+00 0. -1.
         21   -1    0    0  501  503 -0.00000000000E+00 -0.00000000000E+00 -0.43882796137E+03  0.43882796137E+03  0.00000000000E+00 0. -1.
          6    2    1    2  501    0  0.53863481548E+02 -0.52852279751E+02 -0.16405480185E+02  0.18422206791E+03  0.16725427470E+03 0.  0.
         24    2    3    3    0    0 -0.28716708068E+02 -0.36459870498E+02  0.15683270647E+02  0.94000248330E+02  0.80225371479E+02 0.  0.
         -6    2    1    2    0  502 -0.53863481548E+02  0.52852279751E+02 -0.31192430578E+03  0.36510406887E+03  0.17409644008E+03 0.  0.
        -24    2    5    5    0    0 -0.58365237326E+02  0.60058848493E+02 -0.98974051404E+02  0.15193253870E+03  0.79209009922E+02 0.  0.
          5    1    3    3  501    0  0.82580189616E+02 -0.16392409253E+02 -0.32088750832E+02  0.90221819579E+02  0.47000000000E+01 0. -1.
        -13    1    4    4    0    0 -0.42380542482E+02 -0.14137868483E+02 -0.20653360046E+02  0.49219416773E+02  0.00000000000E+00 0.  1.
         14    1    4    4    0    0  0.13663834414E+02 -0.22322002015E+02  0.36336630693E+02  0.44780831557E+02  0.00000000000E+00 0. -1.
         -5    1    5    5    0  502  0.45017557780E+01 -0.72065687421E+01 -0.21295025437E+03  0.21317153017E+03  0.47000000000E+01 0.  1.
         13    1    6    6    0    0 -0.73546493345E+02  0.26834891879E+02 -0.73627490437E+02  0.10747188215E+03  0.00000000000E+00 0. -1.
        -14    1    6    6    0    0  0.15181256018E+02  0.33223956614E+02 -0.25346560967E+02  0.44460656543E+02  0.00000000000E+00 0.  1.
</event>
<event>
12    1  0.8684423E-002  0.1893909E+03  0.7818608E-02  0.1162345E+00
         21   -1    0    0  501  502  0.00000000000E+00  0.00000000000E+00  0.34133399652E+02  0.34133399652E+02  0.00000000000E+00 0. -1.
         21   -1    0    0  502  503 -0.00000000000E+00 -0.00000000000E+00 -0.10412426302E+04  0.10412426302E+04  0.00000000000E+00 0.  1.
         -6    2    1    2    0  503  0.75735824908E+02 -0.20985924194E+02 -0.62191903748E+03  0.64614369906E+03  0.15665907717E+03 0.  0.
        -24    2    3    3    0    0  0.10218559381E+03 -0.35098289154E+02 -0.57408432193E+03  0.58949567057E+03  0.79111007152E+02 0.  0.
          6    2    1    2  501    0 -0.75735824908E+02  0.20985924194E+02 -0.38519019303E+03  0.42923233075E+03  0.17231536430E+03 0.  0.
         24    2    5    5    0    0  0.69344263502E+01  0.24008971886E+02 -0.29439052005E+03  0.30630885915E+03  0.80838245240E+02 0.  0.
          5    1    5    5  501    0 -0.82670251259E+02 -0.30230476923E+01 -0.90799672970E+02  0.12292347161E+03  0.47000000000E+01 0. -1.
        -11    1    6    6    0    0 -0.20031772144E+02  0.32423055711E+02 -0.66283122340E+02  0.76459000412E+02  0.00000000000E+00 0.  1.
         12    1    6    6    0    0  0.26966198494E+02 -0.84140838250E+01 -0.22810739771E+03  0.22984985873E+03  0.00000000000E+00 0. -1.
         -5    1    3    3    0  503 -0.26449768898E+02  0.14112364960E+02 -0.47834715552E+02  0.56648028487E+02  0.47000000000E+01 0.  1.
         11    1    4    4    0    0  0.34134654139E+02 -0.27598244006E+02 -0.85220853530E+02  0.95861522843E+02  0.00000000000E+00 0. -1.
        -12    1    4    4    0    0  0.68050939667E+02 -0.75000451481E+01 -0.48886346840E+03  0.49363414773E+03  0.00000000000E+00 0.  1.
</event>
<event>
12    1  0.8684423E-002  0.1923572E+03  0.7818608E-02  0.1156452E+00
         21   -1    0    0  503  502  0.00000000000E+00  0.00000000000E+00  0.14219306345E+03  0.14219306345E+03  0.00000000000E+00 0.  1.
         21   -1    0    0  501  503 -0.00000000000E+00 -0.00000000000E+00 -0.32932053984E+03  0.32932053984E+03  0.00000000000E+00 0. -1.
          6    2    1    2  501    0 -0.84536502608E+02  0.15668814653E+02 -0.20194439707E+03  0.27858658959E+03  0.17157218994E+03 0.  0.
         24    2    3    3    0    0 -0.61841358085E+02  0.45358549457E+02 -0.51267495914E+02  0.12327345917E+03  0.81769419826E+02 0.  0.
         -6    2    1    2    0  502  0.84536502608E+02 -0.15668814653E+02  0.14816920688E+02  0.19292701370E+03  0.17207370355E+03 0.  0.
        -24    2    5    5    0    0  0.12605068753E+02  0.20635410742E+02 -0.46513211053E+02  0.91558364618E+02  0.75064954502E+02 0.  0.
          5    1    3    3  501    0 -0.22695144523E+02 -0.29689734805E+02 -0.15067690116E+03  0.15531313042E+03  0.47000000000E+01 0. -1.
        -11    1    4    4    0    0 -0.45253638164E+02 -0.73851118683E+01  0.28040854575E+01  0.45937942266E+02  0.00000000000E+00 0.  1.
         12    1    4    4    0    0 -0.16587719921E+02  0.52743661326E+02 -0.54071581371E+02  0.77335516900E+02  0.00000000000E+00 0. -1.
         -5    1    5    5    0  502  0.71931433855E+02 -0.36304225395E+02  0.61330131741E+02  0.10136864908E+03  0.47000000000E+01 0.  1.
         13    1    6    6    0    0  0.23352699838E+02  0.44980739913E+02 -0.21558204357E+02  0.55076054034E+02  0.00000000000E+00 0. -1.
        -14    1    6    6    0    0 -0.10747631085E+02 -0.24345329171E+02 -0.24955006696E+02  0.36482310585E+02  0.00000000000E+00 0.  1.
</event>
<event>
12    1  0.8684423E-002  0.4754795E+03  0.7818608E-02  0.1020446E+00
         21   -1    0    0  501  502  0.00000000000E+00  0.00000000000E+00  0.36455062240E+03  0.36455062240E+03  0.00000000000E+00 0. -1.
         21   -1    0    0  502  503 -0.00000000000E+00 -0.00000000000E+00 -0.67929138457E+03  0.67929138457E+03  0.00000000000E+00 0. -1.
         -6    2    1    2    0  503 -0.41420652383E+03 -0.15593146185E+03 -0.17649980141E+01  0.47460167534E+03  0.17135334793E+03 0.  0.
        -24    2    3    3    0    0 -0.30232361163E+03 -0.10220868928E+03 -0.65195454689E+02  0.33514044357E+03  0.78882743932E+02 0.  0.
          6    2    1    2  501    0  0.41420652383E+03  0.15593146185E+03 -0.31297576416E+03  0.56924033162E+03  0.17377877033E+03 0.  0.
         24    2    5    5    0    0  0.15026800004E+03  0.71676677546E+01 -0.14074651669E+03  0.22070164732E+03  0.79169361948E+02 0.  0.
          5    1    5    5  501    0  0.26393852378E+03  0.14876379410E+03 -0.17222924747E+03  0.34853868430E+03  0.47000000000E+01 0. -1.
        -11    1    6    6    0    0  0.10869287925E+02 -0.11716580557E+02  0.63231572468E+01  0.17187262653E+02  0.00000000000E+00 0.  1.
         12    1    6    6    0    0  0.13939871212E+03  0.18884248311E+02 -0.14706967394E+03  0.20351438467E+03  0.00000000000E+00 0. -1.
         -5    1    3    3    0  503 -0.11188291220E+03 -0.53722772574E+02  0.63430456675E+02  0.13946123178E+03  0.47000000000E+01 0.  1.
         13    1    4    4    0    0 -0.24280885740E+03 -0.11226252478E+03 -0.62570195441E+02  0.27472539937E+03  0.00000000000E+00 0. -1.
        -14    1    4    4    0    0 -0.59514754224E+02  0.10053835502E+02 -0.26252592480E+01  0.60415044192E+02  0.00000000000E+00 0.  1.
</event>
<event>
12    1  0.8684423E-002  0.2649722E+03  0.7818608E-02  0.1104309E+00
         21   -1    0    0  503  502  0.00000000000E+00  0.00000000000E+00  0.32782915079E+03  0.32782915079E+03  0.00000000000E+00 0. -1.
         21   -1    0    0  501  503 -0.00000000000E+00 -0.00000000000E+00 -0.42057085219E+03  0.42057085219E+03  0.00000000000E+00 0.  1.
          6    2    1    2  501    0 -0.20117706757E+03  0.87685458814E+01 -0.30888790782E+03  0.40645049001E+03  0.17100047168E+03 0.  0.
         24    2    3    3    0    0 -0.94516504032E+02 -0.26013883507E+02 -0.24667319882E+03  0.27807972533E+03  0.82888931419E+02 0.  0.
         -6    2    1    2    0  502  0.20117706757E+03 -0.87685458814E+01  0.21614620642E+03  0.34194951297E+03  0.17222423453E+03 0.  0.
        -24    2    5    5    0    0  0.17183614693E+03 -0.65184681700E+02  0.17239094280E+03  0.26461722283E+03  0.80789438277E+02 0.  0.
          5    1    3    3  501    0 -0.10666056353E+03  0.34782429389E+02 -0.62214709002E+02  0.12837076468E+03  0.47000000000E+01 0. -1.
        -13    1    4    4    0    0 -0.86227926002E+02 -0.39068113043E+02 -0.13238054178E+03  0.16274575423E+03  0.00000000000E+00 0.  1.
         14    1    4    4    0    0 -0.82885780302E+01  0.13054229536E+02 -0.11429265704E+03  0.11533397109E+03  0.00000000000E+00 0. -1.
         -5    1    5    5    0  502  0.29340920640E+02  0.56416135819E+02  0.43755263616E+02  0.77332290143E+02  0.47000000000E+01 0.  1.
         11    1    6    6    0    0  0.54224906882E+02 -0.14244094171E+01  0.96783744604E+02  0.11094801796E+03  0.00000000000E+00 0. -1.
        -12    1    6    6    0    0  0.11761124004E+03 -0.63760272283E+02  0.75607198200E+02  0.15366920487E+03  0.00000000000E+00 0.  1.
</event>
<event>
12    1  0.8684423E-002  0.2165881E+03  0.7818608E-02  0.1136463E+00
         21   -1    0    0  503  502  0.00000000000E+00  0.00000000000E+00  0.94013886431E+03  0.94013886431E+03  0.00000000000E+00 0. -1.
         21   -1    0    0  501  503 -0.00000000000E+00 -0.00000000000E+00 -0.52915011456E+02  0.52915011456E+02  0.00000000000E+00 0. -1.
          6    2    1    2  501    0 -0.13167787380E+03  0.75813799193E+01  0.32472663382E+03  0.39029892380E+03  0.17172455690E+03 0.  0.
         24    2    3    3    0    0 -0.21110978254E+02 -0.23604076878E+02  0.72333689408E+02  0.11295102045E+03  0.80764748185E+02 0.  0.
         -6    2    1    2    0  502  0.13167787380E+03 -0.75813799193E+01  0.56249721904E+03  0.60275495196E+03  0.17179601544E+03 0.  0.
        -24    2    5    5    0    0  0.18140364089E+02  0.43216278661E+02  0.23980389117E+03  0.25688757553E+03  0.79300697930E+02 0.  0.
          5    1    3    3  501    0 -0.11056689555E+03  0.31185456798E+02  0.25239294441E+03  0.27734790335E+03  0.47000000000E+01 0. -1.
        -11    1    4    4    0    0  0.82004507220E+01 -0.38976276202E+02  0.69019837785E+02  0.79687737492E+02  0.00000000000E+00 0.  1.
         12    1    4    4    0    0 -0.29311428976E+02  0.15372199324E+02  0.33138516230E+01  0.33263282959E+02  0.00000000000E+00 0. -1.
         -5    1    5    5    0  502  0.11353750971E+03 -0.50797658580E+02  0.32269332787E+03  0.34586737643E+03  0.47000000000E+01 0.  1.
         13    1    6    6    0    0  0.40477626228E+02  0.51553098545E+02  0.14490886002E+03  0.15904319509E+03  0.00000000000E+00 0. -1.
        -14    1    6    6    0    0 -0.22337262139E+02 -0.83368198845E+01  0.94895031151E+02  0.97844380436E+02  0.00000000000E+00 0.  1.
</event>
<event>
12    1  0.8684423E-002  0.1873531E+03  0.7818608E-02  0.1161435E+00
         21   -1    0    0  503  502  0.00000000000E+00  0.00000000000E+00  0.36754099604E+03  0.36754099604E+03  0.00000000000E+00 0. -1.
         21   -1    0    0  501  503 -0.00000000000E+00 -0.00000000000E+00 -0.94773344197E+02  0.94773344197E+02  0.00000000000E+00 0. -1.
          6    2    1    2  501    0  0.57721967894E+02  0.42814002209E+02  0.15422649614E+03  0.24266644382E+03  0.17302117351E+03 0.  0.
         24    2    3    3    0    0  0.87247890960E+01  0.88209772528E+02  0.89470733401E+02  0.14951657372E+03  0.80579822330E+02 0.  0.
         -6    2    1    2    0  502 -0.57721967894E+02 -0.42814002209E+02  0.11854115570E+03  0.21964789641E+03  0.17037701852E+03 0.  0.
        -24    2    5    5    0    0 -0.78147460342E+02 -0.56253100856E+02  0.25748940542E+02  0.12357347053E+03  0.73047640387E+02 0.  0.
          5    1    3    3  501    0  0.48997178798E+02 -0.45395770319E+02  0.64755762739E+02  0.93149870107E+02  0.47000000000E+01 0. -1.
        -13    1    4    4    0    0  0.57694883093E+01  0.45425875475E+02 -0.47088992123E+01  0.46032280953E+02  0.00000000000E+00 0.  1.
         14    1    4    4    0    0  0.29553007866E+01  0.42783897054E+02  0.94179632613E+02  0.10348429276E+03  0.00000000000E+00 0. -1.
         -5    1    5    5    0  502  0.20425492447E+02  0.13439098647E+02  0.92792215162E+02  0.96074425883E+02  0.47000000000E+01 0.  1.
         11    1    6    6    0    0 -0.38489455225E+02 -0.61814750564E+02 -0.51387602286E+01  0.72999372652E+02  0.00000000000E+00 0. -1.
        -12    1    6    6    0    0 -0.39658005117E+02  0.55616497089E+01  0.30887700770E+02  0.50574097878E+02  0.00000000000E+00 0.  1.
</event>
<event>
12    1  0.8684423E-002  0.2183795E+03  0.7818608E-02  0.1135144E+00
         21   -1    0    0  501  502  0.00000000000E+00  0.00000000000E+00  0.70385209756E+02  0.70385209756E+02  0.00000000000E+00 0. -1.
         21   -1    0    0  502  503 -0.00000000000E+00 -0.00000000000E+00 -0.71602781563E+03  0.71602781563E+03  0.00000000000E+00 0. -1.
         -6    2    1    2    0  503  0.10995305249E+03 -0.75899807513E+02 -0.23059667113E+03  0.31742184509E+03  0.17242780654E+03 0.  0.
        -24    2    3    3    0    0  0.91234808547E+02 -0.74168784136E+00 -0.20138310908E+03  0.23450840941E+03  0.78196528489E+02 0.  0.
          6    2    1    2  501    0 -0.10995305249E+03  0.75899807513E+02 -0.41504593474E+03  0.46899118029E+03  0.17274010744E+03 0.  0.
         24    2    5    5    0    0 -0.13701514213E+03  0.40833458377E+02 -0.25727714118E+03  0.30505494952E+03  0.80165293985E+02 0.  0.
          5    1    5    5  501    0  0.27062089645E+02  0.35066349136E+02 -0.15776879356E+03  0.16393623077E+03  0.47000000000E+01 0. -1.
        -13    1    6    6    0    0  0.78282583504E+01  0.87518252578E+01 -0.42001487762E+02  0.43611936994E+02  0.00000000000E+00 0.  1.
         14    1    6    6    0    0 -0.14484340048E+03  0.32081633119E+02 -0.21527565341E+03  0.26144301253E+03  0.00000000000E+00 0. -1.
         -5    1    3    3    0  503  0.18718243939E+02 -0.75158119672E+02 -0.29213562052E+02  0.82913435682E+02  0.47000000000E+01 0.  1.
         13    1    4    4    0    0  0.10491843357E+03 -0.54048984907E+01 -0.16821009892E+03  0.19832228319E+03  0.00000000000E+00 0. -1.
        -14    1    4    4    0    0 -0.13683625026E+02  0.46632106493E+01 -0.33173010159E+02  0.36186126214E+02  0.00000000000E+00 0.  1.
</event>
<event>
12    1  0.8684423E-002  0.2135685E+03  0.7818608E-02  0.1139028E+00
         21   -1    0    0  503  502  0.00000000000E+00  0.00000000000E+00  0.38085999129E+03  0.38085999129E+03  0.00000000000E+00 0.  1.
         21   -1    0    0  501  503 -0.00000000000E+00 -0.00000000000E+00 -0.12792512405E+03  0.12792512405E+03  0.00000000000E+00 0.  1.
          6    2    1    2  501    0  0.51101059454E+02  0.11462971662E+03  0.19396004693E+03  0.28849959664E+03  0.17280112050E+03 0.  0.
         24    2    3    3    0    0  0.67967309828E+02  0.20340641832E+02  0.14638093998E+03  0.18144465073E+03  0.80383361301E+02 0.  0.
         -6    2    1    2    0  502 -0.51101059454E+02 -0.11462971662E+03  0.58974820304E+02  0.22028551870E+03  0.17116188276E+03 0.  0.
        -24    2    5    5    0    0 -0.42923394943E+02 -0.13781836624E+03  0.74030922394E+01  0.16295907800E+03  0.75263107958E+02 0.  0.
          5    1    3    3  501    0 -0.16866250373E+02  0.94289074786E+02  0.47579106950E+02  0.10705494591E+03  0.47000000000E+01 0. -1.
        -11    1    4    4    0    0  0.20489920753E+02  0.47734526349E+02  0.62905990160E+02  0.81581771592E+02  0.00000000000E+00 0.  1.
         12    1    4    4    0    0  0.47477389075E+02 -0.27393884517E+02  0.83474949819E+02  0.99862879137E+02  0.00000000000E+00 0. -1.
         -5    1    5    5    0  502 -0.81776645111E+01  0.23188649626E+02  0.51571728064E+02  0.57326440705E+02  0.47000000000E+01 0.  1.
         13    1    6    6    0    0  0.15175639473E+02 -0.66320324835E+01 -0.84806170473E+01  0.18606578240E+02  0.00000000000E+00 0. -1.
        -14    1    6    6    0    0 -0.58099034416E+02 -0.13118633376E+03  0.15883709287E+02  0.14435249976E+03  0.00000000000E+00 0.  1.
</event>
<event>
12    1  0.8684423E-002  0.1887627E+03  0.7818608E-02  0.1162074E+00
         21   -1    0    0  501  502  0.00000000000E+00  0.00000000000E+00  0.35704788824E+03  0.35704788824E+03  0.00000000000E+00 0.  1.
         21   -1    0    0  502  503 -0.00000000000E+00 -0.00000000000E+00 -0.98155957941E+02  0.98155957941E+02  0.00000000000E+00 0.  1.
         -6    2    1    2    0  503 -0.38264930654E+02 -0.20723750451E+02  0.80502382013E+02  0.19548441751E+03  0.17274213507E+03 0.  0.
        -24    2    3    3    0    0 -0.79318497556E+02 -0.53208433729E+02  0.56167051328E+02  0.13756250177E+03  0.81523878497E+02 0.  0.
          6    2    1    2  501    0  0.38264930654E+02  0.20723750451E+02  0.17838954829E+03  0.25971942867E+03  0.18367817491E+03 0.  0.
         24    2    5    5    0    0  0.17560427605E+02  0.78020437189E+02  0.65932238969E+02  0.13173379207E+03  0.81309129868E+02 0.  0.
          5    1    5    5  501    0  0.20704503049E+02 -0.57296686738E+02  0.11245730932E+03  0.12798563661E+03  0.47000000000E+01 0. -1.
        -11    1    6    6    0    0  0.19361393075E+01 -0.68978590019E+01  0.41339985745E+02  0.41956209500E+02  0.00000000000E+00 0.  1.
         12    1    6    6    0    0  0.15624288297E+02  0.84918296191E+02  0.24592253224E+02  0.89777582566E+02  0.00000000000E+00 0. -1.
         -5    1    3    3    0  503  0.41053566903E+02  0.32484683278E+02  0.24335330685E+02  0.57921915737E+02  0.47000000000E+01 0.  1.
         11    1    4    4    0    0 -0.25974270743E+02  0.20098446832E+02  0.26405748304E+02  0.42141118272E+02  0.00000000000E+00 0. -1.
        -12    1    4    4    0    0 -0.53344226813E+02 -0.73306880561E+02  0.29761303023E+02  0.95421383503E+02  0.00000000000E+00 0.  1.
</event>
<event>
12    1  0.8684423E-002  0.1740541E+03  0.7818608E-02  0.1174034E+00
         21   -1    0    0  503  502  0.00000000000E+00  0.00000000000E+00  0.24746160015E+03  0.24746160015E+03  0.00000000000E+00 0. -1.
         21   -1    0    0  501  503 -0.00000000000E+00 -0.00000000000E+00 -0.61170647827E+03  0.61170647827E+03  0.00000000000E+00 0. -1.
          6    2    1    2  501    0 -0.17362914116E+02 -0.16294869970E+02 -0.56655728836E+03  0.59228769618E+03  0.17102795234E+03 0.  0.
         24    2    3    3    0    0 -0.49288025289E+02 -0.61024237099E+02 -0.30403472153E+03  0.32403386657E+03  0.80047285009E+02 0.  0.
         -6    2    1    2    0  502  0.17362914116E+02  0.16294869970E+02  0.20231241023E+03  0.26688038224E+03  0.17241761371E+03 0.  0.
        -24    2    5    5    0    0  0.39225740065E+02  0.30842103436E+02  0.21702236333E+03  0.23641601158E+03  0.79397294143E+02 0.  0.
          5    1    3    3  501    0  0.31925111173E+02  0.44729367128E+02 -0.26252256682E+03  0.26825382961E+03  0.47000000000E+01 0. -1.
        -11    1    4    4    0    0 -0.14600415159E+02 -0.35568885362E+02 -0.36344144754E+02  0.52907604242E+02  0.00000000000E+00 0.  1.
         12    1    4    4    0    0 -0.34687610130E+02 -0.25455351736E+02 -0.26769057678E+03  0.27112626233E+03  0.00000000000E+00 0. -1.
         -5    1    5    5    0  502 -0.21862825949E+02 -0.14547233465E+02 -0.14709953097E+02  0.30464370666E+02  0.47000000000E+01 0.  1.
         11    1    6    6    0    0 -0.15702433684E+02  0.22468096026E+02  0.13222507757E+03  0.13503648730E+03  0.00000000000E+00 0. -1.
        -12    1    6    6    0    0  0.54928173749E+02  0.83740074092E+01  0.84797285756E+02  0.10137952428E+03  0.00000000000E+00 0.  1.
</event>
<event>
12    1  0.8684423E-002  0.1786009E+03  0.7818608E-02  0.1170060E+00
         21   -1    0    0  503  502  0.00000000000E+00  0.00000000000E+00  0.25458208310E+03  0.25458208310E+03  0.00000000000E+00 0. -1.
         21   -1    0    0  501  503 -0.00000000000E+00 -0.00000000000E+00 -0.19230249664E+03  0.19230249664E+03  0.00000000000E+00 0. -1.
          6    2    1    2  501    0 -0.22275652472E+02 -0.22570866662E+02 -0.10301560083E+03  0.20618071711E+03  0.17576298068E+03 0.  0.
         24    2    3    3    0    0 -0.79777044332E+02 -0.31954064737E+02 -0.85938661004E+02  0.14528600185E+03  0.79606091626E+02 0.  0.
         -6    2    1    2    0  502  0.22275652472E+02  0.22570866662E+02  0.16529518729E+03  0.24070386264E+03  0.17207615126E+03 0.  0.
        -24    2    5    5    0    0  0.15551612102E+00 -0.50397899646E+02  0.11396589153E+03  0.14866839181E+03  0.81080785730E+02 0.  0.
          5    1    3    3  501    0  0.57501391860E+02  0.93831980757E+01 -0.17076939830E+02  0.60894715255E+02  0.47000000000E+01 0. -1.
        -11    1    4    4    0    0 -0.26903266477E+02 -0.32251850438E+02  0.26876038610E+01  0.42085517917E+02  0.00000000000E+00 0.  1.
         12    1    4    4    0    0 -0.52873777854E+02  0.29778570013E+00 -0.88626264865E+02  0.10320048394E+03  0.00000000000E+00 0. -1.
         -5    1    5    5    0  502  0.22120136351E+02  0.72968766308E+02  0.51329295760E+02  0.92035470835E+02  0.47000000000E+01 0.  1.
         11    1    6    6    0    0 -0.81827572247E+01 -0.54925744813E+02  0.12338064193E+03  0.13530180251E+03  0.00000000000E+00 0. -1.
        -12    1    6    6    0    0  0.83382733457E+01  0.45278451676E+01 -0.94147503990E+01  0.13366589293E+02  0.00000000000E+00 0.  1.
</event>
<event>
12    1  0.8684423E-002  0.1974289E+03  0.7818608E-02  0.1152006E+00
         21   -1    0    0  503  502  0.00000000000E+00  0.00000000000E+00  0.22607319545E+03  0.22607319545E+03  0.00000000000E+00 0.  1.
         21   -1    0    0  501  503 -0.00000000000E+00 -0.00000000000E+00 -0.24327101783E+03  0.24327101783E+03  0.00000000000E+00 0.  1.
          6    2    1    2  501    0  0.19518572873E+02 -0.95798206204E+02 -0.13553278232E+03  0.23916748136E+03  0.17109552319E+03 0.  0.
         24    2    3    3    0    0  0.62704682166E+02 -0.51593722105E+02 -0.13253684543E+03  0.17711796816E+03  0.84917430023E+02 0.  0.
         -6    2    1    2    0  502 -0.19518572873E+02  0.95798206204E+02  0.11833495994E+03  0.23017673193E+03  0.17152228479E+03 0.  0.
        -24    2    5    5    0    0  0.27464211378E+02  0.33148212157E+02  0.21067592981E+01  0.89950170983E+02  0.78952567718E+02 0.  0.
          5    1    3    3  501    0 -0.43186109294E+02 -0.44204484099E+02 -0.29959368901E+01  0.62049513199E+02  0.47000000000E+01 0. -1.
        -13    1    4    4    0    0  0.17399344569E+02 -0.30998331116E+02 -0.22538048850E-02  0.35547626200E+02  0.00000000000E+00 0.  1.
         14    1    4    4    0    0  0.45305337597E+02 -0.20595390989E+02 -0.13253459163E+03  0.14157034196E+03  0.00000000000E+00 0. -1.
         -5    1    5    5    0  502 -0.46982784251E+02  0.62649994047E+02  0.11622820064E+03  0.14022656095E+03  0.47000000000E+01 0.  1.
         11    1    6    6    0    0  0.16839996292E+02  0.55789069537E+02  0.17173113574E+02  0.60752955358E+02  0.00000000000E+00 0. -1.
        -12    1    6    6    0    0  0.10624215086E+02 -0.22640857380E+02 -0.15066354276E+02  0.29197215625E+02  0.00000000000E+00 0.  1.
</event>
<event>
12    1  0.8684423E-002  0.2353923E+03  0.7818608E-02  0.1123169E+00
         21   -1    0    0  501  502  0.00000000000E+00  0.00000000000E+00  0.10168113793E+04  0.10168113793E+04  0.00000000000E+00 0. -1.
         21   -1    0    0  502  503 -0.00000000000E+00 -0.00000000000E+00 -0.93567643562E+02  0.93567643562E+02  0.00000000000E+00 0. -1.
         -6    2    1    2    0  503  0.82407651417E+01  0.15806412412E+03  0.10208140863E+03  0.25657388208E+03  0.17423365184E+03 0.  0.
        -24    2    3    3    0    0 -0.16915667386E+02  0.11906279948E+03  0.13618833347E+03  0.19878701728E+03  0.80665519526E+02 0.  0.
          6    2    1    2  501    0 -0.82407651417E+01 -0.15806412412E+03  0.82116232708E+03  0.85380514076E+03  0.17211471005E+03 0.  0.
         24    2    5    5    0    0 -0.28898487104E+02 -0.18250552519E+02  0.39830314602E+03  0.40792785574E+03  0.81188263547E+02 0.  0.
          5    1    5    5  501    0  0.20657721962E+02 -0.13981357160E+03  0.42285918106E+03  0.44587728501E+03  0.47000000000E+01 0. -1.
        -13    1    6    6    0    0  0.21970712362E+02  0.15301215266E+02  0.10485085483E+03  0.10821525377E+03  0.00000000000E+00 0.  1.
         14    1    6    6    0    0 -0.50869199466E+02 -0.33551767785E+02  0.29345229119E+03  0.29971260197E+03  0.00000000000E+00 0. -1.
         -5    1    3    3    0  503  0.25156432528E+02  0.39001324639E+02 -0.34106924846E+02  0.57786864801E+02  0.47000000000E+01 0.  1.
         11    1    4    4    0    0 -0.71752277888E+01  0.12709048221E+03  0.10455260815E+03  0.16472620446E+03  0.00000000000E+00 0. -1.
        -12    1    4    4    0    0 -0.97404395971E+01 -0.80276827302E+01  0.31635725321E+02  0.34060812823E+02  0.00000000000E+00 0.  1.
</event>
<event>
12    1  0.8684423E-002  0.2249417E+03  0.7818608E-02  0.1130551E+00
         21   -1    0    0  501  502  0.00000000000E+00  0.00000000000E+00  0.50310833805E+02  0.50310833805E+02  0.00000000000E+00 0.  1.
         21   -1    0    0  502  503 -0.00000000000E+00 -0.00000000000E+00 -0.10442623159E+04  0.10442623159E+04  0.00000000000E+00 0.  1.
         -6    2    1    2    0  503 -0.10639207194E+03  0.96010916577E+02 -0.61346183995E+03  0.65340200977E+03  0.17338220271E+03 0.  0.
        -24    2    3    3    0    0 -0.82374136453E+02  0.88564783698E+02 -0.61069886507E+03  0.62767206321E+03  0.79936824187E+02 0.  0.
          6    2    1    2  501    0  0.10639207194E+03 -0.96010916577E+02 -0.38048964219E+03  0.44117113998E+03  0.17123737287E+03 0.  0.
         24    2    5    5    0    0 -0.10825011916E+02 -0.46551823902E+02 -0.19506342064E+03  0.21624666325E+03  0.80178726003E+02 0.  0.
          5    1    5    5  501    0  0.11721708386E+03 -0.49459092675E+02 -0.18542622154E+03  0.22492447673E+03  0.47000000000E+01 0. -1.
        -13    1    6    6    0    0  0.29308584228E+02  0.31292142432E+01 -0.62128580222E+02  0.68765875052E+02  0.00000000000E+00 0.  1.
         14    1    6    6    0    0 -0.40133596144E+02 -0.49681038145E+02 -0.13293484042E+03  0.14748078820E+03  0.00000000000E+00 0. -1.
         -5    1    3    3    0  503 -0.24017935487E+02  0.74461328788E+01 -0.27629748813E+01  0.25729946562E+02  0.47000000000E+01 0.  1.
         13    1    4    4    0    0  0.50326874980E+00  0.92671718843E+01 -0.22713904723E+03  0.22732857395E+03  0.00000000000E+00 0. -1.
        -14    1    4    4    0    0 -0.82877405202E+02  0.79297611814E+02 -0.38355981784E+03  0.40034348926E+03  0.00000000000E+00 0.  1.
</event>
<event>
12    1  0.8684423E-002  0.1845186E+03  0.7818608E-02  0.1163604E+00
         21   -1    0    0  501  502  0.00000000000E+00  0.00000000000E+00  0.35312856736E+03  0.35312856736E+03  0.00000000000E+00 0.  1.
         21   -1    0    0  502  503 -0.00000000000E+00 -0.00000000000E+00 -0.13407813746E+03  0.13407813746E+03  0.00000000000E+00 0.  1.
         -6    2    1    2    0  503 -0.64030149226E+02  0.14155794426E+02 -0.20072147776E+02  0.18516909897E+03  0.17200133014E+03 0.  0.
        -24    2    3    3    0    0 -0.42897241704E+02  0.55439123341E+02 -0.63278904033E+02  0.12160946703E+03  0.76622275040E+02 0.  0.
          6    2    1    2  501    0  0.64030149226E+02 -0.14155794426E+02  0.23912257767E+03  0.30203760585E+03  0.17247278530E+03 0.  0.
         24    2    5    5    0    0  0.22976745004E+02  0.20189948898E+02  0.38407494041E+02  0.94254914368E+02  0.80456748856E+02 0.  0.
          5    1    5    5  501    0  0.41053404222E+02 -0.34345743324E+02  0.20071508363E+03  0.20778269148E+03  0.47000000000E+01 0. -1.
        -11    1    6    6    0    0 -0.76008768772E+01 -0.21762558716E+02  0.35413585439E+02  0.42255228372E+02  0.00000000000E+00 0.  1.
         12    1    6    6    0    0  0.30577621881E+02  0.41952507613E+02  0.29939086023E+01  0.51999685996E+02  0.00000000000E+00 0. -1.
         -5    1    3    3    0  503 -0.21132907522E+02 -0.41283328914E+02  0.43206756257E+02  0.63559631944E+02  0.47000000000E+01 0.  1.
         13    1    4    4    0    0 -0.45231917765E+02  0.18164480537E+02 -0.71765082420E+00  0.48748228281E+02  0.00000000000E+00 0. -1.
        -14    1    4    4    0    0  0.23346760609E+01  0.37274642804E+02 -0.62561253209E+02  0.72861238746E+02  0.00000000000E+00 0.  1.
</event>
<event>
12    1  0.8684423E-002  0.2539923E+03  0.7818608E-02  0.1110987E+00
         21   -1    0    0  501  502  0.00000000000E+00  0.00000000000E+00  0.25596901387E+03  0.25596901387E+03  0.00000000000E+00 0. -1.
         21   -1    0    0  502  503 -0.00000000000E+00 -0.00000000000E+00 -0.25677989319E+03  0.25677989319E+03  0.00000000000E+00 0.  1.
         -6    2    1    2    0  503  0.58141247343E+02 -0.17723683956E+03  0.38440157623E+02  0.25574167332E+03  0.17068349602E+03 0.  0.
        -24    2    3    3    0    0  0.86878378806E+02 -0.72490520692E+02  0.10693854085E+02  0.14353845856E+03  0.87670988797E+02 0.  0.
          6    2    1    2  501    0 -0.58141247343E+02  0.17723683956E+03 -0.39251036944E+02  0.25700723374E+03  0.17239133491E+03 0.  0.
         24    2    5    5    0    0  0.13944095328E+02  0.56986720122E+02 -0.59903588831E+02  0.11521511212E+03  0.79019985073E+02 0.  0.
          5    1    5    5  501    0 -0.72085342671E+02  0.12025011944E+03  0.20652551888E+02  0.14179212162E+03  0.47000000000E+01 0. -1.
        -11    1    6    6    0    0  0.23798548052E+02  0.52230631517E+02 -0.32223201771E+01  0.57487329955E+02  0.00000000000E+00 0.  1.
         12    1    6    6    0    0 -0.98544527236E+01  0.47560886049E+01 -0.56681268654E+02  0.57727782164E+02  0.00000000000E+00 0. -1.
         -5    1    3    3    0  503 -0.28737131464E+02 -0.10474631887E+03  0.27746303538E+02  0.11220321476E+03  0.47000000000E+01 0.  1.
         13    1    4    4    0    0  0.88853035682E+02 -0.63377481840E+02  0.37306037093E+02  0.11533996514E+03  0.00000000000E+00 0. -1.
        -14    1    4    4    0    0 -0.19746568756E+01 -0.91130388521E+01 -0.26612183008E+02  0.28198493424E+02  0.00000000000E+00 0.  1.
</event>
<event>
12    1  0.8684423E-002  0.1957871E+03  0.7818608E-02  0.1153347E+00
         21   -1    0    0  501  502  0.00000000000E+00  0.00000000000E+00  0.50588558600E+03  0.50588558600E+03  0.00000000000E+00 0. -1.
         21   -1    0    0  502  503 -0.00000000000E+00 -0.00000000000E+00 -0.83457947743E+02  0.83457947743E+02  0.00000000000E+00 0. -1.
         -6    2    1    2    0  503 -0.21280025165E+02  0.90811795927E+02  0.30066391414E+03  0.35878122304E+03  0.17212075700E+03 0.  0.
        -24    2    3    3    0    0  0.48590591327E+02  0.60123653951E+02  0.13316001937E+03  0.17465270850E+03  0.82438331465E+02 0.  0.
          6    2    1    2  501    0  0.21280025165E+02 -0.90811795927E+02  0.12176372412E+03  0.23056231070E+03  0.17214224599E+03 0.  0.
         24    2    5    5    0    0  0.62789516974E+02 -0.36764892688E+02  0.12130052190E+03  0.16225118265E+03  0.79482380951E+02 0.  0.
          5    1    5    5  501    0 -0.41509491809E+02 -0.54046903238E+02  0.46320221854E+00  0.68311128055E+02  0.47000000000E+01 0. -1.
        -13    1    6    6    0    0 -0.69708412110E+01 -0.16554903475E+02  0.72640251170E+02  0.74828226935E+02  0.00000000000E+00 0.  1.
         14    1    6    6    0    0  0.69760358185E+02 -0.20209989213E+02  0.48660270728E+02  0.87422955712E+02  0.00000000000E+00 0. -1.
         -5    1    3    3    0  503 -0.69870616493E+02  0.30688141975E+02  0.16750389476E+03  0.18412851454E+03  0.47000000000E+01 0.  1.
         13    1    4    4    0    0 -0.15722230547E+02 -0.27088991810E+01  0.48875041340E+02  0.51412997716E+02  0.00000000000E+00 0. -1.
        -14    1    4    4    0    0  0.64312821875E+02  0.62832553132E+02  0.84284978035E+02  0.12323971078E+03  0.00000000000E+00 0.  1.
</event>
<event>
12    1  0.8684423E-002  0.2730999E+03  0.7818608E-02  0.1099545E+00
         21   -1    0    0  503  502  0.00000000000E+00  0.00000000000E+00  0.92162850911E+02  0.92162850911E+02  0.00000000000E+00 0.  1.
         21   -1    0    0  501  503 -0.00000000000E+00 -0.00000000000E+00 -0.98308462934E+03  0.98308462934E+03  0.00000000000E+00 0. -1.
          6    2    1    2  501    0 -0.11954567033E+03 -0.17538531872E+03 -0.21890965455E+03  0.34986216990E+03  0.17155443379E+03 0.  0.
         24    2    3    3    0    0 -0.55993052593E+02 -0.15369318298E+03 -0.21622320861E+03  0.28249162020E+03  0.79323534389E+02 0.  0.
         -6    2    1    2    0  502  0.11954567033E+03  0.17538531872E+03 -0.67201212389E+03  0.72538531035E+03  0.17184986619E+03 0.  0.
        -24    2    5    5    0    0  0.30769253500E+02  0.77311171283E+02 -0.16574457804E+03  0.20209886054E+03  0.80305168679E+02 0.  0.
          5    1    3    3  501    0 -0.63552617742E+02 -0.21692135738E+02 -0.26864459342E+01  0.67370549697E+02  0.47000000000E+01 0. -1.
        -11    1    4    4    0    0  0.20840171765E+01 -0.91550946805E+01  0.59767721827E+01  0.11130170346E+02  0.00000000000E+00 0.  1.
         12    1    4    4    0    0 -0.58077069769E+02 -0.14453808830E+03 -0.22219998080E+03  0.27136144986E+03  0.00000000000E+00 0. -1.
         -5    1    5    5    0  502  0.88776416834E+02  0.98074147438E+02 -0.50626754584E+03  0.52328644981E+03  0.47000000000E+01 0.  1.
         11    1    6    6    0    0  0.57758436945E+02  0.49095917563E+02 -0.12021553032E+03  0.14212044149E+03  0.00000000000E+00 0. -1.
        -12    1    6    6    0    0 -0.26989183444E+02  0.28215253720E+02 -0.45529047722E+02  0.59978419052E+02  0.00000000000E+00 0.  1.
</event>
<event>
12    1  0.8684423E-002  0.2656832E+03  0.7818608E-02  0.1103863E+00
         21   -1    0    0  503  502  0.00000000000E+00  0.00000000000E+00  0.40016932698E+03  0.40016932698E+03  0.00000000000E+00 0. -1.
         21   -1    0    0  501  503 -0.00000000000E+00 -0.00000000000E+00 -0.49746888852E+03  0.49746888852E+03  0.00000000000E+00 0.  1.
          6    2    1    2  501    0  0.19937343680E+03  0.35727917943E+02 -0.40942345017E+03  0.48774936863E+03  0.17101354807E+03 0.  0.
         24    2    3    3    0    0  0.66230013984E+02 -0.40159943045E+02 -0.16566770619E+03  0.19978219826E+03  0.80423268340E+02 0.  0.
         -6    2    1    2    0  502 -0.19937343680E+03 -0.35727917943E+02  0.31212388864E+03  0.40988884687E+03  0.17193398010E+03 0.  0.
        -24    2    5    5    0    0 -0.41032208309E+02 -0.25949757210E+02  0.57558130362E+02  0.10989989316E+03  0.80050085116E+02 0.  0.
          5    1    3    3  501    0  0.13314342281E+03  0.75887860987E+02 -0.24375574399E+03  0.28796717037E+03  0.47000000000E+01 0. -1.
        -11    1    4    4    0    0  0.43515791451E+02  0.19478045270E+02 -0.65537582677E+02  0.81044389666E+02  0.00000000000E+00 0.  1.
         12    1    4    4    0    0  0.22714222533E+02 -0.59637988315E+02 -0.10013012351E+03  0.11873780859E+03  0.00000000000E+00 0. -1.
         -5    1    5    5    0  502 -0.15834122849E+03 -0.97781607323E+01  0.25456575828E+03  0.29998895372E+03  0.47000000000E+01 0.  1.
         11    1    6    6    0    0 -0.47521815028E+02 -0.34025887304E+02  0.71614668111E+02  0.92437787723E+02  0.00000000000E+00 0. -1.
        -12    1    6    6    0    0  0.64896067186E+01  0.80761300940E+01 -0.14056537750E+02  0.17462105433E+02  0.00000000000E+00 0.  1.
</event>
<event>
12    1  0.8684423E-002  0.1862858E+03  0.7818608E-02  0.1162894E+00
         21   -1    0    0  503  502  0.00000000000E+00  0.00000000000E+00  0.21300037807E+03  0.21300037807E+03  0.00000000000E+00 0.  1.
         21   -1    0    0  501  503 -0.00000000000E+00 -0.00000000000E+00 -0.16120135471E+03  0.16120135471E+03  0.00000000000E+00 0.  1.
          6    2    1    2  501    0  0.48672889411E+02 -0.35153107190E+02  0.46846371460E+01  0.18634465029E+03  0.17634509281E+03 0.  0.
         24    2    3    3    0    0  0.96872332396E+02  0.34868472087E+01  0.18560016148E+02  0.12285568650E+03  0.73161729200E+02 0.  0.
         -6    2    1    2    0  502 -0.48672889411E+02  0.35153107190E+02  0.47114386210E+02  0.18785708250E+03  0.17165583866E+03 0.  0.
        -24    2    5    5    0    0  0.15757155652E+02 -0.83136637658E+01 -0.21369575267E+02  0.84161692707E+02  0.79430012040E+02 0.  0.
          5    1    3    3  501    0 -0.48199442985E+02 -0.38639954399E+02 -0.13875379002E+02  0.63488963785E+02  0.47000000000E+01 0. -1.
        -13    1    4    4    0    0  0.82391441530E+02  0.18594188728E+01 -0.17246389821E+02  0.84197654587E+02  0.00000000000E+00 0.  1.
         14    1    4    4    0    0  0.14480890866E+02  0.16274283359E+01  0.35806405969E+02  0.38658031917E+02  0.00000000000E+00 0. -1.
         -5    1    5    5    0  502 -0.64430045063E+02  0.43466770956E+02  0.68483961477E+02  0.10369538979E+03  0.47000000000E+01 0.  1.
         11    1    6    6    0    0  0.94663395818E+01 -0.30494927548E+02  0.19372933198E+02  0.37347861142E+02  0.00000000000E+00 0. -1.
        -12    1    6    6    0    0  0.62908160705E+01  0.22181263782E+02 -0.40742508464E+02  0.46813831565E+02  0.00000000000E+00 0.  1.
</event>
<event>
12    1  0.8684423E-002  0.2294681E+03  0.7818608E-02  0.1127556E+00
         21   -1    0    0  503  502  0.00000000000E+00  0.00000000000E+00  0.64003927615E+03  0.64003927615E+03  0.00000000000E+00 0. -1.
         21   -1    0    0  501  503 -0.00000000000E+00 -0.00000000000E+00 -0.88318231191E+02  0.88318231191E+02  0.00000000000E+00 0.  1.
          6    2    1    2  501    0 -0.14850758765E+03 -0.32675431215E+02  0.17064461467E+03  0.28352623211E+03  0.16776576642E+03 0.  0.
         24    2    3    3    0    0 -0.16340134313E+03 -0.62100465765E+02  0.13622434106E+03  0.23562527339E+03  0.80035814334E+02 0.  0.
         -6    2    1    2    0  502  0.14850758765E+03  0.32675431215E+02  0.38107643028E+03  0.44483127523E+03  0.17185293221E+03 0.  0.
        -24    2    5    5    0    0  0.31353043376E+02  0.35044535712E+02  0.26106714479E+03  0.27703640491E+03  0.79887312792E+02 0.  0.
          5    1    3    3  501    0  0.14893755485E+02  0.29425034550E+02  0.34420273613E+02  0.47900958721E+02  0.47000000000E+01 0. -1.
        -11    1    4    4    0    0 -0.14099501326E+03 -0.32928363740E+02  0.72213620961E+02  0.16179826314E+03  0.00000000000E+00 0.  1.
         12    1    4    4    0    0 -0.22406329876E+02 -0.29172102025E+02  0.64010720097E+02  0.73827010250E+02  0.00000000000E+00 0. -1.
         -5    1    5    5    0  502  0.11715454427E+03 -0.23691044975E+01  0.12000928549E+03  0.16779487032E+03  0.47000000000E+01 0.  1.
         13    1    6    6    0    0  0.24534158057E+02  0.60959731895E+02  0.19326711694E+03  0.20413278109E+03  0.00000000000E+00 0. -1.
        -14    1    6    6    0    0  0.68188853185E+01 -0.25915196182E+02  0.67800027853E+02  0.72903623826E+02  0.00000000000E+00 0.  1.
</event>
<event>
12    1  0.8684423E-002  0.2615183E+03  0.7818608E-02  0.1106438E+00
         21   -1    0    0  501  502  0.00000000000E+00  0.00000000000E+00  0.10262003529E+03  0.10262003529E+03  0.00000000000E+00 0.  1.
         21   -1    0    0  502  503 -0.00000000000E+00 -0.00000000000E+00 -0.85807904298E+03  0.85807904298E+03  0.00000000000E+00 0.  1.
         -6    2    1    2    0  503  0.19141292863E+03  0.39092321826E+02 -0.60600517674E+03  0.65948777350E+03  0.17179851652E+03 0.  0.
        -24    2    3    3    0    0  0.55570415020E+02 -0.36459594835E+02 -0.27381704122E+03  0.29270128520E+03  0.79252111731E+02 0.  0.
          6    2    1    2  501    0 -0.19141292863E+03 -0.39092321826E+02 -0.14945383095E+03  0.30121130478E+03  0.17385247675E+03 0.  0.
         24    2    5    5    0    0 -0.10041507650E+03 -0.50000824235E+02 -0.15472102432E+02  0.13881426634E+03  0.80291622069E+02 0.  0.
          5    1    5    5  501    0 -0.90997852134E+02  0.10908502410E+02 -0.13398172852E+03  0.16239703844E+03  0.47000000000E+01 0. -1.
        -13    1    6    6    0    0 -0.22729274013E+02  0.12127179778E+02 -0.28584058606E+02  0.38480342942E+02  0.00000000000E+00 0.  1.
         14    1    6    6    0    0 -0.77685802482E+02 -0.62128004013E+02  0.13111956175E+02  0.10033392340E+03  0.00000000000E+00 0. -1.
         -5    1    3    3    0  503  0.13584251361E+03  0.75551916661E+02 -0.33218813553E+03  0.36678648830E+03  0.47000000000E+01 0.  1.
         11    1    4    4    0    0  0.74134021800E+02 -0.38506570188E+02 -0.23919698316E+03  0.25336496579E+03  0.00000000000E+00 0. -1.
        -12    1    4    4    0    0 -0.18563606780E+02  0.20469753527E+01 -0.34620058061E+02  0.39336319412E+02  0.00000000000E+00 0.  1.
</event>
<event>
12    1  0.8684423E-002  0.2638695E+03  0.7818608E-02  0.1104931E+00
         21   -1    0    0  501  502  0.00000000000E+00  0.00000000000E+00  0.14670945715E+03  0.14670945715E+03  0.00000000000E+00 0. -1.
         21   -1    0    0  502  503 -0.00000000000E+00 -0.00000000000E+00 -0.52309038857E+03  0.52309038857E+03  0.00000000000E+00 0.  1.
         -6    2    1    2    0  503  0.19619917999E+03 -0.38239080962E+02 -0.29112243974E+03  0.39249829556E+03  0.17130759339E+03 0.  0.
        -24    2    3    3    0    0  0.41259389778E+02 -0.23195997534E+02 -0.48687580318E+02  0.10435009755E+03  0.79234278162E+02 0.  0.
          6    2    1    2  501    0 -0.19619917999E+03  0.38239080962E+02 -0.85258491687E+02  0.27730155016E+03  0.17225212271E+03 0.  0.
         24    2    5    5    0    0 -0.16865200750E+03  0.37083366859E+02 -0.12604885253E+03  0.22784322503E+03  0.78775289520E+02 0.  0.
          5    1    5    5  501    0 -0.27547172486E+02  0.11557141029E+01  0.40790360842E+02  0.49458325130E+02  0.47000000000E+01 0. -1.
        -13    1    6    6    0    0 -0.12072323226E+03  0.49493294980E+02 -0.12122609496E+03  0.17809955405E+03  0.00000000000E+00 0.  1.
         14    1    6    6    0    0 -0.47928775244E+02 -0.12409928121E+02 -0.48227575713E+01  0.49743670984E+02  0.00000000000E+00 0. -1.
         -5    1    3    3    0  503  0.15493979021E+03 -0.15043083427E+02 -0.24243485942E+03  0.28814819800E+03  0.47000000000E+01 0.  1.
         13    1    4    4    0    0  0.38141005703E+02 -0.31716180510E+02  0.50413706739E+01  0.49860483756E+02  0.00000000000E+00 0. -1.
        -14    1    4    4    0    0  0.31183840755E+01  0.85201829752E+01 -0.53728950992E+02  0.54489613798E+02  0.00000000000E+00 0.  1.
</event>
<event>
12    1  0.8684423E-002  0.2120750E+03  0.7818608E-02  0.1142462E+00
         21   -1    0    0  501  502  0.00000000000E+00  0.00000000000E+00  0.90861567775E+02  0.90861567775E+02  0.00000000000E+00 0. -1.
         21   -1    0    0  502  503 -0.00000000000E+00 -0.00000000000E+00 -0.10054614881E+04  0.10054614881E+04  0.00000000000E+00 0. -1.
         -6    2    1    2    0  503 -0.29120141445E+01 -0.12534527719E+03 -0.85220976964E+03  0.87526123117E+03  0.15524436535E+03 0.  0.
        -24    2    3    3    0    0  0.54958257505E+02 -0.79379974341E+02 -0.51293781689E+03  0.52800149361E+03  0.79741976788E+02 0.  0.
          6    2    1    2  501    0  0.29120141445E+01  0.12534527719E+03 -0.62390150735E+02  0.22106182476E+03  0.17104350650E+03 0.  0.
         24    2    5    5    0    0  0.20773508252E+02  0.14106828025E+02 -0.69525802843E+02  0.10807495350E+03  0.78840453270E+02 0.  0.
          5    1    5    5  501    0 -0.17861494108E+02  0.11123844917E+03  0.71356521085E+01  0.11298687125E+03  0.47000000000E+01 0. -1.
        -13    1    6    6    0    0  0.41574444629E+02  0.28167609568E+02 -0.65674251350E+02  0.82673792494E+02  0.00000000000E+00 0.  1.
         14    1    6    6    0    0 -0.20800936376E+02 -0.14060781543E+02 -0.38515514933E+01  0.25401161010E+02  0.00000000000E+00 0. -1.
         -5    1    3    3    0  503 -0.57870271650E+02 -0.45965302851E+02 -0.33927195275E+03  0.34725973756E+03  0.47000000000E+01 0.  1.
         11    1    4    4    0    0  0.20828428318E+02 -0.16664576559E+02 -0.33803761899E+03  0.33908843004E+03  0.00000000000E+00 0. -1.
        -12    1    4    4    0    0  0.34129829187E+02 -0.62715397782E+02 -0.17490019790E+03  0.18891306357E+03  0.00000000000E+00 0.  1.
</event>
<event>
12    1  0.8684423E-002  0.2426228E+03  0.7818608E-02  0.1118152E+00
         21   -1    0    0  501  502  0.00000000000E+00  0.00000000000E+00  0.16766192517E+04  0.16766192517E+04  0.00000000000E+00 0.  1.
         21   -1    0    0  502  503 -0.00000000000E+00 -0.00000000000E+00 -0.43644432448E+02  0.43644432448E+02  0.00000000000E+00 0.  1.
         -6    2    1    2    0  503 -0.14468315970E+03 -0.89937465378E+02  0.43352466285E+03  0.49652085888E+03  0.17195163744E+03 0.  0.
        -24    2    3    3    0    0 -0.11997721977E+03 -0.11303294091E+03  0.42314076913E+03  0.46083192913E+03  0.78402662020E+02 0.  0.
          6    2    1    2  501    0  0.14468315970E+03  0.89937465378E+02  0.11994501564E+04  0.12237428252E+04  0.17275375637E+03 0.  0.
         24    2    5    5    0    0  0.50558275626E+02  0.26258998947E+02  0.31896436522E+03  0.33594118113E+03  0.88727316164E+02 0.  0.
          5    1    5    5  501    0  0.94124884070E+02  0.63678466431E+02  0.88048579114E+03  0.88780164411E+03  0.47000000000E+01 0. -1.
        -13    1    6    6    0    0  0.13753260585E+02  0.42222488509E+02  0.64342949693E+02  0.78178679241E+02  0.00000000000E+00 0.  1.
         14    1    6    6    0    0  0.36805015041E+02 -0.15963489563E+02  0.25462141553E+03  0.25776250188E+03  0.00000000000E+00 0. -1.
         -5    1    3    3    0  503 -0.24705939926E+02  0.23095475528E+02  0.10383893722E+02  0.35688929744E+02  0.47000000000E+01 0.  1.
         11    1    4    4    0    0 -0.14492349197E+02  0.12089752281E+02  0.44769247189E+02  0.48584727943E+02  0.00000000000E+00 0. -1.
        -12    1    4    4    0    0 -0.10548487057E+03 -0.12512269319E+03  0.37837152194E+03  0.41224720119E+03  0.00000000000E+00 0.  1.
</event>
<event>
12    1  0.8684423E-002  0.2090289E+03  0.7818608E-02  0.1142502E+00
         21   -1    0    0  501  502  0.00000000000E+00  0.00000000000E+00  0.42304166960E+03  0.42304166960E+03  0.00000000000E+00 0.  1.
         21   -1    0    0  502  503 -0.00000000000E+00 -0.00000000000E+00 -0.10314100597E+03  0.10314100597E+03  0.00000000000E+00 0.  1.
         -6    2    1    2    0  503 -0.11382561495E+03  0.34291859340E+02  0.14628450663E+03  0.25445551508E+03  0.17092761637E+03 0.  0.
        -24    2    3    3    0    0  0.22902605111E+01 -0.74578663727E+01  0.37646698564E+02  0.89986066635E+02  0.81359407640E+02 0.  0.
          6    2    1    2  501    0  0.11382561495E+03 -0.34291859340E+02  0.17361615700E+03  0.27172716049E+03  0.17193277042E+03 0.  0.
         24    2    5    5    0    0  0.52634800267E+02  0.43621562448E+02  0.96181639835E+02  0.14589786524E+03  0.85802193037E+02 0.  0.
          5    1    5    5  501    0  0.61190814678E+02 -0.77913421788E+02  0.77434517169E+02  0.12582929526E+03  0.47000000000E+01 0. -1.
        -13    1    6    6    0    0  0.63731796160E+02  0.32768503226E+02  0.29606991554E+02  0.77537672098E+02  0.00000000000E+00 0.  1.
         14    1    6    6    0    0 -0.11096995893E+02  0.10853059222E+02  0.66574648281E+02  0.68360193139E+02  0.00000000000E+00 0. -1.
         -5    1    3    3    0  503 -0.11611587546E+03  0.41749725713E+02  0.10863780806E+03  0.16446944844E+03  0.47000000000E+01 0.  1.
         13    1    4    4    0    0 -0.19469857607E+02  0.11234888660E+02  0.52913241899E+02  0.57490079550E+02  0.00000000000E+00 0. -1.
        -14    1    4    4    0    0  0.21760118118E+02 -0.18692755032E+02 -0.15266543335E+02  0.32495987085E+02  0.00000000000E+00 0.  1.
</event>
<event>
12    1  0.8684423E-002  0.2863339E+03  0.7818608E-02  0.1092419E+00
         21   -1    0    0  503  502  0.00000000000E+00  0.00000000000E+00  0.11350122173E+04  0.11350122173E+04  0.00000000000E+00 0. -1.
         21   -1    0    0  501  503 -0.00000000000E+00 -0.00000000000E+00 -0.88211204798E+02  0.88211204798E+02  0.00000000000E+00 0.  1.
          6    2    1    2  501    0  0.83862562012E+02 -0.21105026382E+03  0.26017354703E+03  0.38610342011E+03  0.17265698155E+03 0.  0.
         24    2    3    3    0    0 -0.98665319289E+01 -0.38408247877E+02  0.90502246730E+02  0.12648668554E+03  0.78966340928E+02 0.  0.
         -6    2    1    2    0  502 -0.83862562012E+02  0.21105026382E+03  0.78662746547E+03  0.83712000199E+03  0.17439032409E+03 0.  0.
        -24    2    5    5    0    0 -0.26286554323E+02  0.82610605748E+02  0.18666396376E+03  0.22084892867E+03  0.80095685325E+02 0.  0.
          5    1    3    3  501    0  0.93729093941E+02 -0.17264201594E+03  0.16967130030E+03  0.25961673456E+03  0.47000000000E+01 0. -1.
        -11    1    4    4    0    0 -0.23413449242E+02 -0.44148124280E+02  0.18961779960E+02  0.53448999823E+02  0.00000000000E+00 0.  1.
         12    1    4    4    0    0  0.13546917313E+02  0.57398764033E+01  0.71540466770E+02  0.73037685721E+02  0.00000000000E+00 0. -1.
         -5    1    5    5    0  502 -0.57576007689E+02  0.12843965807E+03  0.59996350171E+03  0.61627107332E+03  0.47000000000E+01 0.  1.
         13    1    6    6    0    0  0.26099328670E+02  0.19491619085E+02  0.31373742768E+02  0.45226208186E+02  0.00000000000E+00 0. -1.
        -14    1    6    6    0    0 -0.52385882993E+02  0.63118986662E+02  0.15529022099E+03  0.17562272048E+03  0.00000000000E+00 0.  1.
</event>
<event>
12    1  0.8684423E-002  0.2351447E+03  0.7818608E-02  0.1123713E+00
         21   -1    0    0  501  502  0.00000000000E+00  0.00000000000E+00  0.20616852903E+03  0.20616852903E+03  0.00000000000E+00 0. -1.
         21   -1    0    0  502  503 -0.00000000000E+00 -0.00000000000E+00 -0.28849671020E+03  0.28849671020E+03  0.00000000000E+00 0.  1.
         -6    2    1    2    0  503  0.76398140535E+02 -0.13803022575E+03  0.31264238261E+02  0.23352111025E+03  0.16930929461E+03 0.  0.
        -24    2    3    3    0    0  0.21845949458E+02 -0.10843183842E+03 -0.34150254995E+02  0.14322630413E+03  0.84337566893E+02 0.  0.
          6    2    1    2  501    0 -0.76398140535E+02  0.13803022575E+03 -0.11359241943E+03  0.26114412898E+03  0.17436742600E+03 0.  0.
         24    2    5    5    0    0 -0.11919969372E+03  0.11985156212E+03 -0.10144368158E+03  0.21285211517E+03  0.80263556318E+02 0.  0.
          5    1    5    5  501    0  0.42801553189E+02  0.18178663633E+02 -0.12148737860E+02  0.48292013817E+02  0.47000000000E+01 0. -1.
        -13    1    6    6    0    0 -0.36374790375E+02  0.19462244140E+02 -0.66227778314E+02  0.78025783829E+02  0.00000000000E+00 0.  1.
         14    1    6    6    0    0 -0.82824903350E+02  0.10038931798E+03 -0.35215903261E+02  0.13482633134E+03  0.00000000000E+00 0. -1.
         -5    1    3    3    0  503  0.54552191077E+02 -0.29598387337E+02  0.65414493256E+02  0.90294806119E+02  0.47000000000E+01 0.  1.
         13    1    4    4    0    0  0.54157205911E+02 -0.59716180282E+02 -0.18543831323E+02  0.82721815863E+02  0.00000000000E+00 0. -1.
        -14    1    4    4    0    0 -0.32311256453E+02 -0.48715658134E+02 -0.15606423671E+02  0.60504488270E+02  0.00000000000E+00 0.  1.
</event>
<event>
12    1  0.8684423E-002  0.1835708E+03  0.7818608E-02  0.1164937E+00
         21   -1    0    0  501  502  0.00000000000E+00  0.00000000000E+00  0.45939182410E+03  0.45939182410E+03  0.00000000000E+00 0.  1.
         21   -1    0    0  502  503 -0.00000000000E+00 -0.00000000000E+00 -0.72985441364E+02  0.72985441364E+02  0.00000000000E+00 0.  1.
         -6    2    1    2    0  503 -0.62539268328E+02 -0.14922991715E+02  0.21746380863E+03  0.28458519482E+03  0.17194292449E+03 0.  0.
        -24    2    3    3    0    0  0.20536507166E+02 -0.28321892878E+02  0.60350545152E+02  0.10629390903E+03  0.80201802064E+02 0.  0.
          6    2    1    2  501    0  0.62539268328E+02  0.14922991715E+02  0.16894257410E+03  0.24779207064E+03  0.16948587305E+03 0.  0.
         24    2    5    5    0    0  0.33701313428E+02  0.60004388153E+02  0.44041011233E+02  0.11182718417E+03  0.76350529295E+02 0.  0.
          5    1    5    5  501    0  0.28837954900E+02 -0.45081396438E+02  0.12490156287E+03  0.13596488648E+03  0.47000000000E+01 0. -1.
        -13    1    6    6    0    0  0.66417223491E+01  0.48272376493E+02 -0.10478779767E+02  0.49841143982E+02  0.00000000000E+00 0.  1.
         14    1    6    6    0    0  0.27059591079E+02  0.11732011660E+02  0.54519791000E+02  0.61986040184E+02  0.00000000000E+00 0. -1.
         -5    1    3    3    0  503 -0.83075775494E+02  0.13398901164E+02  0.15711326348E+03  0.17829128579E+03  0.47000000000E+01 0.  1.
         11    1    4    4    0    0 -0.14524792327E+02 -0.44372018389E+02  0.44830971757E+02  0.64727595635E+02  0.00000000000E+00 0. -1.
        -12    1    4    4    0    0  0.35061299493E+02  0.16050125510E+02  0.15519573395E+02  0.41566313397E+02  0.00000000000E+00 0.  1.
</event>
<event>
12    1  0.8684423E-002  0.1887563E+03  0.7818608E-02  0.1160126E+00
         21   -1    0    0  503  502  0.00000000000E+00  0.00000000000E+00  0.43662322267E+03  0.43662322267E+03  0.00000000000E+00 0. -1.
         21   -1    0    0  501  503 -0.00000000000E+00 -0.00000000000E+00 -0.80681393647E+02  0.80681393647E+02  0.00000000000E+00 0. -1.
          6    2    1    2  501    0 -0.49543991319E+02 -0.59809408613E+02  0.16802997331E+03  0.25095934565E+03  0.16945426759E+03 0.  0.
         24    2    3    3    0    0 -0.58613614430E+02 -0.35592139934E+02  0.19053980189E+03  0.21635419360E+03  0.76166690662E+02 0.  0.
         -6    2    1    2    0  502  0.49543991319E+02  0.59809408613E+02  0.18791185571E+03  0.26634527066E+03  0.17203826683E+03 0.  0.
        -24    2    5    5    0    0  0.52872097854E+02  0.29190416316E+02  0.28318446398E+02  0.10373916599E+03  0.79450242400E+02 0.  0.
          5    1    3    3  501    0  0.90696231107E+01 -0.24217268679E+02 -0.22509828574E+02  0.34605152045E+02  0.47000000000E+01 0. -1.
        -11    1    4    4    0    0 -0.15532157272E+02 -0.30871498235E+02  0.15910525344E+03  0.16281516817E+03  0.00000000000E+00 0.  1.
         12    1    4    4    0    0 -0.43081457157E+02 -0.47206416995E+01  0.31434548442E+02  0.53539025436E+02  0.00000000000E+00 0. -1.
         -5    1    5    5    0  502 -0.33281065349E+01  0.30618992297E+02  0.15959340931E+03  0.16260610468E+03  0.47000000000E+01 0.  1.
         13    1    6    6    0    0  0.58286728077E+02 -0.80408332639E+01  0.30066506757E+02  0.66075657379E+02  0.00000000000E+00 0. -1.
        -14    1    6    6    0    0 -0.54146302233E+01  0.37231249580E+02 -0.17480603587E+01  0.37663508609E+02  0.00000000000E+00 0.  1.
</event>
<event>
12    1  0.8684423E-002  0.1854313E+03  0.7818608E-02  0.1162904E+00
         21   -1    0    0  501  502  0.00000000000E+00  0.00000000000E+00  0.25490005446E+03  0.25490005446E+03  0.00000000000E+00 0. -1.
         21   -1    0    0  502  503 -0.00000000000E+00 -0.00000000000E+00 -0.14325511360E+03  0.14325511360E+03  0.00000000000E+00 0. -1.
         -6    2    1    2    0  503 -0.30986726397E+02  0.58131138344E+02  0.53336930055E+01  0.18441035617E+03  0.17216075256E+03 0.  0.
        -24    2    3    3    0    0  0.12801945183E+02  0.18265655935E+02  0.59804613127E+02  0.10381336128E+03  0.81872451053E+02 0.  0.
          6    2    1    2  501    0  0.30986726397E+02 -0.58131138344E+02  0.10631124786E+03  0.21374481189E+03  0.17333596490E+03 0.  0.
         24    2    5    5    0    0  0.68599363198E+02  0.21453014172E+01  0.36620562829E+02  0.11411127728E+03  0.83485585775E+02 0.  0.
          5    1    5    5  501    0 -0.37612636802E+02 -0.60276439761E+02  0.69690685031E+02  0.99633534603E+02  0.47000000000E+01 0. -1.
        -11    1    6    6    0    0  0.37206901087E+02  0.21245298787E+02  0.57607739767E+02  0.71793926555E+02  0.00000000000E+00 0.  1.
         12    1    6    6    0    0  0.31392462112E+02 -0.19099997369E+02 -0.20987176938E+02  0.42317350730E+02  0.00000000000E+00 0. -1.
         -5    1    3    3    0  503 -0.43788671579E+02  0.39865482409E+02 -0.54470920121E+02  0.80596994890E+02  0.47000000000E+01 0.  1.
         13    1    4    4    0    0  0.33729519452E+02 -0.20600360120E+02  0.19642451399E+02  0.44134807312E+02  0.00000000000E+00 0. -1.
        -14    1    4    4    0    0 -0.20927574270E+02  0.38866016055E+02  0.40162161728E+02  0.59678553966E+02  0.00000000000E+00 0.  1.
</event>
<event>
12    1  0.8684423E-002  0.3620184E+03  0.7818608E-02  0.1057831E+00
         21   -1    0    0  501  502  0.00000000000E+00  0.00000000000E+00  0.26433072708E+03  0.26433072708E+03  0.00000000000E+00 0.  1.
         21   -1    0    0  502  503 -0.00000000000E+00 -0.00000000000E+00 -0.76968893931E+03  0.76968893931E+03  0.00000000000E+00 0. -1.
         -6    2    1    2    0  503 -0.20587718122E+03  0.24295383184E+03 -0.56152378741E+03  0.66810650752E+03  0.17217828961E+03 0.  0.
        -24    2    3    3    0    0 -0.12650801573E+03  0.74784170263E+02 -0.23650672379E+03  0.29362195357E+03  0.93174412010E+02 0.  0.
          6    2    1    2  501    0  0.20587718122E+03 -0.24295383184E+03  0.56165575179E+02  0.36591315886E+03  0.17124803602E+03 0.  0.
         24    2    5    5    0    0  0.15255406788E+03 -0.22832155052E+03  0.88990461735E+02  0.30143819279E+03  0.86845884958E+02 0.  0.
          5    1    5    5  501    0  0.53323113340E+02 -0.14632281328E+02 -0.32824886556E+02  0.64474966076E+02  0.47000000000E+01 0. -1.
        -13    1    6    6    0    0  0.22871861614E+02 -0.43260918796E+02  0.53822356397E+02  0.72742526742E+02  0.00000000000E+00 0.  1.
         14    1    6    6    0    0  0.12968220626E+03 -0.18506063172E+03  0.35168105338E+02  0.22869566604E+03  0.00000000000E+00 0. -1.
         -5    1    3    3    0  503 -0.79369165489E+02  0.16816966158E+03 -0.32501706362E+03  0.37448455395E+03  0.47000000000E+01 0.  1.
         11    1    4    4    0    0 -0.10005195526E+03  0.89027778725E+02 -0.14536196989E+03  0.19765232462E+03  0.00000000000E+00 0. -1.
        -12    1    4    4    0    0 -0.26456060471E+02 -0.14243608463E+02 -0.91144753900E+02  0.95969628952E+02  0.00000000000E+00 0.  1.
</event>
<event>
12    1  0.8684423E-002  0.2087352E+03  0.7818608E-02  0.1143529E+00
         21   -1    0    0  503  502  0.00000000000E+00  0.00000000000E+00  0.16775627340E+03  0.16775627340E+03  0.00000000000E+00 0.  1.
         21   -1    0    0  501  503 -0.00000000000E+00 -0.00000000000E+00 -0.29194918108E+03  0.29194918108E+03  0.00000000000E+00 0. -1.
          6    2    1    2  501    0  0.80370134134E+02  0.82358277863E+02 -0.14449370408E+03  0.24998536669E+03  0.16843992593E+03 0.  0.
         24    2    3    3    0    0  0.67032111505E+02  0.12384024021E+03 -0.11581199064E+03  0.19760801726E+03  0.76202376860E+02 0.  0.
         -6    2    1    2    0  502 -0.80370134134E+02 -0.82358277863E+02  0.20300796402E+02  0.20972008778E+03  0.17414978752E+03 0.  0.
        -24    2    5    5    0    0 -0.67823923384E+02 -0.11928157896E+03 -0.10651414428E+02  0.15971141930E+03  0.81031507224E+02 0.  0.
          5    1    3    3  501    0  0.13338022629E+02 -0.41481962350E+02 -0.28681713443E+02  0.52377349438E+02  0.47000000000E+01 0. -1.
        -11    1    4    4    0    0 -0.81526480825E+00  0.25574587622E+02  0.67794440499E+01  0.26470456180E+02  0.00000000000E+00 0.  1.
         12    1    4    4    0    0  0.67847376313E+02  0.98265652591E+02 -0.12259143469E+03  0.17113756108E+03  0.00000000000E+00 0. -1.
         -5    1    5    5    0  502 -0.12546210750E+02  0.36923301099E+02  0.30952210830E+02  0.50008668484E+02  0.47000000000E+01 0.  1.
         11    1    6    6    0    0 -0.53336963216E+02 -0.56857433583E+02 -0.41801172571E+02  0.88458676381E+02  0.00000000000E+00 0. -1.
        -12    1    6    6    0    0 -0.14486960168E+02 -0.62424145379E+02  0.31149758144E+02  0.71252742920E+02  0.00000000000E+00 0.  1.
</event>
<event>
12    1  0.8684423E-002  0.2337643E+03  0.7818608E-02  0.1124116E+00
         21   -1    0    0  503  502  0.00000000000E+00  0.00000000000E+00  0.26520205422E+03  0.26520205422E+03  0.00000000000E+00 0. -1.
         21   -1    0    0  501  503 -0.00000000000E+00 -0.00000000000E+00 -0.26704754029E+03  0.26704754029E+03  0.00000000000E+00 0. -1.
          6    2    1    2  501    0  0.15479110061E+03  0.32176832084E+02 -0.12862667746E+03  0.26681559796E+03  0.17219206663E+03 0.  0.
         24    2    3    3    0    0  0.47265585235E+02 -0.38517119836E+02 -0.29613299335E+02  0.10438065609E+03  0.79377388465E+02 0.  0.
         -6    2    1    2    0  502 -0.15479110061E+03 -0.32176832084E+02  0.12678119140E+03  0.26543399654E+03  0.17142375179E+03 0.  0.
        -24    2    5    5    0    0 -0.17217413705E+03 -0.35059155871E+02  0.68514277315E+02  0.20437991377E+03  0.78764618177E+02 0.  0.
          5    1    3    3  501    0  0.10752551537E+03  0.70693951920E+02 -0.99013378128E+02  0.16243494188E+03  0.47000000000E+01 0. -1.
        -13    1    4    4    0    0  0.36751254023E+02  0.19054763354E+02 -0.15276371903E+02  0.44126026529E+02  0.00000000000E+00 0.  1.
         14    1    4    4    0    0  0.10514331212E+02 -0.57571883190E+02 -0.14336927432E+02  0.60254629557E+02  0.00000000000E+00 0. -1.
         -5    1    5    5    0  502  0.17383036444E+02  0.28823237872E+01  0.58266914082E+02  0.61054082772E+02  0.47000000000E+01 0.  1.
         11    1    6    6    0    0 -0.17580344838E+03 -0.24213970264E+02  0.73270328175E+02  0.19199403587E+03  0.00000000000E+00 0. -1.
        -12    1    6    6    0    0  0.36293113287E+01 -0.10845185607E+02 -0.47560508604E+01  0.12385877900E+02  0.00000000000E+00 0.  1.
</event>
<event>
12    1  0.8684423E-002  0.1893758E+03  0.7818608E-02  0.1160365E+00
         21   -1    0    0  503  502  0.00000000000E+00  0.00000000000E+00  0.10244611005E+03  0.10244611005E+03  0.00000000000E+00 0.  1.
         21   -1    0    0  501  503 -0.00000000000E+00 -0.00000000000E+00 -0.38414742034E+03  0.38414742034E+03  0.00000000000E+00 0.  1.
          6    2    1    2  501    0 -0.22724454315E+02  0.73914053847E+02 -0.22581843718E+03  0.29471540426E+03  0.17286848977E+03 0.  0.
         24    2    3    3    0    0  0.25729929254E+02  0.10110124466E+03 -0.17897352877E+03  0.22189022952E+03  0.79500056766E+02 0.  0.
         -6    2    1    2    0  502  0.22724454315E+02 -0.73914053847E+02 -0.55882873106E+02  0.19187812613E+03  0.16647712036E+03 0.  0.
        -24    2    5    5    0    0 -0.20426696278E+02 -0.93249275764E+02 -0.66876842927E+02  0.14310487551E+03  0.83029006517E+02 0.  0.
          5    1    3    3  501    0 -0.48454383569E+02 -0.27187190810E+02 -0.46844908418E+02  0.72825174740E+02  0.47000000000E+01 0. -1.
        -13    1    4    4    0    0 -0.19427239195E+01  0.62271621719E+02 -0.37777551064E+02  0.72860636918E+02  0.00000000000E+00 0.  1.
         14    1    4    4    0    0  0.27672653174E+02  0.38829622938E+02 -0.14119597770E+03  0.14902959260E+03  0.00000000000E+00 0. -1.
         -5    1    5    5    0  502  0.43151150592E+02  0.19335221917E+02  0.10993969821E+02  0.48773250624E+02  0.47000000000E+01 0.  1.
         13    1    6    6    0    0 -0.73379425398E+00 -0.69191634995E+02  0.17521666119E+00  0.69195747760E+02  0.00000000000E+00 0. -1.
        -14    1    6    6    0    0 -0.19692902024E+02 -0.24057640769E+02 -0.67052059588E+02  0.73909127748E+02  0.00000000000E+00 0.  1.
</event>
<event>
12    1  0.8684423E-002  0.3125452E+03  0.7818608E-02  0.1079194E+00
         21   -1    0    0  503  502  0.00000000000E+00  0.00000000000E+00  0.15959223677E+03  0.15959223677E+03  0.00000000000E+00 0. -1.
         21   -1    0    0  501  503 -0.00000000000E+00 -0.00000000000E+00 -0.75754491446E+03  0.75754491446E+03  0.00000000000E+00 0.  1.
          6    2    1    2  501    0  0.19303743213E+03  0.17529316796E+03 -0.50082292416E+03  0.59034573964E+03  0.17231757313E+03 0.  0.
         24    2    3    3    0    0  0.16437777556E+03  0.14230113691E+03 -0.49442025002E+03  0.54592801499E+03  0.79475450611E+02 0.  0.
         -6    2    1    2    0  502 -0.19303743213E+03 -0.17529316796E+03 -0.97129753532E+02  0.32679141159E+03  0.17136887912E+03 0.  0.
        -24    2    5    5    0    0 -0.17809662363E+03 -0.19242689037E+03 -0.58435149061E+02  0.28166764161E+03  0.84708194399E+02 0.  0.
          5    1    3    3  501    0  0.28659656570E+02  0.32992031048E+02 -0.64026741400E+01  0.44417724655E+02  0.47000000000E+01 0. -1.
        -11    1    4    4    0    0  0.73396250318E+02  0.18449998186E+02 -0.19946021790E+03  0.21333492569E+03  0.00000000000E+00 0.  1.
         12    1    4    4    0    0  0.90981525243E+02  0.12385113872E+03 -0.29496003212E+03  0.33259308930E+03  0.00000000000E+00 0. -1.
         -5    1    5    5    0  502 -0.14940808500E+02  0.17133722409E+02 -0.38694604471E+02  0.45123769982E+02  0.47000000000E+01 0.  1.
         13    1    6    6    0    0 -0.48102148865E+02 -0.11379190472E+03 -0.23036905216E+02  0.12567065412E+03  0.00000000000E+00 0. -1.
        -14    1    6    6    0    0 -0.12999447477E+03 -0.78634985643E+02 -0.35398243845E+02  0.15599698748E+03  0.00000000000E+00 0.  1.
</event>
<event>
12    1  0.8684423E-002  0.2070995E+03  0.7818608E-02  0.1144645E+00
         21   -1    0    0  501  502  0.00000000000E+00  0.00000000000E+00  0.17624654423E+03  0.17624654423E+03  0.00000000000E+00 0. -1.
         21   -1    0    0  502  503 -0.00000000000E+00 -0.00000000000E+00 -0.25575753368E+03  0.25575753368E+03  0.00000000000E+00 0.  1.
         -6    2    1    2    0  503 -0.83981422334E+01  0.11528730556E+03 -0.94743455100E+02  0.22434518138E+03  0.16731032995E+03 0.  0.
        -24    2    3    3    0    0  0.92378927679E+01  0.13170931804E+03 -0.31555408106E+02  0.15655483172E+03  0.77980692695E+02 0.  0.
          6    2    1    2  501    0  0.83981422334E+01 -0.11528730556E+03  0.15232465652E+02  0.20765889654E+03  0.17183858031E+03 0.  0.
         24    2    5    5    0    0  0.40398735534E+02 -0.13482076599E+03 -0.10794738906E+02  0.16177753403E+03  0.79036367303E+02 0.  0.
          5    1    5    5  501    0 -0.32000593301E+02  0.19533460425E+02  0.26027204558E+02  0.45881362500E+02  0.47000000000E+01 0. -1.
        -11    1    6    6    0    0  0.49630229845E+02 -0.86510664253E+02  0.22680608336E+02  0.10228227969E+03  0.00000000000E+00 0.  1.
         12    1    6    6    0    0 -0.92314943105E+01 -0.48310101733E+02 -0.33475347242E+02  0.59495254345E+02  0.00000000000E+00 0. -1.
         -5    1    3    3    0  503 -0.17636035001E+02 -0.16422012477E+02 -0.63188046994E+02  0.67790349662E+02  0.47000000000E+01 0.  1.
         13    1    4    4    0    0 -0.72491284030E+01 -0.77688958531E+01  0.45189607793E+01  0.11546714334E+02  0.00000000000E+00 0. -1.
        -14    1    4    4    0    0  0.16487021171E+02  0.13947821389E+03 -0.36074368885E+02  0.14500811739E+03  0.00000000000E+00 0.  1.
</event>
<event>
12    1  0.8684423E-002  0.1889639E+03  0.7818608E-02  0.1159639E+00
         21   -1    0    0  501  502  0.00000000000E+00  0.00000000000E+00  0.30793956056E+03  0.30793956056E+03  0.00000000000E+00 0. -1.
         21   -1    0    0  502  503 -0.00000000000E+00 -0.00000000000E+00 -0.12189746347E+03  0.12189746347E+03  0.00000000000E+00 0. -1.
         -6    2    1    2    0  503 -0.48715033489E+02 -0.62013007547E+02  0.42812038346E+02  0.19272483406E+03  0.17056149461E+03 0.  0.
        -24    2    3    3    0    0  0.18635320301E+02  0.15403946821E+02  0.93741313142E+01  0.84698732555E+02  0.80631533646E+02 0.  0.
          6    2    1    2  501    0  0.48715033489E+02  0.62013007547E+02  0.14323005874E+03  0.23711218998E+03  0.17172237278E+03 0.  0.
         24    2    5    5    0    0  0.51706420114E+02  0.10385670325E+03  0.13216047323E+03  0.19347196785E+03  0.80655086433E+02 0.  0.
          5    1    5    5  501    0 -0.29913866255E+01 -0.41843695704E+02  0.11069585518E+02  0.43640222131E+02  0.47000000000E+01 0. -1.
        -11    1    6    6    0    0 -0.21820319631E+02  0.18316749206E+02  0.25684995373E+02  0.38358162594E+02  0.00000000000E+00 0.  1.
         12    1    6    6    0    0  0.73526739746E+02  0.85539954045E+02  0.10647547785E+03  0.15511380525E+03  0.00000000000E+00 0. -1.
         -5    1    3    3    0  503 -0.67350353790E+02 -0.77416954369E+02  0.33437907032E+02  0.10802610150E+03  0.47000000000E+01 0.  1.
         13    1    4    4    0    0 -0.24214048137E+02  0.22915173069E+02 -0.12995730578E+02  0.35781479807E+02  0.00000000000E+00 0. -1.
        -14    1    4    4    0    0  0.42849368438E+02 -0.75112262482E+01  0.22369861892E+02  0.48917252747E+02  0.00000000000E+00 0.  1.
</event>
<event>
12    1  0.8684423E-002  0.2322694E+03  0.7818608E-02  0.1125115E+00
         21   -1    0    0  503  502  0.00000000000E+00  0.00000000000E+00  0.29734104300E+03  0.29734104300E+03  0.00000000000E+00 0. -1.
         21   -1    0    0  501  503 -0.00000000000E+00 -0.00000000000E+00 -0.18543401168E+03  0.18543401168E+03  0.00000000000E+00 0.  1.
          6    2    1    2  501    0 -0.41737761561E+02  0.15017034824E+03  0.92656356691E+02  0.25006851104E+03  0.17220884283E+03 0.  0.
         24    2    3    3    0    0  0.87994195179E+01  0.15889895657E+03  0.86661069093E+02  0.19822037946E+03  0.80342204082E+02 0.  0.
         -6    2    1    2    0  502  0.41737761561E+02 -0.15017034824E+03  0.19250674628E+02  0.23270654364E+03  0.17172237113E+03 0.  0.
        -24    2    5    5    0    0 -0.17315511541E+02 -0.42891459501E+02  0.51061738569E+02  0.10609658028E+03  0.80682581533E+02 0.  0.
          5    1    3    3  501    0 -0.50537181079E+02 -0.87286083254E+01  0.59952875985E+01  0.51848131578E+02  0.47000000000E+01 0. -1.
        -13    1    4    4    0    0 -0.20545448409E+02  0.76808259207E+02  0.76701891996E+02  0.11047535639E+03  0.00000000000E+00 0.  1.
         14    1    4    4    0    0  0.29344867926E+02  0.82090697361E+02  0.99591770966E+01  0.87745023079E+02  0.00000000000E+00 0. -1.
         -5    1    5    5    0  502  0.59053273102E+02 -0.10727888874E+03 -0.31811063941E+02  0.12660996336E+03  0.47000000000E+01 0.  1.
         11    1    6    6    0    0 -0.14178344736E+00 -0.45248081053E+02 -0.67435701186E+01  0.45748056565E+02  0.00000000000E+00 0. -1.
        -12    1    6    6    0    0 -0.17173728093E+02  0.23566215519E+01  0.57805308688E+02  0.60348523712E+02  0.00000000000E+00 0.  1.
</event>
<event>
12    1  0.8684423E-002  0.1797889E+03  0.7818608E-02  0.1168048E+00
         21   -1    0    0  501  502  0.00000000000E+00  0.00000000000E+00  0.38756703945E+02  0.38756703945E+02  0.00000000000E+00 0. -1.
         21   -1    0    0  502  503 -0.00000000000E+00 -0.00000000000E+00 -0.10063718198E+04  0.10063718198E+04  0.00000000000E+00 0. -1.
         -6    2    1    2    0  503 -0.39738631391E+02  0.35479036737E+02 -0.70072705433E+03  0.72342411223E+03  0.17171523117E+03 0.  0.
        -24    2    3    3    0    0 -0.77957035765E+02  0.55367932197E+02 -0.59367478745E+03  0.60793172097E+03  0.89377383964E+02 0.  0.
          6    2    1    2  501    0  0.39738631391E+02 -0.35479036737E+02 -0.26688806149E+03  0.32170441148E+03  0.17154174456E+03 0.  0.
         24    2    5    5    0    0  0.73902457762E+02  0.83003164573E+01 -0.23230105976E+03  0.25611363860E+03  0.78102144612E+02 0.  0.
          5    1    5    5  501    0 -0.34163826371E+02 -0.43779353195E+02 -0.34587001725E+02  0.65590772878E+02  0.47000000000E+01 0. -1.
        -11    1    6    6    0    0  0.16015927640E+01  0.34184942959E+01 -0.13367131909E+03  0.13372461535E+03  0.00000000000E+00 0.  1.
         12    1    6    6    0    0  0.72300864998E+02  0.48818221614E+01 -0.98629740669E+02  0.12238902325E+03  0.00000000000E+00 0. -1.
         -5    1    3    3    0  503  0.38218404374E+02 -0.19888895460E+02 -0.10705226688E+03  0.11549239126E+03  0.47000000000E+01 0.  1.
         13    1    4    4    0    0  0.12374712448E+02  0.31580227223E+02 -0.10288995086E+03  0.10833644930E+03  0.00000000000E+00 0. -1.
        -14    1    4    4    0    0 -0.90331748213E+02  0.23787704975E+02 -0.49078483659E+03  0.49959527167E+03  0.00000000000E+00 0.  1.
</event>
<event>
12    1  0.8684423E-002  0.1728660E+03  0.7818608E-02  0.1175517E+00
         21   -1    0    0  503  502  0.00000000000E+00  0.00000000000E+00  0.33101003182E+02  0.33101003182E+02  0.00000000000E+00 0.  1.
         21   -1    0    0  501  503 -0.00000000000E+00 -0.00000000000E+00 -0.90509977254E+03  0.90509977254E+03  0.00000000000E+00 0.  1.
          6    2    1    2  501    0 -0.39391231473E+01 -0.71666752834E+01 -0.49334566577E+03  0.52195465842E+03  0.17023466623E+03 0.  0.
         24    2    3    3    0    0 -0.55144504686E+02 -0.54630571587E+00 -0.19679677116E+03  0.22090788916E+03  0.83845760203E+02 0.  0.
         -6    2    1    2    0  502  0.39391231473E+01  0.71666752834E+01 -0.37865310359E+03  0.41624611730E+03  0.17267246273E+03 0.  0.
        -24    2    5    5    0    0  0.69922468099E+02  0.28947289359E+01 -0.20687768005E+03  0.23212404511E+03  0.78649010259E+02 0.  0.
          5    1    3    3  501    0  0.51205381539E+02 -0.66203695675E+01 -0.29654889461E+03  0.30104676927E+03  0.47000000000E+01 0. -1.
        -11    1    4    4    0    0  0.12293201610E+02 -0.29020546971E+01  0.24345128364E+00  0.12633447503E+02  0.00000000000E+00 0.  1.
         12    1    4    4    0    0 -0.67437706296E+02  0.23557489812E+01 -0.19704022245E+03  0.20827444165E+03  0.00000000000E+00 0. -1.
         -5    1    5    5    0  502 -0.65983344952E+02  0.42719463476E+01 -0.17177542354E+03  0.18412207219E+03  0.47000000000E+01 0.  1.
         11    1    6    6    0    0  0.44043044646E+01 -0.19030698744E+02 -0.71781007278E+01  0.20810827051E+02  0.00000000000E+00 0. -1.
        -12    1    6    6    0    0  0.65518163635E+02  0.21925427680E+02 -0.19969957932E+03  0.21131321806E+03  0.00000000000E+00 0.  1.
</event>
<event>
12    1  0.8684423E-002  0.1937598E+03  0.7818608E-02  0.1155427E+00
         21   -1    0    0  503  502  0.00000000000E+00  0.00000000000E+00  0.63850096959E+03  0.63850096959E+03  0.00000000000E+00 0.  1.
         21   -1    0    0  501  503 -0.00000000000E+00 -0.00000000000E+00 -0.19866724684E+03  0.19866724684E+03  0.00000000000E+00 0.  1.
          6    2    1    2  501    0 -0.76919786249E+02 -0.38403881243E+02 -0.13208075091E+03  0.23332301003E+03  0.17205461527E+03 0.  0.
         24    2    3    3    0    0 -0.92925313669E+01 -0.79614206521E+02 -0.91605846086E+02  0.14426098427E+03  0.77426271543E+02 0.  0.
         -6    2    1    2    0  502  0.76919786249E+02  0.38403881243E+02  0.57191447366E+03  0.60384520640E+03  0.17364145963E+03 0.  0.
        -24    2    5    5    0    0  0.32074784701E+01  0.37342728510E+02  0.13425992157E+03  0.16000038292E+03  0.78546984063E+02 0.  0.
          5    1    3    3  501    0 -0.67627254882E+02  0.41210325277E+02 -0.40474904826E+02  0.89062025763E+02  0.47000000000E+01 0. -1.
        -13    1    4    4    0    0 -0.61534687003E+01 -0.80841549690E+02 -0.36263150785E+02  0.88815749944E+02  0.00000000000E+00 0.  1.
         14    1    4    4    0    0 -0.31390626666E+01  0.12273431697E+01 -0.55342695301E+02  0.55445234321E+02  0.00000000000E+00 0. -1.
         -5    1    5    5    0  502  0.73712307779E+02  0.10611527330E+01  0.43765455209E+03  0.44384482348E+03  0.47000000000E+01 0.  1.
         13    1    6    6    0    0 -0.70346050021E+01 -0.62878301801E+01 -0.70343637062E+01  0.11768804045E+02  0.00000000000E+00 0. -1.
        -14    1    6    6    0    0  0.10242083472E+02  0.43630558691E+02  0.14129428527E+03  0.14823157888E+03  0.00000000000E+00 0.  1.
</event>
<event>
12    1  0.8684423E-002  0.2042951E+03  0.7818608E-02  0.1146837E+00
         21   -1    0    0  501  502  0.00000000000E+00  0.00000000000E+00  0.11000677565E+04  0.11000677565E+04  0.00000000000E+00 0.  1.
         21   -1    0    0  502  503 -0.00000000000E+00 -0.00000000000E+00 -0.10153274228E+03  0.10153274228E+03  0.00000000000E+00 0. -1.
         -6    2    1    2    0  503 -0.41758595211E+02  0.10019877736E+03  0.23025563300E+02  0.20558856056E+03  0.17306907409E+03 0.  0.
        -24    2    3    3    0    0  0.29492511755E+02  0.97252386704E+02  0.34105454974E+02  0.13326805543E+03  0.79179274884E+02 0.  0.
          6    2    1    2  501    0  0.41758595211E+02 -0.10019877736E+03  0.97550945093E+03  0.99601193824E+03  0.16922623025E+03 0.  0.
         24    2    5    5    0    0 -0.34061690812E+02 -0.48889257896E+02  0.32351430487E+03  0.33760390135E+03  0.75924504808E+02 0.  0.
          5    1    5    5  501    0  0.75820286024E+02 -0.51309519469E+02  0.65199514605E+03  0.65840803689E+03  0.47000000000E+01 0. -1.
        -11    1    6    6    0    0  0.43430426630E+01 -0.17213345792E+02  0.23794974162E+03  0.23861106602E+03  0.00000000000E+00 0.  1.
         12    1    6    6    0    0 -0.38404733475E+02 -0.31675912103E+02  0.85564563257E+02  0.98992835328E+02  0.00000000000E+00 0. -1.
         -5    1    3    3    0  503 -0.71251106966E+02  0.29463906607E+01 -0.11079891675E+02  0.72320505124E+02  0.47000000000E+01 0.  1.
         11    1    4    4    0    0  0.20992324316E+01  0.37786927491E+02 -0.24759415225E+02  0.45224852773E+02  0.00000000000E+00 0. -1.
        -12    1    4    4    0    0  0.27393279323E+02  0.59465459213E+02  0.58864870199E+02  0.88043202662E+02  0.00000000000E+00 0.  1.
</event>
<event>
12    1  0.8684423E-002  0.2357127E+03  0.7818608E-02  0.1122821E+00
         21   -1    0    0  503  502  0.00000000000E+00  0.00000000000E+00  0.89668825016E+02  0.89668825016E+02  0.00000000000E+00 0.  1.
         21   -1    0    0  501  503 -0.00000000000E+00 -0.00000000000E+00 -0.89343863549E+03  0.89343863549E+03  0.00000000000E+00 0.  1.
          6    2    1    2  501    0  0.14110612785E+03  0.76197359608E+02 -0.67458875981E+03  0.71431712976E+03  0.17164495352E+03 0.  0.
         24    2    3    3    0    0  0.16520510740E+02  0.39129329108E+02 -0.16681476744E+03  0.19014909162E+03  0.80780435353E+02 0.  0.
         -6    2    1    2    0  502 -0.14110612785E+03 -0.76197359608E+02 -0.12918105066E+03  0.26879033074E+03  0.17275277458E+03 0.  0.
        -24    2    5    5    0    0 -0.41565356685E+01 -0.31084435245E+02 -0.82290534824E+02  0.11709597614E+03  0.77176528844E+02 0.  0.
          5    1    3    3  501    0  0.12458561711E+03  0.37068030500E+02 -0.50777399237E+03  0.52416803814E+03  0.47000000000E+01 0. -1.
        -13    1    4    4    0    0  0.36163620258E+01  0.37103482830E+02 -0.17207544835E+03  0.17606733495E+03  0.00000000000E+00 0.  1.
         14    1    4    4    0    0  0.12904148714E+02  0.20258462780E+01  0.52606809095E+01  0.14081756666E+02  0.00000000000E+00 0. -1.
         -5    1    5    5    0  502 -0.13694959218E+03 -0.45112924363E+02 -0.46890515833E+02  0.15169435460E+03  0.47000000000E+01 0.  1.
         13    1    6    6    0    0  0.11968405375E+02 -0.13613423519E+02  0.10744194440E+02  0.21071443740E+02  0.00000000000E+00 0. -1.
        -14    1    6    6    0    0 -0.16124941044E+02 -0.17471011726E+02 -0.93034729263E+02  0.96024532404E+02  0.00000000000E+00 0.  1.
</event>
<event>
12    1  0.8684423E-002  0.2072683E+03  0.7818608E-02  0.1144011E+00
         21   -1    0    0  501  502  0.00000000000E+00  0.00000000000E+00  0.35954496463E+03  0.35954496463E+03  0.00000000000E+00 0.  1.
         21   -1    0    0  502  503 -0.00000000000E+00 -0.00000000000E+00 -0.13951108171E+03  0.13951108171E+03  0.00000000000E+00 0.  1.
         -6    2    1    2    0  503  0.72640161858E+02  0.88035940618E+02  0.13427078462E+02  0.20640181100E+03  0.17144824640E+03 0.  0.
        -24    2    3    3    0    0 -0.11994024115E+02 -0.37568193825E+01 -0.12233144615E+02  0.78850279171E+02  0.76874874906E+02 0.  0.
          6    2    1    2  501    0 -0.72640161858E+02 -0.88035940618E+02  0.20660680445E+03  0.29265423534E+03  0.17301216681E+03 0.  0.
         24    2    5    5    0    0 -0.35852489840E+02 -0.48248994110E+01  0.26881377075E+02  0.91158008488E+02  0.79236944641E+02 0.  0.
          5    1    5    5  501    0 -0.36787672017E+02 -0.83211041207E+02  0.17972542738E+03  0.20149622686E+03  0.47000000000E+01 0. -1.
        -13    1    6    6    0    0 -0.10296562823E+02 -0.13946067607E+02  0.51611199999E+02  0.54444724015E+02  0.00000000000E+00 0.  1.
         14    1    6    6    0    0 -0.25555927017E+02  0.91211681961E+01 -0.24729822924E+02  0.36713284473E+02  0.00000000000E+00 0. -1.
         -5    1    3    3    0  503  0.84634185972E+02  0.91792760000E+02  0.25660223077E+02  0.12755153183E+03  0.47000000000E+01 0.  1.
         13    1    4    4    0    0 -0.18364553818E+02 -0.27902832989E+02  0.19337213148E+02  0.38597315167E+02  0.00000000000E+00 0. -1.
        -14    1    4    4    0    0  0.63705297033E+01  0.24146013606E+02 -0.31570357764E+02  0.40252964004E+02  0.00000000000E+00 0.  1.
</event>
<event>
12    1  0.8684423E-002  0.4428067E+03  0.7818608E-02  0.1029937E+00
         21   -1    0    0  503  502  0.00000000000E+00  0.00000000000E+00  0.12843813422E+04  0.12843813422E+04  0.00000000000E+00 0. -1.
         21   -1    0    0  501  503 -0.00000000000E+00 -0.00000000000E+00 -0.17373134163E+03  0.17373134163E+03  0.00000000000E+00 0.  1.
          6    2    1    2  501    0  0.29988719626E+03 -0.27747483903E+03  0.81086329174E+03  0.92389234485E+03  0.17074299463E+03 0.  0.
         24    2    3    3    0    0  0.30984111850E+03 -0.28385785875E+03  0.80002625826E+03  0.90717843438E+03  0.79711324222E+02 0.  0.
         -6    2    1    2    0  502 -0.29988719626E+03  0.27747483903E+03  0.29978670886E+03  0.53422033900E+03  0.16909962454E+03 0.  0.
        -24    2    5    5    0    0 -0.51439465221E+02  0.79971187551E+02  0.84295752120E+02  0.15056370887E+03  0.80760430805E+02 0.  0.
          5    1    3    3  501    0 -0.99539222417E+01  0.63830197199E+01  0.10837033479E+02  0.16713910475E+02  0.47000000000E+01 0. -1.
        -11    1    4    4    0    0  0.86368959564E+02 -0.68339082739E+02  0.14302693415E+03  0.18051739888E+03  0.00000000000E+00 0.  1.
         12    1    4    4    0    0  0.22347215894E+03 -0.21551877601E+03  0.65699932411E+03  0.72666103550E+03  0.00000000000E+00 0. -1.
         -5    1    5    5    0  502 -0.24844773104E+03  0.19750365148E+03  0.21549095674E+03  0.38365663013E+03  0.47000000000E+01 0.  1.
         11    1    6    6    0    0 -0.52137811195E+01 -0.16479182137E+02  0.16726363700E+02  0.24052405288E+02  0.00000000000E+00 0. -1.
        -12    1    6    6    0    0 -0.46225684101E+02  0.96450369688E+02  0.67569388420E+02  0.12651130359E+03  0.00000000000E+00 0.  1.
</event>
<event>
12    1  0.8684423E-002  0.1964613E+03  0.7818608E-02  0.1152885E+00
         21   -1    0    0  503  502  0.00000000000E+00  0.00000000000E+00  0.22029130342E+03  0.22029130342E+03  0.00000000000E+00 0.  1.
         21   -1    0    0  501  503 -0.00000000000E+00 -0.00000000000E+00 -0.21954790256E+03  0.21954790256E+03  0.00000000000E+00 0.  1.
          6    2    1    2  501    0  0.94795368131E+01  0.94866538132E+02 -0.99032892529E+02  0.22001037234E+03  0.17177755516E+03 0.  0.
         24    2    3    3    0    0  0.86939725103E+00  0.11357488398E+03 -0.12488020286E+03  0.18662908778E+03  0.79594856717E+02 0.  0.
         -6    2    1    2    0  502 -0.94795368131E+01 -0.94866538132E+02  0.99776293394E+02  0.21982883364E+03  0.17111366310E+03 0.  0.
        -24    2    5    5    0    0 -0.53156838411E+02 -0.11446769064E+02  0.31305165570E+02  0.10330866418E+03  0.82073069337E+02 0.  0.
          5    1    3    3  501    0  0.86101395621E+01 -0.18708345844E+02  0.25847310333E+02  0.33381284561E+02  0.47000000000E+01 0. -1.
        -13    1    4    4    0    0 -0.37886600554E+02  0.63733537401E+02 -0.54109913232E+02  0.91789111561E+02  0.00000000000E+00 0.  1.
         14    1    4    4    0    0  0.38755997805E+02  0.49841346574E+02 -0.70770289630E+02  0.94839976215E+02  0.00000000000E+00 0. -1.
         -5    1    5    5    0  502  0.43677301598E+02 -0.83419769067E+02  0.68471127824E+02  0.11652016946E+03  0.47000000000E+01 0.  1.
         13    1    6    6    0    0 -0.48322504524E+02 -0.43365952099E+02  0.13067481697E+02  0.66230123983E+02  0.00000000000E+00 0. -1.
        -14    1    6    6    0    0 -0.48343338865E+01  0.31919183034E+02  0.18237683873E+02  0.37078540192E+02  0.00000000000E+00 0.  1.
</event>
<event>
12    1  0.8684423E-002  0.1731606E+03  0.7818608E-02  0.1174615E+00
         21   -1    0    0  503  502  0.00000000000E+00  0.00000000000E+00  0.17345032814E+03  0.17345032814E+03  0.00000000000E+00 0. -1.
         21   -1    0    0  501  503 -0.00000000000E+00 -0.00000000000E+00 -0.17967382061E+03  0.17967382061E+03  0.00000000000E+00 0. -1.
          6    2    1    2  501    0  0.16136169278E+02  0.73667398163E+01  0.31474620089E+02  0.17599786144E+03  0.17224967549E+03 0.  0.
         24    2    3    3    0    0  0.71735597916E+01 -0.18202937412E+01  0.87017277707E+02  0.11879815192E+03  0.80537077486E+02 0.  0.
         -6    2    1    2    0  502 -0.16136169278E+02 -0.73667398163E+01 -0.37698112558E+02  0.17712628731E+03  0.17215669941E+03 0.  0.
        -24    2    5    5    0    0  0.15977350780E+02 -0.15283889948E+01  0.42116304995E+02  0.90767756985E+02  0.78786996711E+02 0.  0.
          5    1    3    3  501    0  0.89626094864E+01  0.91870335574E+01 -0.55542657618E+02  0.57199709524E+02  0.47000000000E+01 0. -1.
        -13    1    4    4    0    0  0.42560758498E+02  0.70321932409E+01  0.57448179322E+02  0.71841236161E+02  0.00000000000E+00 0.  1.
         14    1    4    4    0    0 -0.35387198706E+02 -0.88524869821E+01  0.29569098385E+02  0.46956915756E+02  0.00000000000E+00 0. -1.
         -5    1    5    5    0  502 -0.32113520058E+02 -0.58383508214E+01 -0.79814417553E+02  0.86358530326E+02  0.47000000000E+01 0.  1.
         13    1    6    6    0    0  0.45816162430E+02  0.74083467488E+01  0.36663500407E+02  0.59145723459E+02  0.00000000000E+00 0. -1.
        -14    1    6    6    0    0 -0.29838811650E+02 -0.89367357437E+01  0.54528045879E+01  0.31622033526E+02  0.00000000000E+00 0.  1.
</event>
<event>
12    1  0.8684423E-002  0.1902703E+03  0.7818608E-02  0.1158317E+00
         21   -1    0    0  501  502  0.00000000000E+00  0.00000000000E+00  0.45240106939E+02  0.45240106939E+02  0.00000000000E+00 0.  1.
         21   -1    0    0  502  503 -0.00000000000E+00 -0.00000000000E+00 -0.13767237680E+04  0.13767237680E+04  0.00000000000E+00 0.  1.
         -6    2    1    2    0  503 -0.79569019093E+02  0.15269163808E+02 -0.11261080012E+04  0.11419961005E+04  0.17167261548E+03 0.  0.
        -24    2    3    3    0    0 -0.14093269211E+02  0.54516150152E+02 -0.84722227838E+03  0.85281322379E+03  0.79587529302E+02 0.  0.
          6    2    1    2  501    0  0.79569019093E+02 -0.15269163808E+02 -0.20537565979E+03  0.27996777442E+03  0.17215811604E+03 0.  0.
         24    2    5    5    0    0  0.51828905705E+02  0.50183801477E+02 -0.17025461774E+03  0.20053741404E+03  0.77614239492E+02 0.  0.
          5    1    5    5  501    0  0.27740113388E+02 -0.65452965285E+02 -0.35121042053E+02  0.79430360382E+02  0.47000000000E+01 0. -1.
        -11    1    6    6    0    0 -0.88703055659E+01  0.41477818098E+02 -0.90389704992E+02  0.99846835120E+02  0.00000000000E+00 0.  1.
         12    1    6    6    0    0  0.60699211271E+02  0.87059833795E+01 -0.79864912743E+02  0.10069057892E+03  0.00000000000E+00 0. -1.
         -5    1    3    3    0  503 -0.65475749883E+02 -0.39246986344E+02 -0.27888572284E+03  0.28918287668E+03  0.47000000000E+01 0.  1.
         11    1    4    4    0    0  0.14373544055E+02 -0.60942534068E+01 -0.42732449192E+03  0.42760958840E+03  0.00000000000E+00 0. -1.
        -12    1    4    4    0    0 -0.28466813265E+02  0.60610403559E+02 -0.41989778646E+03  0.42520363539E+03  0.00000000000E+00 0.  1.
</event>
<event>
12    1  0.8684423E-002  0.1816855E+03  0.7818608E-02  0.1166742E+00
         21   -1    0    0  501  502  0.00000000000E+00  0.00000000000E+00  0.27946365273E+02  0.27946365273E+02  0.00000000000E+00 0.  1.
         21   -1    0    0  502  503 -0.00000000000E+00 -0.00000000000E+00 -0.12596782500E+04  0.12596782500E+04  0.00000000000E+00 0.  1.
         -6    2    1    2    0  503  0.75307754742E+01  0.57804785184E+02 -0.78766887760E+03  0.80783134892E+03  0.16962052289E+03 0.  0.
        -24    2    3    3    0    0 -0.22403331442E+01  0.82747996968E+02 -0.76170543044E+03  0.77023043183E+03  0.78787722758E+02 0.  0.
          6    2    1    2  501    0 -0.75307754742E+01 -0.57804785184E+02 -0.44406300717E+03  0.47979326639E+03  0.17207997668E+03 0.  0.
         24    2    5    5    0    0 -0.63961405778E+02 -0.57469791618E+02 -0.36416269861E+03  0.38186126159E+03  0.76221477733E+02 0.  0.
          5    1    5    5  501    0  0.56430630304E+02 -0.33499356602E+00 -0.79900308556E+02  0.97932004802E+02  0.47000000000E+01 0. -1.
        -13    1    6    6    0    0 -0.26595998436E+02 -0.51487902820E+02 -0.31246790256E+03  0.31779638355E+03  0.00000000000E+00 0.  1.
         14    1    6    6    0    0 -0.37365407342E+02 -0.59818887978E+01 -0.51694796052E+02  0.64064878040E+02  0.00000000000E+00 0. -1.
         -5    1    3    3    0  503  0.97711086184E+01 -0.24943211784E+02 -0.25963447165E+02  0.37600917095E+02  0.47000000000E+01 0.  1.
         11    1    4    4    0    0 -0.26141034964E+02 -0.36583894350E+00 -0.12723897155E+03  0.12989704935E+03  0.00000000000E+00 0. -1.
        -12    1    4    4    0    0  0.23900701819E+02  0.83113835911E+02 -0.63446645889E+03  0.64033338248E+03  0.00000000000E+00 0.  1.
</event>
<event>
12    1  0.8684423E-002  0.2367694E+03  0.7818608E-02  0.1122235E+00
         21   -1    0    0  503  502  0.00000000000E+00  0.00000000000E+00  0.26949735968E+03  0.26949735968E+03  0.00000000000E+00 0. -1.
         21   -1    0    0  501  503 -0.00000000000E+00 -0.00000000000E+00 -0.25543496764E+03  0.25543496764E+03  0.00000000000E+00 0. -1.
          6    2    1    2  501    0 -0.12910395056E+03  0.98896827324E+02 -0.10768951059E+03  0.26010917544E+03  0.17207945825E+03 0.  0.
         24    2    3    3    0    0  0.80342422345E+00  0.52068960450E+02 -0.60740622786E+02  0.11418089440E+03  0.81461839272E+02 0.  0.
         -6    2    1    2    0  502  0.12910395056E+03 -0.98896827324E+02  0.12175190264E+03  0.26482315188E+03  0.16988043876E+03 0.  0.
        -24    2    5    5    0    0  0.27867829207E+02 -0.10038386547E+03  0.88739127210E+02  0.15822626220E+03  0.79419021645E+02 0.  0.
          5    1    3    3  501    0 -0.12990737478E+03  0.46827866874E+02 -0.46948887807E+02  0.14592828103E+03  0.47000000000E+01 0. -1.
        -13    1    4    4    0    0 -0.31538685323E+02  0.20432934997E+01 -0.39016890645E+01  0.31844731084E+02  0.00000000000E+00 0.  1.
         14    1    4    4    0    0  0.32342109546E+02  0.50025666950E+02 -0.56838933722E+02  0.82336163321E+02  0.00000000000E+00 0. -1.
         -5    1    5    5    0  502  0.10123612135E+03  0.14870381486E+01  0.33012775426E+02  0.10659688968E+03  0.47000000000E+01 0.  1.
         13    1    6    6    0    0  0.55147729066E+02 -0.75867661432E+02  0.70028259148E+02  0.11705183105E+03  0.00000000000E+00 0. -1.
        -14    1    6    6    0    0 -0.27279899859E+02 -0.24516204041E+02  0.18710868062E+02  0.41174431150E+02  0.00000000000E+00 0.  1.
</event>
<event>
12    1  0.8684423E-002  0.2211567E+03  0.7818608E-02  0.1133154E+00
         21   -1    0    0  501  502  0.00000000000E+00  0.00000000000E+00  0.83168260980E+03  0.83168260980E+03  0.00000000000E+00 0. -1.
         21   -1    0    0  502  503 -0.00000000000E+00 -0.00000000000E+00 -0.92877647536E+02  0.92877647536E+02  0.00000000000E+00 0.  1.
         -6    2    1    2    0  503  0.11594376920E+03 -0.74984958531E+02  0.88280657403E+02  0.23747063963E+03  0.17185205438E+03 0.  0.
        -24    2    3    3    0    0  0.94791622077E+02 -0.15021776380E+02  0.11403506660E+03  0.16870745083E+03  0.79038611892E+02 0.  0.
          6    2    1    2  501    0 -0.11594376920E+03  0.74984958531E+02  0.65052430486E+03  0.68708961771E+03  0.17275581009E+03 0.  0.
         24    2    5    5    0    0  0.61554950691E+01  0.65024074866E+01  0.24278263796E+03  0.25595918841E+03  0.80570003203E+02 0.  0.
          5    1    5    5  501    0 -0.12209926426E+03  0.68482551045E+02  0.40774166691E+03  0.43113042929E+03  0.47000000000E+01 0. -1.
        -11    1    6    6    0    0  0.27582339349E+02 -0.27719863007E+02  0.94345931398E+02  0.10212899207E+03  0.00000000000E+00 0.  1.
         12    1    6    6    0    0 -0.21426844280E+02  0.34222270493E+02  0.14843670656E+03  0.15383019635E+03  0.00000000000E+00 0. -1.
         -5    1    3    3    0  503  0.21152147118E+02 -0.59963182152E+02 -0.25754409194E+02  0.68763188803E+02  0.47000000000E+01 0.  1.
         11    1    4    4    0    0  0.96207541031E+00  0.76605471060E+01 -0.92998020867E+01  0.12087013275E+02  0.00000000000E+00 0. -1.
        -12    1    4    4    0    0  0.93829546667E+02 -0.22682323486E+02  0.12333486868E+03  0.15662043755E+03  0.00000000000E+00 0.  1.
</event>
<event>
12    1  0.8684423E-002  0.1837545E+03  0.7818608E-02  0.1164578E+00
         21   -1    0    0  501  502  0.00000000000E+00  0.00000000000E+00  0.33910015552E+03  0.33910015552E+03  0.00000000000E+00 0.  1.
         21   -1    0    0  502  503 -0.00000000000E+00 -0.00000000000E+00 -0.12270013800E+03  0.12270013800E+03  0.00000000000E+00 0.  1.
         -6    2    1    2    0  503 -0.52706915091E+02  0.22620083566E+02  0.58274980462E+01  0.18232486906E+03  0.17297026064E+03 0.  0.
        -24    2    3    3    0    0  0.13075026149E+02  0.36996200200E+02  0.47826670186E+02  0.10282671196E+03  0.82135663224E+02 0.  0.
          6    2    1    2  501    0  0.52706915091E+02 -0.22620083566E+02  0.21057251948E+03  0.27947542445E+03  0.17457388073E+03 0.  0.
         24    2    5    5    0    0  0.94213202712E+02 -0.34014541674E+02  0.15752482721E+03  0.21100095298E+03  0.98357584159E+02 0.  0.
          5    1    5    5  501    0 -0.41506287621E+02  0.11394458107E+02  0.53047692264E+02  0.68474471464E+02  0.47000000000E+01 0. -1.
        -11    1    6    6    0    0  0.61596940261E+02 -0.33771957467E+02  0.16339869853E+03  0.17785910953E+03  0.00000000000E+00 0.  1.
         12    1    6    6    0    0  0.32616262451E+02 -0.24258420630E+00 -0.58738713189E+01  0.33141843456E+02  0.00000000000E+00 0. -1.
         -5    1    3    3    0  503 -0.65781941239E+02 -0.14376116633E+02 -0.41999172140E+02  0.79498157105E+02  0.47000000000E+01 0.  1.
         13    1    4    4    0    0  0.31803953241E+02 -0.13800790965E+02  0.79030247244E+01  0.35558558363E+02  0.00000000000E+00 0. -1.
        -14    1    4    4    0    0 -0.18728927093E+02  0.50796991164E+02  0.39923645462E+02  0.67268153597E+02  0.00000000000E+00 0.  1.
</event>
<event>
12    1  0.8684423E-002  0.1931514E+03  0.7818608E-02  0.1155655E+00
         21   -1    0    0  503  502  0.00000000000E+00  0.00000000000E+00  0.14093690263E+03  0.14093690263E+03  0.00000000000E+00 0.  1.
         21   -1    0    0  501  503 -0.00000000000E+00 -0.00000000000E+00 -0.46049917790E+03  0.46049917790E+03  0.00000000000E+00 0.  1.
          6    2    1    2  501    0 -0.86541189461E+02 -0.13806535049E+02 -0.35588642261E+03  0.40492297783E+03  0.17212633236E+03 0.  0.
         24    2    3    3    0    0 -0.10148857772E+03 -0.60833080000E+02 -0.27879829833E+03  0.31327370477E+03  0.80070768207E+02 0.  0.
         -6    2    1    2    0  502  0.86541189461E+02  0.13806535049E+02  0.36324147345E+02  0.19651310271E+03  0.17209868672E+03 0.  0.
        -24    2    5    5    0    0  0.59663099244E+02 -0.58783033384E+02  0.20848113929E+02  0.11743545233E+03  0.79632350108E+02 0.  0.
          5    1    3    3  501    0  0.14947388261E+02  0.47026544952E+02 -0.77088124283E+02  0.91649273054E+02  0.47000000000E+01 0. -1.
        -13    1    4    4    0    0 -0.10196206082E+03 -0.22536264917E+02 -0.19753824944E+03  0.22344015994E+03  0.00000000000E+00 0.  1.
         14    1    4    4    0    0  0.47348309593E+00 -0.38296815083E+02 -0.81260048893E+02  0.89833544836E+02  0.00000000000E+00 0. -1.
         -5    1    5    5    0  502  0.26878090218E+02  0.72589568433E+02  0.15476033416E+02  0.79077650378E+02  0.47000000000E+01 0.  1.
         13    1    6    6    0    0  0.31305031968E+02 -0.64393280409E+02  0.40708225096E+02  0.82362972134E+02  0.00000000000E+00 0. -1.
        -14    1    6    6    0    0  0.28358067276E+02  0.56102470243E+01 -0.19860111167E+02  0.35072480193E+02  0.00000000000E+00 0.  1.
</event>
<event>
12    1  0.8684423E-002  0.3706470E+03  0.7818608E-02  0.1054459E+00
         21   -1    0    0  503  502  0.00000000000E+00  0.00000000000E+00  0.31691572991E+03  0.31691572991E+03  0.00000000000E+00 0. -1.
         21   -1    0    0  501  503 -0.00000000000E+00 -0.00000000000E+00 -0.43471308455E+03  0.43471308455E+03  0.00000000000E+00 0.  1.
          6    2    1    2  501    0  0.30208586999E+03 -0.12844465695E+03 -0.80145144824E+02  0.37907428456E+03  0.17181433651E+03 0.  0.
         24    2    3    3    0    0  0.27124350079E+03 -0.11200819826E+03 -0.13932265917E+02  0.30405665833E+03  0.78342008178E+02 0.  0.
         -6    2    1    2    0  502 -0.30208586999E+03  0.12844465695E+03 -0.37652209819E+02  0.37255452990E+03  0.17211997587E+03 0.  0.
        -24    2    5    5    0    0 -0.28727354614E+03  0.10378881571E+03 -0.75576423699E+02  0.32472513053E+03  0.80227214853E+02 0.  0.
          5    1    3    3  501    0  0.30842369208E+02 -0.16436458686E+02 -0.66212878907E+02  0.75017626233E+02  0.47000000000E+01 0. -1.
        -13    1    4    4    0    0  0.21048739487E+03 -0.11217133187E+03 -0.32054885015E+02  0.24065507837E+03  0.00000000000E+00 0.  1.
         14    1    4    4    0    0  0.60756105914E+02  0.16313360432E+00  0.18122619098E+02  0.63401579960E+02  0.00000000000E+00 0. -1.
         -5    1    5    5    0  502 -0.14812323854E+02  0.24655841236E+02  0.37924213880E+02  0.47829399363E+02  0.47000000000E+01 0.  1.
         13    1    6    6    0    0 -0.13242247736E+03  0.87579144351E+02 -0.53134456240E+02  0.16741890418E+03  0.00000000000E+00 0. -1.
        -14    1    6    6    0    0 -0.15485106878E+03  0.16209671361E+02 -0.22441967459E+02  0.15730622636E+03  0.00000000000E+00 0.  1.
</event>
<event>
12    1  0.8684423E-002  0.1926882E+03  0.7818608E-02  0.1156722E+00
         21   -1    0    0  503  502  0.00000000000E+00  0.00000000000E+00  0.32888267512E+02  0.32888267512E+02  0.00000000000E+00 0. -1.
         21   -1    0    0  501  503 -0.00000000000E+00 -0.00000000000E+00 -0.33504645815E+04  0.33504645815E+04  0.00000000000E+00 0. -1.
          6    2    1    2  501    0  0.70849375071E+02  0.40640488177E+02 -0.30373612382E+04  0.30432804694E+04  0.17123504564E+03 0.  0.
         24    2    3    3    0    0  0.59944829323E+02  0.40582312997E+01 -0.28636319256E+04  0.28653447094E+04  0.78756881911E+02 0.  0.
         -6    2    1    2    0  502 -0.70849375071E+02 -0.40640488177E+02 -0.28021507576E+03  0.34007237959E+03  0.17452063331E+03 0.  0.
        -24    2    5    5    0    0 -0.11040965631E+03 -0.22791208342E+01 -0.16902157929E+03  0.21588424001E+03  0.76434443920E+02 0.  0.
          5    1    3    3  501    0  0.10904545748E+02  0.36582256877E+02 -0.17372931264E+03  0.17793576005E+03  0.47000000000E+01 0. -1.
        -13    1    4    4    0    0  0.67393775791E+01 -0.31695182871E+02 -0.67933268815E+03  0.68010506910E+03  0.00000000000E+00 0.  1.
         14    1    4    4    0    0  0.53205451744E+02  0.35753414171E+02 -0.21842992375E+04  0.21852396403E+04  0.00000000000E+00 0. -1.
         -5    1    5    5    0  502  0.39560281244E+02 -0.38361367342E+02 -0.11119349647E+03  0.12418813958E+03  0.47000000000E+01 0.  1.
         11    1    6    6    0    0 -0.54378141416E+02  0.74712321122E+00 -0.22262598124E+02  0.58763625927E+02  0.00000000000E+00 0. -1.
        -12    1    6    6    0    0 -0.56031514899E+02 -0.30262440455E+01 -0.14675898117E+03  0.15712061408E+03  0.00000000000E+00 0.  1.
</event>
<event>
12    1  0.8684423E-002  0.1721725E+03  0.7818608E-02  0.1175850E+00
         21   -1    0    0  501  502  0.00000000000E+00  0.00000000000E+00  0.84256599862E+03  0.84256599862E+03  0.00000000000E+00 0. -1.
         21   -1    0    0  502  503 -0.00000000000E+00 -0.00000000000E+00 -0.36246020376E+02  0.36246020376E+02  0.00000000000E+00 0. -1.
         -6    2    1    2    0  503  0.31369579154E+01  0.11102454889E+02  0.48402362679E+03  0.51341046151E+03  0.17081664349E+03 0.  0.
        -24    2    3    3    0    0  0.49808731340E+02  0.30249324525E+02  0.42068071033E+03  0.43229774909E+03  0.80704104436E+02 0.  0.
          6    2    1    2  501    0 -0.31369579154E+01 -0.11102454889E+02  0.32229635146E+03  0.36540155748E+03  0.17178549135E+03 0.  0.
         24    2    5    5    0    0 -0.33567772862E+02  0.19066553373E+02  0.10981139870E+03  0.14858793082E+03  0.92355298002E+02 0.  0.
          5    1    5    5  501    0  0.30430814946E+02 -0.30169008262E+02  0.21248495275E+03  0.21681362666E+03  0.47000000000E+01 0. -1.
        -11    1    6    6    0    0  0.86997971772E+00 -0.20959919725E+02  0.89643191573E+02  0.92065068810E+02  0.00000000000E+00 0.  1.
         12    1    6    6    0    0 -0.34437752580E+02  0.40026473098E+02  0.20168207130E+02  0.56522862014E+02  0.00000000000E+00 0. -1.
         -5    1    3    3    0  503 -0.46671773425E+02 -0.19146869635E+02  0.63342916456E+02  0.81112712423E+02  0.47000000000E+01 0.  1.
         13    1    4    4    0    0  0.27357184648E+02  0.56677279853E+02  0.30953321333E+03  0.31586633211E+03  0.00000000000E+00 0. -1.
        -14    1    4    4    0    0  0.22451546693E+02 -0.26427955328E+02  0.11114749700E+03  0.11643141698E+03  0.00000000000E+00 0.  1.
</event>
<event>
12    1  0.8684423E-002  0.1982710E+03  0.7818608E-02  0.1151225E+00
         21   -1    0    0  503  502  0.00000000000E+00  0.00000000000E+00  0.37451174499E+02  0.37451174499E+02  0.00000000000E+00 0.  1.
         21   -1    0    0  501  503 -0.00000000000E+00 -0.00000000000E+00 -0.14447398035E+04  0.14447398035E+04  0.00000000000E+00 0.  1.
          6    2    1    2  501    0 -0.97937895206E+02 -0.69081335711E+01 -0.10915313601E+04  0.11093926632E+04  0.17225509407E+03 0.  0.
         24    2    3    3    0    0 -0.13108676637E+03  0.20401437651E+02 -0.88051605235E+03  0.89399951000E+03  0.79540219068E+02 0.  0.
         -6    2    1    2    0  502  0.97937895206E+02  0.69081335711E+01 -0.31575726892E+03  0.37279831483E+03  0.17215219149E+03 0.  0.
        -24    2    5    5    0    0  0.28623805303E+02 -0.47500287496E+02 -0.22985705555E+03  0.24964939685E+03  0.80093419323E+02 0.  0.
          5    1    3    3  501    0  0.33148871159E+02 -0.27309571222E+02 -0.21101530775E+03  0.21539315320E+03  0.47000000000E+01 0. -1.
        -13    1    4    4    0    0 -0.31719778980E+01 -0.20223072350E+02 -0.11537265676E+03  0.11717458780E+03  0.00000000000E+00 0.  1.
         14    1    4    4    0    0 -0.12791478847E+03  0.40624510001E+02 -0.76514339559E+03  0.77682492219E+03  0.00000000000E+00 0. -1.
         -5    1    5    5    0  502  0.69314089903E+02  0.54408421067E+02 -0.85900213369E+02  0.12314891798E+03  0.47000000000E+01 0.  1.
         11    1    6    6    0    0  0.40910831205E+02 -0.22087668280E+02 -0.52781293922E+02  0.70337942733E+02  0.00000000000E+00 0. -1.
        -12    1    6    6    0    0 -0.12287025902E+02 -0.25412619216E+02 -0.17707576163E+03  0.17931145412E+03  0.00000000000E+00 0.  1.
</event>
<event>
12    1  0.8684423E-002  0.2149279E+03  0.7818608E-02  0.1138445E+00
         21   -1    0    0  503  502  0.00000000000E+00  0.00000000000E+00  0.41543961738E+03  0.41543961738E+03  0.00000000000E+00 0.  1.
         21   -1    0    0  501  503 -0.00000000000E+00 -0.00000000000E+00 -0.20943559925E+03  0.20943559925E+03  0.00000000000E+00 0.  1.
          6    2    1    2  501    0  0.12664756515E+03 -0.28660125493E+00 -0.11353302306E+03  0.23978051209E+03  0.16901259940E+03 0.  0.
         24    2    3    3    0    0  0.83465499802E+02 -0.23160211784E+02 -0.16628478180E+01  0.11761292664E+03  0.79543386802E+02 0.  0.
         -6    2    1    2    0  502 -0.12664756515E+03  0.28660125493E+00  0.31953704118E+03  0.38509470454E+03  0.17365000110E+03 0.  0.
        -24    2    5    5    0    0 -0.33909652802E+02 -0.58844696673E+02  0.15779816578E+03  0.18944607921E+03  0.79856076302E+02 0.  0.
          5    1    3    3  501    0  0.43182065348E+02  0.22873610529E+02 -0.11187017524E+03  0.12216758545E+03  0.47000000000E+01 0. -1.
        -11    1    4    4    0    0  0.27080906964E+02  0.60363291839E+01 -0.35981486131E+02  0.45436550664E+02  0.00000000000E+00 0.  1.
         12    1    4    4    0    0  0.56384592838E+02 -0.29196540968E+02  0.34318638313E+02  0.72176375980E+02  0.00000000000E+00 0. -1.
         -5    1    5    5    0  502 -0.92737912348E+02  0.59131297928E+02  0.16173887540E+03  0.19564862534E+03  0.47000000000E+01 0.  1.
         13    1    6    6    0    0 -0.32832811158E+02 -0.30662452982E+02  0.20676275666E+02  0.49453896579E+02  0.00000000000E+00 0. -1.
        -14    1    6    6    0    0 -0.10768416431E+01 -0.28182243691E+02  0.13712189012E+03  0.13999218263E+03  0.00000000000E+00 0.  1.
</event>
<event>
12    1  0.8684423E-002  0.1777645E+03  0.7818608E-02  0.1170093E+00
         21   -1    0    0  503  502  0.00000000000E+00  0.00000000000E+00  0.10382603297E+04  0.10382603297E+04  0.00000000000E+00 0.  1.
         21   -1    0    0  501  503 -0.00000000000E+00 -0.00000000000E+00 -0.68069466850E+02  0.68069466850E+02  0.00000000000E+00 0.  1.
          6    2    1    2  501    0 -0.39485195335E+02  0.19829828040E+02  0.73643990696E+02  0.19241535952E+03  0.17218574413E+03 0.  0.
         24    2    3    3    0    0 -0.51568783415E+01  0.67148869544E+02  0.71395810194E+01  0.10374489351E+03  0.78590490753E+02 0.  0.
         -6    2    1    2    0  502  0.39485195335E+02 -0.19829828040E+02  0.89654687216E+03  0.91391443703E+03  0.17172944275E+03 0.  0.
        -24    2    5    5    0    0 -0.38748932828E+01  0.23907062709E+02  0.23029266683E+03  0.24480325866E+03  0.79418893295E+02 0.  0.
          5    1    3    3  501    0 -0.34328316993E+02 -0.47319041504E+02  0.66504409676E+02  0.88670466012E+02  0.47000000000E+01 0. -1.
        -11    1    4    4    0    0 -0.36122709838E+02  0.62301493098E+02  0.74494999356E+01  0.72400423049E+02  0.00000000000E+00 0.  1.
         12    1    4    4    0    0  0.30965831497E+02  0.48473764457E+01 -0.30991891618E+00  0.31344470460E+02  0.00000000000E+00 0. -1.
         -5    1    5    5    0  502  0.43360088618E+02 -0.43736890749E+02  0.66625420533E+03  0.66911117837E+03  0.47000000000E+01 0.  1.
         11    1    6    6    0    0  0.24381382272E+02 -0.65548782048E+01  0.25670996395E+02  0.36005809054E+02  0.00000000000E+00 0. -1.
        -12    1    6    6    0    0 -0.28256275554E+02  0.30461940914E+02  0.20462167043E+03  0.20879744961E+03  0.00000000000E+00 0.  1.
</event>
<event>
12    1  0.8684423E-002  0.2982310E+03  0.7818608E-02  0.1086781E+00
         21   -1    0    0  501  502  0.00000000000E+00  0.00000000000E+00  0.55857857967E+03  0.55857857967E+03  0.00000000000E+00 0. -1.
         21   -1    0    0  502  503 -0.00000000000E+00 -0.00000000000E+00 -0.17534864644E+03  0.17534864644E+03  0.00000000000E+00 0. -1.
         -6    2    1    2    0  503  0.16288266346E+03  0.17262649220E+03  0.31043928021E+03  0.42694154544E+03  0.17197636077E+03 0.  0.
        -24    2    3    3    0    0  0.80364340638E+02  0.88333221608E+02  0.71039629724E+02  0.16001662768E+03  0.79356832455E+02 0.  0.
          6    2    1    2  501    0 -0.16288266346E+03 -0.17262649220E+03  0.72790653023E+02  0.30698568067E+03  0.18058532914E+03 0.  0.
         24    2    5    5    0    0 -0.17214237079E+03 -0.19548259462E+03  0.58116897792E+02  0.27790729195E+03  0.77514182527E+02 0.  0.
          5    1    5    5  501    0  0.92597073253E+01  0.22856102420E+02  0.14673755230E+02  0.29078388713E+02  0.47000000000E+01 0. -1.
        -11    1    6    6    0    0 -0.42719617652E+02 -0.83163756709E+02 -0.88729030518E+01  0.93914346992E+02  0.00000000000E+00 0.  1.
         12    1    6    6    0    0 -0.12942275314E+03 -0.11231883791E+03  0.66989800844E+02  0.18399294496E+03  0.00000000000E+00 0. -1.
         -5    1    3    3    0  503  0.82518322827E+02  0.84293270587E+02  0.23939965049E+03  0.26692491776E+03  0.47000000000E+01 0.  1.
         13    1    4    4    0    0  0.53585753434E+02  0.48523729760E+02  0.83501356155E+02  0.11044664685E+03  0.00000000000E+00 0. -1.
        -14    1    4    4    0    0  0.26778587204E+02  0.39809491848E+02 -0.12461726431E+02  0.49569980830E+02  0.00000000000E+00 0.  1.
</event>
<event>
12    1  0.8684423E-002  0.1808128E+03  0.7818608E-02  0.1167282E+00
         21   -1    0    0  501  502  0.00000000000E+00  0.00000000000E+00  0.23880589771E+03  0.23880589771E+03  0.00000000000E+00 0. -1.
         21   -1    0    0  502  503 -0.00000000000E+00 -0.00000000000E+00 -0.15786763694E+03  0.15786763694E+03  0.00000000000E+00 0. -1.
         -6    2    1    2    0  503  0.37993788974E+01  0.53734058983E+02  0.11425995320E+03  0.21388923806E+03  0.17260209987E+03 0.  0.
        -24    2    3    3    0    0 -0.58811291596E+02  0.62531581225E+02  0.78792948080E+02  0.14124289673E+03  0.79826440107E+02 0.  0.
          6    2    1    2  501    0 -0.37993788974E+01 -0.53734058983E+02 -0.33321692426E+02  0.18278429658E+03  0.17145839004E+03 0.  0.
         24    2    5    5    0    0  0.17541204011E+01  0.11326837162E+02 -0.70880798317E+02  0.10730888339E+03  0.79747944833E+02 0.  0.
          5    1    5    5  501    0 -0.55534992985E+01 -0.65060896145E+02  0.37559105892E+02  0.75475413196E+02  0.47000000000E+01 0. -1.
        -13    1    6    6    0    0  0.20280462290E+02  0.65913688732E+01  0.10459096245E+02  0.23751547077E+02  0.00000000000E+00 0.  1.
         14    1    6    6    0    0 -0.18526341888E+02  0.47354682889E+01 -0.81339894562E+02  0.83557336309E+02  0.00000000000E+00 0. -1.
         -5    1    3    3    0  503  0.62610670494E+02 -0.87975222416E+01  0.35467005115E+02  0.72646341334E+02  0.47000000000E+01 0.  1.
         11    1    4    4    0    0  0.19711583670E+02  0.11231550496E+02  0.21951868882E+02  0.31568636409E+02  0.00000000000E+00 0. -1.
        -12    1    4    4    0    0 -0.78522875266E+02  0.51300030728E+02  0.56841079198E+02  0.10967426032E+03  0.00000000000E+00 0.  1.
</event>
<event>
12    1  0.8684423E-002  0.1894468E+03  0.7818608E-02  0.1159001E+00
         21   -1    0    0  503  502  0.00000000000E+00  0.00000000000E+00  0.25282122614E+03  0.25282122614E+03  0.00000000000E+00 0. -1.
         21   -1    0    0  501  503 -0.00000000000E+00 -0.00000000000E+00 -0.15743611301E+03  0.15743611301E+03  0.00000000000E+00 0.  1.
          6    2    1    2  501    0  0.19535281354E+02 -0.75460907874E+02 -0.16878558774E+02  0.19019716932E+03  0.17266760448E+03 0.  0.
         24    2    3    3    0    0  0.22866639129E+01 -0.10568378008E+03 -0.50316315707E+02  0.14170891923E+03  0.79846076668E+02 0.  0.
         -6    2    1    2    0  502 -0.19535281354E+02  0.75460907874E+02  0.11226367190E+03  0.22006016983E+03  0.17247426034E+03 0.  0.
        -24    2    5    5    0    0 -0.70419633625E+02  0.14545188067E+02  0.60828521703E+02  0.12536272054E+03  0.82735816628E+02 0.  0.
          5    1    3    3  501    0  0.17248617441E+02  0.30222872205E+02  0.33437756933E+02  0.48488250088E+02  0.47000000000E+01 0. -1.
        -13    1    4    4    0    0  0.26423269496E+02 -0.32883861588E+01 -0.46803227612E+01  0.27035311641E+02  0.00000000000E+00 0.  1.
         14    1    4    4    0    0 -0.24136605583E+02 -0.10239539392E+03 -0.45635992946E+02  0.11467360759E+03  0.00000000000E+00 0. -1.
         -5    1    5    5    0  502  0.50884352271E+02  0.60915719806E+02  0.51435150201E+02  0.94697449289E+02  0.47000000000E+01 0.  1.
         13    1    6    6    0    0 -0.65551647058E+02  0.22664647546E+02  0.78844849300E+02  0.10501054681E+03  0.00000000000E+00 0. -1.
        -14    1    6    6    0    0 -0.48679865666E+01 -0.81194594788E+01 -0.18016327597E+02  0.20352173730E+02  0.00000000000E+00 0.  1.
</event>
<event>
12    1  0.8684423E-002  0.2453339E+03  0.7818608E-02  0.1117760E+00
         21   -1    0    0  501  502  0.00000000000E+00  0.00000000000E+00  0.26973668511E+03  0.26973668511E+03  0.00000000000E+00 0.  1.
         21   -1    0    0  502  503 -0.00000000000E+00 -0.00000000000E+00 -0.24245909926E+03  0.24245909926E+03  0.00000000000E+00 0.  1.
         -6    2    1    2    0  503 -0.72190959812E+02  0.14625954969E+03 -0.72128351647E+02  0.25571703259E+03  0.18326295614E+03 0.  0.
        -24    2    3    3    0    0 -0.87755745451E+02  0.25368882436E+02 -0.49371654062E+02  0.13163329770E+03  0.80901877497E+02 0.  0.
          6    2    1    2  501    0  0.72190959812E+02 -0.14625954969E+03  0.99405937494E+02  0.25647875177E+03  0.17116196758E+03 0.  0.
         24    2    5    5    0    0  0.86175532406E+02 -0.15566257379E+03  0.46112687417E+02  0.20038734747E+03  0.79822614714E+02 0.  0.
          5    1    5    5  501    0 -0.13984572593E+02  0.94030241027E+01  0.53293250077E+02  0.56091404303E+02  0.47000000000E+01 0. -1.
        -13    1    6    6    0    0  0.37077391302E+02 -0.11344139201E+03  0.60867715084E+02  0.13397224006E+03  0.00000000000E+00 0.  1.
         14    1    6    6    0    0  0.49098141103E+02 -0.42221181786E+02 -0.14755027667E+02  0.66415107413E+02  0.00000000000E+00 0. -1.
         -5    1    3    3    0  503  0.15564785638E+02  0.12089066725E+03 -0.22756697585E+02  0.12408373490E+03  0.47000000000E+01 0.  1.
         13    1    4    4    0    0 -0.49871916524E+02  0.51318521482E+01 -0.68276419086E+02  0.84706631189E+02  0.00000000000E+00 0. -1.
        -14    1    4    4    0    0 -0.37883828927E+02  0.20237030288E+02  0.18904765024E+02  0.46926666509E+02  0.00000000000E+00 0.  1.
</event>
<event>
12    1  0.8684423E-002  0.1728206E+03  0.7818608E-02  0.1174957E+00
         21   -1    0    0  501  502  0.00000000000E+00  0.00000000000E+00  0.84145953292E+02  0.84145953292E+02  0.00000000000E+00 0. -1.
         21   -1    0    0  502  503 -0.00000000000E+00 -0.00000000000E+00 -0.42237631520E+03  0.42237631520E+03  0.00000000000E+00 0. -1.
         -6    2    1    2    0  503 -0.19017185425E+02  0.52281861938E+01 -0.27039508861E+03  0.32086508822E+03  0.17161559843E+03 0.  0.
        -24    2    3    3    0    0 -0.30394233649E+01  0.55108682037E+02 -0.89544362808E+02  0.13252383473E+03  0.80611220868E+02 0.  0.
          6    2    1    2  501    0  0.19017185425E+02 -0.52281861938E+01 -0.67835273297E+02  0.18565718027E+03  0.17169151700E+03 0.  0.
         24    2    5    5    0    0  0.13111690052E+01 -0.32841134878E+02  0.23320405224E+02  0.88665295662E+02  0.78977427477E+02 0.  0.
          5    1    5    5  501    0  0.17706016419E+02  0.27612948684E+02 -0.91155678521E+02  0.96991884604E+02  0.47000000000E+01 0. -1.
        -11    1    6    6    0    0 -0.25650067007E+02 -0.45995412187E+02  0.25645237023E+02  0.58576292659E+02  0.00000000000E+00 0.  1.
         12    1    6    6    0    0  0.26961236012E+02  0.13154277310E+02 -0.23248317986E+01  0.30089003003E+02  0.00000000000E+00 0. -1.
         -5    1    3    3    0  503 -0.15977762060E+02 -0.49880495843E+02 -0.18085072580E+03  0.18834125349E+03  0.47000000000E+01 0.  1.
         11    1    4    4    0    0  0.14376701276E+02  0.31503206981E+02 -0.96372160211E+02  0.10240475992E+03  0.00000000000E+00 0. -1.
        -12    1    4    4    0    0 -0.17416124641E+02  0.23605475056E+02  0.68277974031E+01  0.30119074811E+02  0.00000000000E+00 0.  1.
</event>
<event>
12    1  0.8684423E-002  0.2877153E+03  0.7818608E-02  0.1091872E+00
         21   -1    0    0  503  502  0.00000000000E+00  0.00000000000E+00  0.15739893242E+03  0.15739893242E+03  0.00000000000E+00 0. -1.
         21   -1    0    0  501  503 -0.00000000000E+00 -0.00000000000E+00 -0.57303324833E+03  0.57303324833E+03  0.00000000000E+00 0.  1.
          6    2    1    2  501    0 -0.22533697808E+03  0.46351406001E+02 -0.31817992988E+03  0.42897385621E+03  0.17278569097E+03 0.  0.
         24    2    3    3    0    0 -0.95600029427E+02  0.50026760697E+02 -0.24632257799E+03  0.28054625400E+03  0.79933383463E+02 0.  0.
         -6    2    1    2    0  502  0.22533697808E+03 -0.46351406001E+02 -0.97454386025E+02  0.30145832454E+03  0.16868478756E+03 0.  0.
        -24    2    5    5    0    0  0.17372967170E+03 -0.93525300700E+02 -0.92611161074E+02  0.23121419852E+03  0.77163448232E+02 0.  0.
          5    1    3    3  501    0 -0.12973694865E+03 -0.36753546961E+01 -0.71857351891E+02  0.14842760221E+03  0.47000000000E+01 0. -1.
        -13    1    4    4    0    0 -0.10102324094E+03  0.20763166851E+02 -0.17293942292E+03  0.20135751366E+03  0.00000000000E+00 0.  1.
         14    1    4    4    0    0  0.54232115146E+01  0.29263593846E+02 -0.73383155068E+02  0.79188740334E+02  0.00000000000E+00 0. -1.
         -5    1    5    5    0  502  0.51607306382E+02  0.47173894699E+02 -0.48432249518E+01  0.70244126024E+02  0.47000000000E+01 0.  1.
         11    1    6    6    0    0  0.27497901534E+02 -0.44025891214E+02 -0.14542660834E+01  0.51928109688E+02  0.00000000000E+00 0. -1.
        -12    1    6    6    0    0  0.14623177016E+03 -0.49499409486E+02 -0.91156894990E+02  0.17928608883E+03  0.00000000000E+00 0.  1.
</event>
<event>
12    1  0.8684423E-002  0.1746649E+03  0.7818608E-02  0.1173314E+00
         21   -1    0    0  501  502  0.00000000000E+00  0.00000000000E+00  0.40974074229E+03  0.40974074229E+03  0.00000000000E+00 0.  1.
         21   -1    0    0  502  503 -0.00000000000E+00 -0.00000000000E+00 -0.42012159791E+03  0.42012159791E+03  0.00000000000E+00 0.  1.
         -6    2    1    2    0  503 -0.10555825764E+02  0.25747250166E+02 -0.38178423907E+03  0.41943779097E+03  0.17144826899E+03 0.  0.
        -24    2    3    3    0    0  0.34112626556E+02 -0.19387480333E+02 -0.31355198897E+03  0.32610963613E+03  0.80579769861E+02 0.  0.
          6    2    1    2  501    0  0.10555825764E+02 -0.25747250166E+02  0.37140338346E+03  0.41042454923E+03  0.17243401933E+03 0.  0.
         24    2    5    5    0    0 -0.43507914065E+02 -0.91548092147E+01  0.31963443548E+03  0.33361106712E+03  0.84577908687E+02 0.  0.
          5    1    5    5  501    0  0.54063739828E+02 -0.16592440951E+02  0.51768947972E+02  0.76813482118E+02  0.47000000000E+01 0. -1.
        -13    1    6    6    0    0 -0.90615894899E+00 -0.26966952766E+02  0.24035388139E+03  0.24186365160E+03  0.00000000000E+00 0.  1.
         14    1    6    6    0    0 -0.42601755116E+02  0.17812143551E+02  0.79280554093E+02  0.91747415517E+02  0.00000000000E+00 0. -1.
         -5    1    3    3    0  503 -0.44668452320E+02  0.45134730499E+02 -0.68232250108E+02  0.93328154834E+02  0.47000000000E+01 0.  1.
         13    1    4    4    0    0 -0.12045944279E+02  0.49005926728E+01 -0.62788842259E+01  0.14441086151E+02  0.00000000000E+00 0. -1.
        -14    1    4    4    0    0  0.46158570835E+02 -0.24288073006E+02 -0.30727310474E+03  0.31166854998E+03  0.00000000000E+00 0.  1.
</event>
<event>
12    1  0.8684423E-002  0.1847649E+03  0.7818608E-02  0.1163471E+00
         21   -1    0    0  501  502  0.00000000000E+00  0.00000000000E+00  0.41573390679E+03  0.41573390679E+03  0.00000000000E+00 0.  1.
         21   -1    0    0  502  503 -0.00000000000E+00 -0.00000000000E+00 -0.13606850147E+03  0.13606850147E+03  0.00000000000E+00 0.  1.
         -6    2    1    2    0  503  0.65682400556E+02 -0.12277408261E+02 -0.34318235313E+02  0.18792498096E+03  0.17225894664E+03 0.  0.
        -24    2    3    3    0    0  0.88805154277E+02 -0.42561535023E+02  0.12689183969E+02  0.12723249757E+03  0.79556604737E+02 0.  0.
          6    2    1    2  501    0 -0.65682400556E+02  0.12277408261E+02  0.31398364064E+03  0.36387742730E+03  0.17133634468E+03 0.  0.
         24    2    5    5    0    0 -0.49863173469E+02  0.44800326024E+02  0.31057668228E+03  0.32724840205E+03  0.78359656612E+02 0.  0.
          5    1    5    5  501    0 -0.15819227088E+02 -0.32522917763E+02  0.34069583580E+01  0.36629025250E+02  0.47000000000E+01 0. -1.
        -13    1    6    6    0    0 -0.50523772420E+02  0.57031077084E+02  0.17186204491E+03  0.18799403664E+03  0.00000000000E+00 0.  1.
         14    1    6    6    0    0  0.66059895126E+00 -0.12230751059E+02  0.13871463737E+03  0.13925436540E+03  0.00000000000E+00 0. -1.
         -5    1    3    3    0  503 -0.23122753721E+02  0.30284126762E+02 -0.47007419282E+02  0.60692483397E+02  0.47000000000E+01 0.  1.
         13    1    4    4    0    0  0.43905014055E+02 -0.99023889677E+00  0.40754946290E+02  0.59913241270E+02  0.00000000000E+00 0. -1.
        -14    1    4    4    0    0  0.44900140221E+02 -0.41571296127E+02 -0.28065762321E+02  0.67319256296E+02  0.00000000000E+00 0.  1.
</event>
<event>
12    1  0.8684423E-002  0.2184895E+03  0.7818608E-02  0.1135465E+00
         21   -1    0    0  501  502  0.00000000000E+00  0.00000000000E+00  0.48448252574E+02  0.48448252574E+02  0.00000000000E+00 0.  1.
         21   -1    0    0  502  503 -0.00000000000E+00 -0.00000000000E+00 -0.10325932103E+04  0.10325932103E+04  0.00000000000E+00 0.  1.
         -6    2    1    2    0  503 -0.42904753715E+02 -0.12590584902E+03 -0.36145554660E+03  0.42113254462E+03  0.17032148209E+03 0.  0.
        -24    2    3    3    0    0 -0.49708540569E+02 -0.40305286134E+01 -0.16709308613E+03  0.19157048051E+03  0.79321909983E+02 0.  0.
          6    2    1    2  501    0  0.42904753715E+02  0.12590584902E+03 -0.62268941112E+03  0.65990891824E+03  0.17333371556E+03 0.  0.
         24    2    5    5    0    0 -0.10284361756E+02  0.69137357698E+02 -0.52237381655E+03  0.53287722092E+03  0.78727288990E+02 0.  0.
          5    1    5    5  501    0  0.53189115470E+02  0.56768491324E+02 -0.10031559457E+03  0.12703169733E+03  0.47000000000E+01 0. -1.
        -13    1    6    6    0    0 -0.10754193829E+02  0.30876622287E+02 -0.55328469163E+02  0.64267083244E+02  0.00000000000E+00 0.  1.
         14    1    6    6    0    0  0.46983207305E+00  0.38260735410E+02 -0.46704534739E+03  0.46861013767E+03  0.00000000000E+00 0. -1.
         -5    1    3    3    0  503  0.68037868549E+01 -0.12187532041E+03 -0.19436246047E+03  0.22956206411E+03  0.47000000000E+01 0.  1.
         11    1    4    4    0    0 -0.26582111012E+02 -0.73184830035E+01 -0.16590598683E+03  0.16818134643E+03  0.00000000000E+00 0. -1.
        -12    1    4    4    0    0 -0.23126429558E+02  0.32879543902E+01 -0.11870992939E+01  0.23389134078E+02  0.00000000000E+00 0.  1.
</event>
<event>
12    1  0.8684423E-002  0.1746933E+03  0.7818608E-02  0.1173187E+00
         21   -1    0    0  501  502  0.00000000000E+00  0.00000000000E+00  0.71287378971E+03  0.71287378971E+03  0.00000000000E+00 0.  1.
         21   -1    0    0  502  503 -0.00000000000E+00 -0.00000000000E+00 -0.42723776659E+02  0.42723776659E+02  0.00000000000E+00 0.  1.
         -6    2    1    2    0  503  0.15976597037E+02 -0.21988554442E+02  0.34947284471E+03  0.39070324642E+03  0.17256595665E+03 0.  0.
        -24    2    3    3    0    0  0.20317986621E+02  0.40227917134E+02  0.10925612538E+03  0.14247774563E+03  0.79573244047E+02 0.  0.
          6    2    1    2  501    0 -0.15976597037E+02  0.21988554442E+02  0.32067716834E+03  0.36489431995E+03  0.17197462097E+03 0.  0.
         24    2    5    5    0    0 -0.40004755800E+02  0.58835119108E+02  0.29536810381E+03  0.31392707077E+03  0.79031242477E+02 0.  0.
          5    1    5    5  501    0  0.24028158763E+02 -0.36846564667E+02  0.25309064527E+02  0.50967249176E+02  0.47000000000E+01 0. -1.
        -11    1    6    6    0    0 -0.29893417829E+00  0.53211800513E+02  0.88967366475E+02  0.10366666471E+03  0.00000000000E+00 0.  1.
         12    1    6    6    0    0 -0.39705821622E+02  0.56233185954E+01  0.20640073734E+03  0.21026040606E+03  0.00000000000E+00 0. -1.
         -5    1    3    3    0  503 -0.43413895833E+01 -0.62216471575E+02  0.24021671933E+03  0.24822550079E+03  0.47000000000E+01 0.  1.
         13    1    4    4    0    0 -0.23932085925E+02  0.37822492825E+02  0.38752458536E+02  0.59203367664E+02  0.00000000000E+00 0. -1.
        -14    1    4    4    0    0  0.44250072545E+02  0.24054243089E+01  0.70503666845E+02  0.83274377962E+02  0.00000000000E+00 0.  1.
</event>
<event>
12    1  0.8684423E-002  0.1712243E+03  0.7818608E-02  0.1178545E+00
         21   -1    0    0  503  502  0.00000000000E+00  0.00000000000E+00  0.44002525201E+02  0.44002525201E+02  0.00000000000E+00 0. -1.
         21   -1    0    0  501  503 -0.00000000000E+00 -0.00000000000E+00 -0.66295599312E+03  0.66295599312E+03  0.00000000000E+00 0. -1.
          6    2    1    2  501    0  0.59633773719E+01 -0.16598919549E+00 -0.37192760298E+03  0.40639313933E+03  0.16367544842E+03 0.  0.
         24    2    3    3    0    0  0.51031907865E+02  0.29731150519E+02 -0.16182798186E+03  0.18939324947E+03  0.78697587652E+02 0.  0.
         -6    2    1    2    0  502 -0.59633773719E+01  0.16598919549E+00 -0.24702586494E+03  0.30056537898E+03  0.17112036604E+03 0.  0.
        -24    2    5    5    0    0 -0.27561425556E+02 -0.50267597475E+02 -0.78950393830E+02  0.12369967757E+03  0.76039345144E+02 0.  0.
          5    1    3    3  501    0 -0.45068530493E+02 -0.29897139715E+02 -0.21009962112E+03  0.21699988986E+03  0.47000000000E+01 0. -1.
        -11    1    4    4    0    0  0.45923460251E+01  0.19615292960E+02  0.59968786753E+00  0.20154626900E+02  0.00000000000E+00 0.  1.
         12    1    4    4    0    0  0.46439561840E+02  0.10115857559E+02 -0.16242766973E+03  0.16923862257E+03  0.00000000000E+00 0. -1.
         -5    1    5    5    0  502  0.21598048184E+02  0.50433586670E+02 -0.16807547111E+03  0.17686570142E+03  0.47000000000E+01 0.  1.
         11    1    6    6    0    0 -0.41937143282E+02 -0.59770376493E+02 -0.45390489641E+02  0.85973940486E+02  0.00000000000E+00 0. -1.
        -12    1    6    6    0    0  0.14375717726E+02  0.95027790184E+01 -0.33559904188E+02  0.37725737081E+02  0.00000000000E+00 0.  1.
</event>
<event>
12    1  0.8684423E-002  0.1782442E+03  0.7818608E-02  0.1169532E+00
         21   -1    0    0  501  502  0.00000000000E+00  0.00000000000E+00  0.48097431475E+02  0.48097431475E+02  0.00000000000E+00 0.  1.
         21   -1    0    0  502  503 -0.00000000000E+00 -0.00000000000E+00 -0.10273635415E+04  0.10273635415E+04  0.00000000000E+00 0.  1.
         -6    2    1    2    0  503  0.37688637253E+02 -0.24753921847E+02 -0.81099744370E+03  0.83033785977E+03  0.17236855183E+03 0.  0.
        -24    2    3    3    0    0 -0.78725671209E+01 -0.56042644467E+02 -0.31457488329E+03  0.33082584191E+03  0.85355873644E+02 0.  0.
          6    2    1    2  501    0 -0.37688637253E+02  0.24753921847E+02 -0.16826866635E+03  0.24512311323E+03  0.17244653240E+03 0.  0.
         24    2    5    5    0    0 -0.89959854411E+02  0.11178305803E+02 -0.99805103068E+02  0.15779655947E+03  0.81981495808E+02 0.  0.
          5    1    5    5  501    0  0.52271217159E+02  0.13575616044E+02 -0.68463563283E+02  0.87326553760E+02  0.47000000000E+01 0. -1.
        -11    1    6    6    0    0 -0.56086316115E+02 -0.31930605019E+02 -0.36860790152E+02  0.74323322334E+02  0.00000000000E+00 0.  1.
         12    1    6    6    0    0 -0.33873538297E+02  0.43108910821E+02 -0.62944312917E+02  0.83473237133E+02  0.00000000000E+00 0. -1.
         -5    1    3    3    0  503  0.45561204374E+02  0.31288722620E+02 -0.49642256041E+03  0.49951201787E+03  0.47000000000E+01 0.  1.
         11    1    4    4    0    0  0.18834920564E+02 -0.40515629846E+02 -0.62293311875E+02  0.76659814758E+02  0.00000000000E+00 0. -1.
        -12    1    4    4    0    0 -0.26707487685E+02 -0.15527014622E+02 -0.25228157141E+03  0.25416602715E+03  0.00000000000E+00 0.  1.
</event>
<event>
12    1  0.8684423E-002  0.1805729E+03  0.7818608E-02  0.1168207E+00
         21   -1    0    0  501  502  0.00000000000E+00  0.00000000000E+00  0.79715409738E+03  0.79715409738E+03  0.00000000000E+00 0.  1.
         21   -1    0    0  502  503 -0.00000000000E+00 -0.00000000000E+00 -0.10602726012E+03  0.10602726012E+03  0.00000000000E+00 0.  1.
         -6    2    1    2    0  503 -0.46577576905E+02 -0.21994633254E+02 -0.12178574623E+02  0.17706492610E+03  0.16896874212E+03 0.  0.
        -24    2    3    3    0    0  0.33157313138E+02  0.15272582370E+02 -0.52355620973E+01  0.88652294238E+02  0.80617361507E+02 0.  0.
          6    2    1    2  501    0  0.46577576905E+02  0.21994633254E+02  0.70330541189E+03  0.72611643140E+03  0.17307031805E+03 0.  0.
         24    2    5    5    0    0 -0.42812176207E+02 -0.52371565432E+01  0.21871262588E+03  0.23257377205E+03  0.66295071377E+02 0.  0.
          5    1    5    5  501    0  0.89389753112E+02  0.27231789797E+02  0.48459278601E+03  0.49354265934E+03  0.47000000000E+01 0. -1.
        -11    1    6    6    0    0  0.83242196650E+01  0.23315369925E+01  0.12701637824E+03  0.12731020792E+03  0.00000000000E+00 0.  1.
         12    1    6    6    0    0 -0.51136395872E+02 -0.75686935356E+01  0.91696247632E+02  0.10526356413E+03  0.00000000000E+00 0. -1.
         -5    1    3    3    0  503 -0.79734890044E+02 -0.37267215623E+02 -0.69430125258E+01  0.88412631866E+02  0.47000000000E+01 0.  1.
         11    1    4    4    0    0  0.38899191249E+02  0.14448438577E+02 -0.37464128215E+02  0.55905861589E+02  0.00000000000E+00 0. -1.
        -12    1    4    4    0    0 -0.57418781101E+01  0.82414379296E+00  0.32228566117E+02  0.32746432649E+02  0.00000000000E+00 0.  1.
</event>
<event>
12    1  0.8684423E-002  0.2515330E+03  0.7818608E-02  0.1112681E+00
         21   -1    0    0  501  502  0.00000000000E+00  0.00000000000E+00  0.14172972545E+03  0.14172972545E+03  0.00000000000E+00 0. -1.
         21   -1    0    0  502  503 -0.00000000000E+00 -0.00000000000E+00 -0.78290341436E+03  0.78290341436E+03  0.00000000000E+00 0.  1.
         -6    2    1    2    0  503  0.12614411380E+03  0.13291767926E+03 -0.62461889112E+03  0.67255597258E+03  0.16912519092E+03 0.  0.
        -24    2    3    3    0    0  0.12542694196E+03  0.11259549872E+03 -0.62128550342E+03  0.65142053242E+03  0.99716443938E+02 0.  0.
          6    2    1    2  501    0 -0.12614411380E+03 -0.13291767926E+03 -0.16554797790E+02  0.25207716724E+03  0.17230609393E+03 0.  0.
         24    2    5    5    0    0 -0.35667095270E+02 -0.12884008588E+03 -0.34684304318E+02  0.15959210543E+03  0.79967054067E+02 0.  0.
          5    1    5    5  501    0 -0.90477018533E+02 -0.40775933790E+01  0.18129506529E+02  0.92485061807E+02  0.47000000000E+01 0. -1.
        -13    1    6    6    0    0 -0.51370650684E+02 -0.87109606341E+02 -0.49518842866E+02  0.11260170100E+03  0.00000000000E+00 0.  1.
         14    1    6    6    0    0  0.15703555414E+02 -0.41730479537E+02  0.14834538548E+02  0.46990404435E+02  0.00000000000E+00 0. -1.
         -5    1    3    3    0  503  0.71717183980E+00  0.20322180537E+02 -0.33333876962E+01  0.21135440160E+02  0.47000000000E+01 0.  1.
         11    1    4    4    0    0  0.16076462976E+02 -0.37820107728E+01 -0.93221189770E+01  0.18964655798E+02  0.00000000000E+00 0. -1.
        -12    1    4    4    0    0  0.10935047899E+03  0.11637750949E+03 -0.61196338445E+03  0.63245587662E+03  0.00000000000E+00 0.  1.
</event>
<event>
12    1  0.8684423E-002  0.2303699E+03  0.7818608E-02  0.1126457E+00
         21   -1    0    0  503  502  0.00000000000E+00  0.00000000000E+00  0.69502221515E+02  0.69502221515E+02  0.00000000000E+00 0. -1.
         21   -1    0    0  501  503 -0.00000000000E+00 -0.00000000000E+00 -0.87274866457E+03  0.87274866457E+03  0.00000000000E+00 0. -1.
          6    2    1    2  501    0 -0.15335695401E+03 -0.39820812733E+01 -0.56902890751E+03  0.61372668619E+03  0.17126685449E+03 0.  0.
         24    2    3    3    0    0 -0.26032318156E+02  0.31329203517E+01 -0.11771975604E+03  0.14472324661E+03  0.79996127201E+02 0.  0.
         -6    2    1    2    0  502  0.15335695401E+03  0.39820812733E+01 -0.23421753555E+03  0.32852419990E+03  0.17186065183E+03 0.  0.
        -24    2    5    5    0    0  0.17970735943E+03  0.22029281412E+02 -0.20776101955E+03  0.28678593763E+03  0.79382041463E+02 0.  0.
          5    1    3    3  501    0 -0.12732463585E+03 -0.71150016250E+01 -0.45130915146E+03  0.46900343958E+03  0.47000000000E+01 0. -1.
        -13    1    4    4    0    0  0.16250006867E+01 -0.34901694894E+02 -0.66956816795E+02  0.75524726077E+02  0.00000000000E+00 0.  1.
         14    1    4    4    0    0 -0.27657318843E+02  0.38034615246E+02 -0.50762939249E+02  0.69198520531E+02  0.00000000000E+00 0. -1.
         -5    1    5    5    0  502 -0.26350405417E+02 -0.18047200139E+02 -0.26456516004E+02  0.41738262273E+02  0.47000000000E+01 0.  1.
         11    1    6    6    0    0  0.11081741171E+03  0.94703592273E+01 -0.67727396263E+02  0.13021976289E+03  0.00000000000E+00 0. -1.
        -12    1    6    6    0    0  0.68889947715E+02  0.12558922185E+02 -0.14003362329E+03  0.15656617474E+03  0.00000000000E+00 0.  1.
</event>
<event>
12    1  0.8684423E-002  0.2041762E+03  0.7818608E-02  0.1146362E+00
         21   -1    0    0  503  502  0.00000000000E+00  0.00000000000E+00  0.12383756865E+03  0.12383756865E+03  0.00000000000E+00 0. -1.
         21   -1    0    0  501  503 -0.00000000000E+00 -0.00000000000E+00 -0.40515830418E+03  0.40515830418E+03  0.00000000000E+00 0. -1.
          6    2    1    2  501    0 -0.19049231408E+02 -0.10454055027E+03 -0.31113402067E+02  0.20605372950E+03  0.17377714403E+03 0.  0.
         24    2    3    3    0    0 -0.44718674319E+02 -0.53438535899E+02 -0.78817821258E+02  0.13143377385E+03  0.78785474598E+02 0.  0.
         -6    2    1    2    0  502  0.19049231408E+02  0.10454055027E+03 -0.25020733347E+03  0.32294214333E+03  0.17434539956E+03 0.  0.
        -24    2    5    5    0    0 -0.26423206426E+02  0.23786560461E+02 -0.19807493762E+03  0.21650518466E+03  0.79855042278E+02 0.  0.
          5    1    3    3  501    0  0.25669442911E+02 -0.51102014372E+02  0.47704419191E+02  0.74619955659E+02  0.47000000000E+01 0. -1.
        -13    1    4    4    0    0 -0.24514368086E+02 -0.59211653536E+02 -0.17232239715E+02  0.66362069307E+02  0.00000000000E+00 0.  1.
         14    1    4    4    0    0 -0.20204306232E+02  0.57731176363E+01 -0.61585581543E+02  0.65071704539E+02  0.00000000000E+00 0. -1.
         -5    1    5    5    0  502  0.45472437833E+02  0.80753989811E+02 -0.52132395848E+02  0.10643695866E+03  0.47000000000E+01 0.  1.
         11    1    6    6    0    0 -0.23903630045E+02  0.51212859516E+02 -0.10258982243E+03  0.11712733317E+03  0.00000000000E+00 0. -1.
        -12    1    6    6    0    0 -0.25195763807E+01 -0.27426299055E+02 -0.95485115187E+02  0.99377851493E+02  0.00000000000E+00 0.  1.
</event>
<event>
12    1  0.8684423E-002  0.2379680E+03  0.7818608E-02  0.1121254E+00
         21   -1    0    0  501  502  0.00000000000E+00  0.00000000000E+00  0.60259606015E+03  0.60259606015E+03  0.00000000000E+00 0. -1.
         21   -1    0    0  502  503 -0.00000000000E+00 -0.00000000000E+00 -0.11517454309E+03  0.11517454309E+03  0.00000000000E+00 0.  1.
         -6    2    1    2    0  503 -0.27305823853E+02 -0.16018512335E+03  0.88638846877E+02  0.25338242659E+03  0.17303446815E+03 0.  0.
        -24    2    3    3    0    0 -0.10013865712E+02 -0.29352945561E+02  0.85362965378E+02  0.12128817251E+03  0.80387262748E+02 0.  0.
          6    2    1    2  501    0  0.27305823853E+02  0.16018512335E+03  0.39878267018E+03  0.46438817665E+03  0.17385016198E+03 0.  0.
         24    2    5    5    0    0  0.74145676977E+02  0.15574926203E+03  0.32991752410E+03  0.38085287244E+03  0.80298964483E+02 0.  0.
          5    1    5    5  501    0 -0.46839853124E+02  0.44358613225E+01  0.68865146074E+02  0.83535304214E+02  0.47000000000E+01 0. -1.
        -13    1    6    6    0    0  0.89106492001E+02  0.12826363258E+03  0.24707756276E+03  0.29229924457E+03  0.00000000000E+00 0.  1.
         14    1    6    6    0    0 -0.14960815024E+02  0.27485629444E+02  0.82839961345E+02  0.88553627863E+02  0.00000000000E+00 0. -1.
         -5    1    3    3    0  503 -0.17291958141E+02 -0.13083217779E+03  0.32758814991E+01  0.13209425408E+03  0.47000000000E+01 0.  1.
         11    1    4    4    0    0  0.18868530252E+02 -0.45775339627E+02  0.67054324850E+02  0.83352778196E+02  0.00000000000E+00 0. -1.
        -12    1    4    4    0    0 -0.28882395964E+02  0.16422394066E+02  0.18308640528E+02  0.37935394310E+02  0.00000000000E+00 0.  1.
</event>
<event>
12    1  0.8684423E-002  0.1927539E+03  0.7818608E-02  0.1156088E+00
         21   -1    0    0  501  502  0.00000000000E+00  0.00000000000E+00  0.17155269331E+03  0.17155269331E+03  0.00000000000E+00 0. -1.
         21   -1    0    0  502  503 -0.00000000000E+00 -0.00000000000E+00 -0.35666937297E+03  0.35666937297E+03  0.00000000000E+00 0. -1.
         -6    2    1    2    0  503 -0.42485391283E+02  0.77922498490E+02 -0.25840268517E+03  0.32237559549E+03  0.17110567677E+03 0.  0.
        -24    2    3    3    0    0  0.48668928669E+01  0.27694428244E+02 -0.40037395116E+02  0.93311002515E+02  0.79456165153E+02 0.  0.
          6    2    1    2  501    0  0.42485391283E+02 -0.77922498490E+02  0.73286005514E+02  0.20584647079E+03  0.17066050125E+03 0.  0.
         24    2    5    5    0    0 -0.29974770119E+02 -0.61899259971E+02  0.93159859897E+01  0.10775736558E+03  0.82430922674E+02 0.  0.
          5    1    5    5  501    0  0.72460161402E+02 -0.16023238519E+02  0.63970019524E+02  0.98089105210E+02  0.47000000000E+01 0. -1.
        -11    1    6    6    0    0  0.17634304885E+02 -0.56796464187E+02  0.49189518593E+01  0.59674141304E+02  0.00000000000E+00 0.  1.
         12    1    6    6    0    0 -0.47609075004E+02 -0.51027957838E+01  0.43970341305E+01  0.48083224275E+02  0.00000000000E+00 0. -1.
         -5    1    3    3    0  503 -0.47352284150E+02  0.50228070246E+02 -0.21836529006E+03  0.22906459298E+03  0.47000000000E+01 0.  1.
         11    1    4    4    0    0 -0.33776823086E+02  0.11885627606E+01 -0.30424917235E+02  0.45474850719E+02  0.00000000000E+00 0. -1.
        -12    1    4    4    0    0  0.38643715952E+02  0.26505865483E+02 -0.96124778809E+01  0.47836151796E+02  0.00000000000E+00 0.  1.
</event>
<event>
12    1  0.8684423E-002  0.2372581E+03  0.7818608E-02  0.1122057E+00
         21   -1    0    0  503  502  0.00000000000E+00  0.00000000000E+00  0.17243672760E+04  0.17243672760E+04  0.00000000000E+00 0. -1.
         21   -1    0    0  501  503 -0.00000000000E+00 -0.00000000000E+00 -0.35639725256E+02  0.35639725256E+02  0.00000000000E+00 0. -1.
          6    2    1    2  501    0 -0.15937982336E+03 -0.10838205847E+02  0.57911125880E+03  0.62582846513E+03  0.17541956245E+03 0.  0.
         24    2    3    3    0    0 -0.78357084029E+02  0.31372470054E+02  0.16840827006E+03  0.20506076151E+03  0.81021639021E+02 0.  0.
         -6    2    1    2    0  502  0.15937982336E+03  0.10838205847E+02  0.11096162920E+04  0.11341785361E+04  0.17202686324E+03 0.  0.
        -24    2    5    5    0    0  0.17176096856E+02  0.66027431008E+01  0.58913036124E+03  0.59457911709E+03  0.78173713088E+02 0.  0.
          5    1    3    3  501    0 -0.81022739333E+02 -0.42210675901E+02  0.41070298874E+03  0.42076770362E+03  0.47000000000E+01 0. -1.
        -13    1    4    4    0    0  0.10602163704E+02  0.75420064455E+00  0.62510855173E+02  0.63408057124E+02  0.00000000000E+00 0.  1.
         14    1    4    4    0    0 -0.88959247733E+02  0.30618269409E+02  0.10589741489E+03  0.14165270438E+03  0.00000000000E+00 0. -1.
         -5    1    5    5    0  502  0.14220372651E+03  0.42354627465E+01  0.52048593071E+03  0.53959941906E+03  0.47000000000E+01 0.  1.
         11    1    6    6    0    0  0.23679390985E+02  0.14626190809E+02  0.69776319116E+02  0.75122391631E+02  0.00000000000E+00 0. -1.
        -12    1    6    6    0    0 -0.65032941291E+01 -0.80234477077E+01  0.51935404213E+03  0.51945672546E+03  0.00000000000E+00 0.  1.
</event>
<event>
12    1  0.8684423E-002  0.1787394E+03  0.7818608E-02  0.1169227E+00
         21   -1    0    0  501  502  0.00000000000E+00  0.00000000000E+00  0.91990034041E+02  0.91990034041E+02  0.00000000000E+00 0.  1.
         21   -1    0    0  502  503 -0.00000000000E+00 -0.00000000000E+00 -0.46175460282E+03  0.46175460282E+03  0.00000000000E+00 0.  1.
         -6    2    1    2    0  503  0.46447337003E+02  0.70678511428E+01 -0.32335912855E+03  0.36907940373E+03  0.17161343366E+03 0.  0.
        -24    2    3    3    0    0  0.59418911359E+02  0.86693366592E+01 -0.33589675068E+03  0.35036821815E+03  0.79532991579E+02 0.  0.
          6    2    1    2  501    0 -0.46447337003E+02 -0.70678511428E+01 -0.46405440232E+02  0.18466523313E+03  0.17245426584E+03 0.  0.
         24    2    5    5    0    0 -0.86283965797E+02  0.29115067385E+02 -0.19111607319E+02  0.12414082564E+03  0.82177132786E+02 0.  0.
          5    1    5    5  501    0  0.39836628793E+02 -0.36182918528E+02 -0.27293832913E+02  0.60524407489E+02  0.47000000000E+01 0. -1.
        -13    1    6    6    0    0 -0.33905020372E+01 -0.19253501668E+02 -0.20268997036E+02  0.28160700833E+02  0.00000000000E+00 0.  1.
         14    1    6    6    0    0 -0.82893463759E+02  0.48368569053E+02  0.11573897170E+01  0.95980124803E+02  0.00000000000E+00 0. -1.
         -5    1    3    3    0  503 -0.12971574356E+02 -0.16014855164E+01  0.12537622134E+02  0.18711185582E+02  0.47000000000E+01 0.  1.
         13    1    4    4    0    0 -0.11281433170E+02  0.13847160288E+02 -0.20895828894E+02  0.27489093247E+02  0.00000000000E+00 0. -1.
        -14    1    4    4    0    0  0.70700344529E+02 -0.51778236283E+01 -0.31500092179E+03  0.32287912491E+03  0.00000000000E+00 0.  1.
</event>
<event>
12    1  0.8684423E-002  0.1746774E+03  0.7818608E-02  0.1173748E+00
         21   -1    0    0  503  502  0.00000000000E+00  0.00000000000E+00  0.21376069659E+03  0.21376069659E+03  0.00000000000E+00 0. -1.
         21   -1    0    0  501  503 -0.00000000000E+00 -0.00000000000E+00 -0.19091676223E+03  0.19091676223E+03  0.00000000000E+00 0. -1.
          6    2    1    2  501    0  0.24853428966E+02 -0.17361023422E+02 -0.92468022424E+02  0.19764246021E+03  0.17202647715E+03 0.  0.
         24    2    3    3    0    0  0.71942329236E+02 -0.14082244799E+02 -0.19780734362E+02  0.11084587754E+03  0.80755945666E+02 0.  0.
         -6    2    1    2    0  502 -0.24853428966E+02  0.17361023422E+02  0.11531195678E+03  0.20703499861E+03  0.16925585723E+03 0.  0.
        -24    2    5    5    0    0  0.21277388927E+02  0.29952035576E+02  0.12943315094E+03  0.15695422315E+03  0.80819774120E+02 0.  0.
          5    1    3    3  501    0 -0.47088900270E+02 -0.32787786223E+01 -0.72687288061E+02  0.86796582672E+02  0.47000000000E+01 0. -1.
        -11    1    4    4    0    0  0.32683920119E+02 -0.39128908841E+02  0.14518030756E+02  0.53010219378E+02  0.00000000000E+00 0.  1.
         12    1    4    4    0    0  0.39258409117E+02  0.25046664042E+02 -0.34298765119E+02  0.57835658159E+02  0.00000000000E+00 0. -1.
         -5    1    5    5    0  502 -0.46130817893E+02 -0.12591012155E+02 -0.14121194152E+02  0.50080775462E+02  0.47000000000E+01 0.  1.
         11    1    6    6    0    0  0.27781330749E+01 -0.26374792922E+02  0.60342321873E+02  0.65913151450E+02  0.00000000000E+00 0. -1.
        -12    1    6    6    0    0  0.18499255852E+02  0.56326828498E+02  0.69090829062E+02  0.91041071700E+02  0.00000000000E+00 0.  1.
</event>
<event>
12    1  0.8684423E-002  0.2121525E+03  0.7818608E-02  0.1140007E+00
         21   -1    0    0  503  502  0.00000000000E+00  0.00000000000E+00  0.69790891109E+03  0.69790891109E+03  0.00000000000E+00 0.  1.
         21   -1    0    0  501  503 -0.00000000000E+00 -0.00000000000E+00 -0.64283849965E+02  0.64283849965E+02  0.00000000000E+00 0. -1.
          6    2    1    2  501    0 -0.12111069485E+03 -0.29377719569E+02  0.31831528103E+03  0.38215466483E+03  0.17084120961E+03 0.  0.
         24    2    3    3    0    0 -0.60247906392E+02 -0.20505416350E+02  0.30262667832E+03  0.31850547758E+03  0.76240084543E+02 0.  0.
         -6    2    1    2    0  502  0.12111069485E+03  0.29377719569E+02  0.31530978010E+03  0.38003809623E+03  0.17169113648E+03 0.  0.
        -24    2    5    5    0    0  0.12294489978E+03  0.68101165649E+02  0.18872467757E+03  0.24756640957E+03  0.76934427148E+02 0.  0.
          5    1    3    3  501    0 -0.60862788455E+02 -0.88723032196E+01  0.15688602710E+02  0.63649187252E+02  0.47000000000E+01 0. -1.
        -11    1    4    4    0    0 -0.50990865301E+02  0.10275514737E+02  0.94131300895E+02  0.10754699603E+03  0.00000000000E+00 0.  1.
         12    1    4    4    0    0 -0.92570410915E+01 -0.30780931087E+02  0.20849537742E+03  0.21095848154E+03  0.00000000000E+00 0. -1.
         -5    1    5    5    0  502 -0.18342049281E+01 -0.38723446080E+02  0.12658510253E+03  0.13247168666E+03  0.47000000000E+01 0.  1.
         11    1    6    6    0    0  0.30266500599E+02 -0.16249759792E+02  0.49452815579E+02  0.60213758565E+02  0.00000000000E+00 0. -1.
        -12    1    6    6    0    0  0.92678399176E+02  0.84350925441E+02  0.13927186199E+03  0.18735265101E+03  0.00000000000E+00 0.  1.
</event>
<event>
12    1  0.8684423E-002  0.1876025E+03  0.7818608E-02  0.1160803E+00
         21   -1    0    0  503  502  0.00000000000E+00  0.00000000000E+00  0.42958590235E+03  0.42958590235E+03  0.00000000000E+00 0.  1.
         21   -1    0    0  501  503 -0.00000000000E+00 -0.00000000000E+00 -0.13742477246E+03  0.13742477246E+03  0.00000000000E+00 0.  1.
          6    2    1    2  501    0 -0.78901380182E+01  0.73181341613E+02 -0.34741556931E+02  0.19010209374E+03  0.17179658678E+03 0.  0.
         24    2    3    3    0    0  0.23738513046E+01  0.20200941980E+02 -0.83547798245E+02  0.11718836792E+03  0.79618878148E+02 0.  0.
         -6    2    1    2    0  502  0.78901380182E+01 -0.73181341613E+02  0.32690268682E+03  0.37690858106E+03  0.17255998605E+03 0.  0.
        -24    2    5    5    0    0  0.24757346548E+02 -0.62429509766E+02  0.85663162134E+02  0.13479558495E+03  0.79506619081E+02 0.  0.
          5    1    3    3  501    0 -0.10263989323E+02  0.52980399634E+02  0.48806241314E+02  0.72913725823E+02  0.47000000000E+01 0. -1.
        -11    1    4    4    0    0 -0.37887501412E+02  0.16931369023E+02 -0.37471837496E+02  0.55913080987E+02  0.00000000000E+00 0.  1.
         12    1    4    4    0    0  0.40261352716E+02  0.32695729569E+01 -0.46075960750E+02  0.61275286934E+02  0.00000000000E+00 0. -1.
         -5    1    5    5    0  502 -0.16867208530E+02 -0.10751831847E+02  0.24123952469E+03  0.24211299610E+03  0.47000000000E+01 0.  1.
         11    1    6    6    0    0 -0.28715874991E+02 -0.29088172445E+02  0.29813538727E+02  0.50592196474E+02  0.00000000000E+00 0. -1.
        -12    1    6    6    0    0  0.53473221539E+02 -0.33341337322E+02  0.55849623407E+02  0.84203388477E+02  0.00000000000E+00 0.  1.
</event>
<event>
12    1  0.8684423E-002  0.2289167E+03  0.7818608E-02  0.1127455E+00
         21   -1    0    0  501  502  0.00000000000E+00  0.00000000000E+00  0.41567035211E+02  0.41567035211E+02  0.00000000000E+00 0. -1.
         21   -1    0    0  502  503 -0.00000000000E+00 -0.00000000000E+00 -0.13363758655E+04  0.13363758655E+04  0.00000000000E+00 0.  1.
         -6    2    1    2    0  503 -0.14649163433E+03 -0.33313975198E+02 -0.81345438259E+03  0.84505083005E+03  0.17272305273E+03 0.  0.
        -24    2    3    3    0    0 -0.17566123817E+03 -0.27020623188E+02 -0.74572447944E+03  0.77088950692E+03  0.81108864939E+02 0.  0.
          6    2    1    2  501    0  0.14649163433E+03  0.33313975198E+02 -0.48135444767E+03  0.53289207063E+03  0.17234336302E+03 0.  0.
         24    2    5    5    0    0  0.17205729496E+03  0.43844591052E+02 -0.45326045455E+03  0.49319497598E+03  0.79184491951E+02 0.  0.
          5    1    5    5  501    0 -0.25565660632E+02 -0.10530615854E+02 -0.28093993124E+02  0.39697094647E+02  0.47000000000E+01 0. -1.
        -13    1    6    6    0    0  0.10552737323E+03 -0.13450985204E+02 -0.26021075602E+03  0.28111668939E+03  0.00000000000E+00 0.  1.
         14    1    6    6    0    0  0.66529921727E+02  0.57295576256E+02 -0.19304969853E+03  0.21207828660E+03  0.00000000000E+00 0. -1.
         -5    1    3    3    0  503  0.29169603842E+02 -0.62933520100E+01 -0.67729903147E+02  0.74161323129E+02  0.47000000000E+01 0.  1.
         11    1    4    4    0    0 -0.62792697797E+02 -0.34845355757E+02 -0.41950944801E+03  0.42561167593E+03  0.00000000000E+00 0. -1.
        -12    1    4    4    0    0 -0.11286854037E+03  0.78247325697E+01 -0.32621503143E+03  0.34527783099E+03  0.00000000000E+00 0.  1.
</event>
<event>
12    1  0.8684423E-002  0.1852616E+03  0.7818608E-02  0.1163240E+00
         21   -1    0    0  503  502  0.00000000000E+00  0.00000000000E+00  0.97706219747E+03  0.97706219747E+03  0.00000000000E+00 0. -1.
         21   -1    0    0  501  503 -0.00000000000E+00 -0.00000000000E+00 -0.35661071423E+02  0.35661071423E+02  0.00000000000E+00 0.  1.
          6    2    1    2  501    0  0.67515131564E+02  0.10146144078E+01  0.55273773740E+03  0.58295870818E+03  0.17251819227E+03 0.  0.
         24    2    3    3    0    0 -0.26755492572E+01  0.52105952129E+02  0.23882286357E+03  0.25722615765E+03  0.80042158917E+02 0.  0.
         -6    2    1    2    0  502 -0.67515131564E+02 -0.10146144078E+01  0.38866338864E+03  0.42976456071E+03  0.17052573277E+03 0.  0.
        -24    2    5    5    0    0 -0.78752312747E+02 -0.30414360668E+02  0.15456495310E+03  0.19351302771E+03  0.80187324859E+02 0.  0.
          5    1    3    3  501    0  0.70190680821E+02 -0.51091337721E+02  0.31391487383E+03  0.32573255053E+03  0.47000000000E+01 0. -1.
        -13    1    4    4    0    0  0.16773383678E+02  0.18433317101E+02  0.13056600652E+02  0.28135536248E+02  0.00000000000E+00 0.  1.
         14    1    4    4    0    0 -0.19448932935E+02  0.33672635028E+02  0.22576626292E+03  0.22909062140E+03  0.00000000000E+00 0. -1.
         -5    1    5    5    0  502  0.11237181183E+02  0.29399746260E+02  0.23409843554E+03  0.23625153300E+03  0.47000000000E+01 0.  1.
         11    1    6    6    0    0 -0.79810055238E+01  0.11882643221E+02  0.83341135703E+02  0.84561448423E+02  0.00000000000E+00 0. -1.
        -12    1    6    6    0    0 -0.70771307223E+02 -0.42297003889E+02  0.71223817397E+02  0.10895157928E+03  0.00000000000E+00 0.  1.
</event>
<event>
12    1  0.8684423E-002  0.1878323E+03  0.7818608E-02  0.1160935E+00
         21   -1    0    0  501  502  0.00000000000E+00  0.00000000000E+00  0.33366761236E+03  0.33366761236E+03  0.00000000000E+00 0.  1.
         21   -1    0    0  502  503 -0.00000000000E+00 -0.00000000000E+00 -0.12613807565E+03  0.12613807565E+03  0.00000000000E+00 0.  1.
         -6    2    1    2    0  503 -0.66512005903E+02  0.13853778199E+02  0.80632781287E+01  0.18582075179E+03  0.17276736162E+03 0.  0.
        -24    2    3    3    0    0 -0.10315694864E+03 -0.23440588382E+02  0.16139977505E+02  0.13270724429E+03  0.78485008608E+02 0.  0.
          6    2    1    2  501    0  0.66512005903E+02 -0.13853778199E+02  0.19946625859E+03  0.27398493622E+03  0.17511477055E+03 0.  0.
         24    2    5    5    0    0  0.98403690400E+02  0.33435165901E+02  0.15053105760E+03  0.19868508450E+03  0.77556217655E+02 0.  0.
          5    1    5    5  501    0 -0.31891684497E+02 -0.47288944100E+02  0.48935200982E+02  0.75299851722E+02  0.47000000000E+01 0. -1.
        -11    1    6    6    0    0  0.65400435246E+02 -0.18656032303E+02  0.78430900713E+02  0.10381074443E+03  0.00000000000E+00 0.  1.
         12    1    6    6    0    0  0.33003255154E+02  0.52091198204E+02  0.72100156891E+02  0.94874340075E+02  0.00000000000E+00 0. -1.
         -5    1    3    3    0  503  0.36644942735E+02  0.37294366581E+02 -0.80766993761E+01  0.53113507506E+02  0.47000000000E+01 0.  1.
         11    1    4    4    0    0  0.48477971907E+01 -0.21780998473E+02  0.10177295181E+02  0.24525300595E+02  0.00000000000E+00 0. -1.
        -12    1    4    4    0    0 -0.10800474583E+03 -0.16595899090E+01  0.59626823243E+01  0.10818194369E+03  0.00000000000E+00 0.  1.
</event>
<event>
12    1  0.8684423E-002  0.2046696E+03  0.7818608E-02  0.1145906E+00
         21   -1    0    0  503  502  0.00000000000E+00  0.00000000000E+00  0.68554599530E+02  0.68554599530E+02  0.00000000000E+00 0.  1.
         21   -1    0    0  501  503 -0.00000000000E+00 -0.00000000000E+00 -0.61122497268E+03  0.61122497268E+03  0.00000000000E+00 0.  1.
          6    2    1    2  501    0  0.40445375796E+02  0.10270135727E+03 -0.28406333824E+03  0.34998077649E+03  0.17207895448E+03 0.  0.
         24    2    3    3    0    0 -0.34815634724E+02  0.58435391884E+02 -0.95354075463E+02  0.14199767320E+03  0.80275251742E+02 0.  0.
         -6    2    1    2    0  502 -0.40445375796E+02 -0.10270135727E+03 -0.25860703491E+03  0.32979879571E+03  0.17235501136E+03 0.  0.
        -24    2    5    5    0    0 -0.55640735460E+02 -0.11707920452E+03 -0.12785754540E+03  0.19730298275E+03  0.76009759315E+02 0.  0.
          5    1    3    3  501    0  0.75261010520E+02  0.44265965388E+02 -0.18870926278E+03  0.20798310329E+03  0.47000000000E+01 0. -1.
        -11    1    4    4    0    0 -0.58327873814E+00  0.64988878893E+02 -0.39175950987E+02  0.75885767635E+02  0.00000000000E+00 0.  1.
         12    1    4    4    0    0 -0.34232355986E+02 -0.65534870086E+01 -0.56178124477E+02  0.66111905570E+02  0.00000000000E+00 0. -1.
         -5    1    5    5    0  502  0.15195359664E+02  0.14377847251E+02 -0.13074948951E+03  0.13249581297E+03  0.47000000000E+01 0.  1.
         11    1    6    6    0    0  0.11743704595E+02 -0.53714540608E+02 -0.66584469715E+02  0.86351943103E+02  0.00000000000E+00 0. -1.
        -12    1    6    6    0    0 -0.67384440054E+02 -0.63364663915E+02 -0.61273075687E+02  0.11095103965E+03  0.00000000000E+00 0.  1.
</event>
<event>
12    1  0.8684423E-002  0.2313359E+03  0.7818608E-02  0.1125865E+00
         21   -1    0    0  501  502  0.00000000000E+00  0.00000000000E+00  0.12193227446E+04  0.12193227446E+04  0.00000000000E+00 0. -1.
         21   -1    0    0  502  503 -0.00000000000E+00 -0.00000000000E+00 -0.46705736059E+02  0.46705736059E+02  0.00000000000E+00 0.  1.
         -6    2    1    2    0  503 -0.13069727015E+03 -0.83106889782E+02  0.74540433050E+03  0.78020241801E+03  0.17058624094E+03 0.  0.
        -24    2    3    3    0    0 -0.10986657275E+03 -0.47730813390E+02  0.71342929993E+03  0.72795419015E+03  0.81160597614E+02 0.  0.
          6    2    1    2  501    0  0.13069727015E+03  0.83106889782E+02  0.42721267803E+03  0.48582606263E+03  0.17183643184E+03 0.  0.
         24    2    5    5    0    0  0.74548294323E+01 -0.12480880063E+01  0.16647206510E+03  0.18530614865E+03  0.81044975543E+02 0.  0.
          5    1    5    5  501    0  0.12324244072E+03  0.84354977788E+02  0.26074061293E+03  0.30051991398E+03  0.47000000000E+01 0. -1.
        -13    1    6    6    0    0  0.39791829103E+02 -0.18182716735E+02  0.10596300514E+03  0.11463925728E+03  0.00000000000E+00 0.  1.
         14    1    6    6    0    0 -0.32336999670E+02  0.16934628728E+02  0.60509059965E+02  0.70666891368E+02  0.00000000000E+00 0. -1.
         -5    1    3    3    0  503 -0.20830697405E+02 -0.35376076391E+02  0.31975030569E+02  0.52248227866E+02  0.47000000000E+01 0.  1.
         11    1    4    4    0    0 -0.47264110067E+02 -0.19793488218E+02  0.11871340815E+03  0.12930023802E+03  0.00000000000E+00 0. -1.
        -12    1    4    4    0    0 -0.62602462680E+02 -0.27937325172E+02  0.59471589178E+03  0.59865395213E+03  0.00000000000E+00 0.  1.
</event>
<event>
12    1  0.8684423E-002  0.2074859E+03  0.7818608E-02  0.1143588E+00
         21   -1    0    0  501  502  0.00000000000E+00  0.00000000000E+00  0.58998156024E+03  0.58998156024E+03  0.00000000000E+00 0.  1.
         21   -1    0    0  502  503 -0.00000000000E+00 -0.00000000000E+00 -0.11965547747E+03  0.11965547747E+03  0.00000000000E+00 0. -1.
         -6    2    1    2    0  503  0.51225654287E+02  0.10377053595E+03  0.45683365746E+03  0.50171292859E+03  0.17212344506E+03 0.  0.
        -24    2    3    3    0    0  0.67521843253E+02  0.37287180833E+02  0.15129997877E+03  0.18856995630E+03  0.81959817425E+02 0.  0.
          6    2    1    2  501    0 -0.51225654287E+02 -0.10377053595E+03  0.13492425303E+02  0.20792410912E+03  0.17221497561E+03 0.  0.
         24    2    5    5    0    0  0.29856120555E+02 -0.91388889768E+02  0.16879504826E+01  0.12492413924E+03  0.79748819934E+02 0.  0.
          5    1    5    5  501    0 -0.81081774842E+02 -0.12381646179E+02  0.11804474821E+02  0.82999969876E+02  0.47000000000E+01 0. -1.
        -11    1    6    6    0    0  0.66673425819E+00 -0.18103277724E+02  0.34908994390E+02  0.39329519299E+02  0.00000000000E+00 0.  1.
         12    1    6    6    0    0  0.29189386297E+02 -0.73285612043E+02 -0.33221043907E+02  0.85594619943E+02  0.00000000000E+00 0. -1.
         -5    1    3    3    0  503 -0.16296188965E+02  0.66483355114E+02  0.30553367868E+03  0.31314297229E+03  0.47000000000E+01 0.  1.
         11    1    4    4    0    0 -0.86866804898E+01  0.33286249266E+02  0.32208839960E+02  0.47125812244E+02  0.00000000000E+00 0. -1.
        -12    1    4    4    0    0  0.76208523743E+02  0.40009315671E+01  0.11909113881E+03  0.14144414406E+03  0.00000000000E+00 0.  1.
</event>
<event>
12    1  0.8684423E-002  0.1987185E+03  0.7818608E-02  0.1151810E+00
         21   -1    0    0  501  502  0.00000000000E+00  0.00000000000E+00  0.76464732157E+03  0.76464732157E+03  0.00000000000E+00 0.  1.
         21   -1    0    0  502  503 -0.00000000000E+00 -0.00000000000E+00 -0.51114591401E+02  0.51114591401E+02  0.00000000000E+00 0. -1.
         -6    2    1    2    0  503 -0.98481303081E+02  0.86335553526E+01  0.39876948450E+03  0.44351877373E+03  0.16708888518E+03 0.  0.
        -24    2    3    3    0    0 -0.21525440289E+02 -0.39433299549E+02  0.27886354632E+03  0.29307891409E+03  0.78179554394E+02 0.  0.
          6    2    1    2  501    0  0.98481303081E+02 -0.86335553526E+01  0.31476324567E+03  0.37224313924E+03  0.17238314463E+03 0.  0.
         24    2    5    5    0    0  0.36099167316E+02  0.59099677809E+01  0.29055821227E+03  0.30360627910E+03  0.80091325308E+02 0.  0.
          5    1    5    5  501    0  0.62382135765E+02 -0.14543523133E+02  0.24205033393E+02  0.68636860136E+02  0.47000000000E+01 0. -1.
        -13    1    6    6    0    0  0.22136250853E+02 -0.36472153747E+02  0.12214812535E+03  0.12938468274E+03  0.00000000000E+00 0.  1.
         14    1    6    6    0    0  0.13962916463E+02  0.42382121528E+02  0.16841008693E+03  0.17422159637E+03  0.00000000000E+00 0. -1.
         -5    1    3    3    0  503 -0.76955862792E+02  0.48066854901E+02  0.11990593818E+03  0.15043985964E+03  0.47000000000E+01 0.  1.
         11    1    4    4    0    0 -0.85293236063E+01  0.14965595624E+02  0.13499998634E+02  0.21885346163E+02  0.00000000000E+00 0. -1.
        -12    1    4    4    0    0 -0.12996116683E+02 -0.54398895172E+02  0.26536354768E+03  0.27119356792E+03  0.00000000000E+00 0.  1.
</event>
<event>
12    1  0.8684423E-002  0.2127269E+03  0.7818608E-02  0.1139623E+00
         21   -1    0    0  503  502  0.00000000000E+00  0.00000000000E+00  0.22212749905E+03  0.22212749905E+03  0.00000000000E+00 0.  1.
         21   -1    0    0  501  503 -0.00000000000E+00 -0.00000000000E+00 -0.27728704724E+03  0.27728704724E+03  0.00000000000E+00 0.  1.
          6    2    1    2  501    0  0.42479421810E+02 -0.11564431525E+03 -0.15709251305E+03  0.26444428958E+03  0.17342034398E+03 0.  0.
         24    2    3    3    0    0  0.42407263150E+02 -0.10477523452E+03 -0.18751062408E+03  0.23180239011E+03  0.76130730855E+02 0.  0.
         -6    2    1    2    0  502 -0.42479421810E+02  0.11564431525E+03  0.10193296486E+03  0.23497025671E+03  0.17217021603E+03 0.  0.
        -24    2    5    5    0    0 -0.58563667683E+02  0.10904311518E+03  0.13279933571E+03  0.19923369760E+03  0.82087140005E+02 0.  0.
          5    1    3    3  501    0  0.72158659863E-01 -0.10869080729E+02  0.30418111027E+02  0.32641899473E+02  0.47000000000E+01 0. -1.
        -13    1    4    4    0    0  0.60243622492E+02 -0.61176802247E+02 -0.95412861127E+02  0.12835696028E+03  0.00000000000E+00 0.  1.
         14    1    4    4    0    0 -0.17836359342E+02 -0.43598432272E+02 -0.92097762950E+02  0.10344542982E+03  0.00000000000E+00 0. -1.
         -5    1    5    5    0  502  0.16084245873E+02  0.66012000676E+01 -0.30866370851E+02  0.35736559112E+02  0.47000000000E+01 0.  1.
         11    1    6    6    0    0  0.15000859926E+02  0.16343866514E+01  0.29156852901E+02  0.32830155183E+02  0.00000000000E+00 0. -1.
        -12    1    6    6    0    0 -0.73564527609E+02  0.10740872853E+03  0.10364248281E+03  0.16640354242E+03  0.00000000000E+00 0.  1.
</event>
<event>
12    1  0.8684423E-002  0.2249162E+03  0.7818608E-02  0.1130740E+00
         21   -1    0    0  503  502  0.00000000000E+00  0.00000000000E+00  0.36738950367E+03  0.36738950367E+03  0.00000000000E+00 0. -1.
         21   -1    0    0  501  503 -0.00000000000E+00 -0.00000000000E+00 -0.14600035340E+03  0.14600035340E+03  0.00000000000E+00 0. -1.
          6    2    1    2  501    0  0.13408523942E+03 -0.41182239563E+02  0.44512558098E+02  0.22927853321E+03  0.17581936661E+03 0.  0.
         24    2    3    3    0    0 -0.99187468764E+00 -0.58001463129E-01  0.38879564079E+02  0.87889529618E+02  0.78815999226E+02 0.  0.
         -6    2    1    2    0  502 -0.13408523942E+03  0.41182239563E+02  0.17687659217E+03  0.28411132386E+03  0.17250822357E+03 0.  0.
        -24    2    5    5    0    0 -0.75668775326E-01  0.21257794739E+02  0.92869818995E+02  0.12462848319E+03  0.80346474596E+02 0.  0.
          5    1    3    3  501    0  0.13507711411E+03 -0.41124238100E+02  0.56329940198E+01  0.14138900359E+03  0.47000000000E+01 0. -1.
        -11    1    4    4    0    0  0.25560291273E+02  0.20783054572E+02  0.42687268229E+02  0.53920930224E+02  0.00000000000E+00 0.  1.
         12    1    4    4    0    0 -0.26552165961E+02 -0.20841056035E+02 -0.38077041509E+01  0.33968599394E+02  0.00000000000E+00 0. -1.
         -5    1    5    5    0  502 -0.13400957065E+03  0.19924444824E+02  0.84006773174E+02  0.15948284066E+03  0.47000000000E+01 0.  1.
         11    1    6    6    0    0  0.15187742934E+02  0.48620166432E+02  0.48677823461E+02  0.70456501589E+02  0.00000000000E+00 0. -1.
        -12    1    6    6    0    0 -0.15263411709E+02 -0.27362371693E+02  0.44191995534E+02  0.54171981604E+02  0.00000000000E+00 0.  1.
</event>
<event>
12    1  0.8684423E-002  0.2113553E+03  0.7818608E-02  0.1140664E+00
         21   -1    0    0  503  502  0.00000000000E+00  0.00000000000E+00  0.63835568427E+03  0.63835568427E+03  0.00000000000E+00 0. -1.
         21   -1    0    0  501  503 -0.00000000000E+00 -0.00000000000E+00 -0.97753979383E+02  0.97753979383E+02  0.00000000000E+00 0.  1.
          6    2    1    2  501    0 -0.10635551605E+03 -0.61140854029E+02  0.73508834122E+02  0.22377360190E+03  0.17210861799E+03 0.  0.
         24    2    3    3    0    0 -0.36956266282E+02 -0.18558627431E+02 -0.28173973031E+02  0.93424128710E+02  0.78893008557E+02 0.  0.
         -6    2    1    2    0  502  0.10635551605E+03  0.61140854029E+02  0.46709287077E+03  0.51233606176E+03  0.17106370284E+03 0.  0.
        -24    2    5    5    0    0  0.12706568259E+03  0.13352255529E+02  0.27883116820E+03  0.31694614441E+03  0.79900360946E+02 0.  0.
          5    1    3    3  501    0 -0.69399249767E+02 -0.42582226598E+02  0.10168280715E+03  0.13034947319E+03  0.47000000000E+01 0. -1.
        -11    1    4    4    0    0 -0.33615700097E+02 -0.35558320808E+02  0.11383311551E+02  0.50239319797E+02  0.00000000000E+00 0.  1.
         12    1    4    4    0    0 -0.33405661845E+01  0.16999693377E+02 -0.39557284582E+02  0.43184808913E+02  0.00000000000E+00 0. -1.
         -5    1    5    5    0  502 -0.20710166543E+02  0.47788598500E+02  0.18826170257E+03  0.19538991734E+03  0.47000000000E+01 0.  1.
         11    1    6    6    0    0  0.51343539198E+02  0.29953925232E+01  0.37085768302E+02  0.63407299298E+02  0.00000000000E+00 0. -1.
        -12    1    6    6    0    0  0.75722143395E+02  0.10356863006E+02  0.24174539990E+03  0.25353884512E+03  0.00000000000E+00 0.  1.
</event>
<event>
12    1  0.8684423E-002  0.2146099E+03  0.7818608E-02  0.1138045E+00
         21   -1    0    0  501  502  0.00000000000E+00  0.00000000000E+00  0.99578420255E+02  0.99578420255E+02  0.00000000000E+00 0.  1.
         21   -1    0    0  502  503 -0.00000000000E+00 -0.00000000000E+00 -0.28404832068E+04  0.28404832068E+04  0.00000000000E+00 0.  1.
         -6    2    1    2    0  503 -0.12206836275E+03 -0.38491320003E+02 -0.27155204824E+04  0.27239557339E+04  0.17175879352E+03 0.  0.
        -24    2    3    3    0    0 -0.22938033265E+02 -0.14399124968E+02 -0.62614766326E+03  0.63208859583E+03  0.82107299322E+02 0.  0.
          6    2    1    2  501    0  0.12206836275E+03  0.38491320003E+02 -0.25384304180E+02  0.21610589316E+03  0.17226470115E+03 0.  0.
         24    2    5    5    0    0  0.37212137287E+02  0.73410264327E+02  0.11751300461E+02  0.11700465803E+03  0.82329744740E+02 0.  0.
          5    1    5    5  501    0  0.84856225463E+02 -0.34918944324E+02 -0.37135604641E+02  0.99101235132E+02  0.47000000000E+01 0. -1.
        -13    1    6    6    0    0  0.50656065188E+02  0.84750475563E+02  0.11613532547E+02  0.99416066040E+02  0.00000000000E+00 0.  1.
         14    1    6    6    0    0 -0.13443927902E+02 -0.11340211236E+02  0.13776791409E+00  0.17588591993E+02  0.00000000000E+00 0. -1.
         -5    1    3    3    0  503 -0.99130329486E+02 -0.24092195035E+02 -0.20893728191E+04  0.20918671381E+04  0.47000000000E+01 0.  1.
         11    1    4    4    0    0  0.23630657353E+02 -0.28722322670E+02 -0.23653706784E+03  0.23944344687E+03  0.00000000000E+00 0. -1.
        -12    1    4    4    0    0 -0.46568690617E+02  0.14323197702E+02 -0.38961059543E+03  0.39264514897E+03  0.00000000000E+00 0.  1.
</event>
<event>
12    1  0.8684423E-002  0.1980363E+03  0.7818608E-02  0.1151585E+00
         21   -1    0    0  501  502  0.00000000000E+00  0.00000000000E+00  0.18481054061E+03  0.18481054061E+03  0.00000000000E+00 0. -1.
         21   -1    0    0  502  503 -0.00000000000E+00 -0.00000000000E+00 -0.26592874597E+03  0.26592874597E+03  0.00000000000E+00 0. -1.
         -6    2    1    2    0  503  0.27605185662E+02 -0.93546374181E+02 -0.14262284467E+03  0.24337198664E+03  0.17139334194E+03 0.  0.
        -24    2    3    3    0    0  0.41519032110E+02 -0.38341802085E+02 -0.15646335787E+03  0.18459452745E+03  0.80002708672E+02 0.  0.
          6    2    1    2  501    0 -0.27605185662E+02  0.93546374181E+02  0.61504639317E+02  0.20736729993E+03  0.17235256316E+03 0.  0.
         24    2    5    5    0    0  0.38944556428E+02  0.14228745276E+02  0.35734749774E+02  0.10056687093E+03  0.84365795917E+02 0.  0.
          5    1    5    5  501    0 -0.66549742091E+02  0.79317628906E+02  0.25769889543E+02  0.10680042900E+03  0.47000000000E+01 0. -1.
        -13    1    6    6    0    0  0.32410339380E+02  0.46823246730E+02  0.84686674297E+01  0.57572257738E+02  0.00000000000E+00 0.  1.
         14    1    6    6    0    0  0.65342170482E+01 -0.32594501454E+02  0.27266082345E+02  0.42994613196E+02  0.00000000000E+00 0. -1.
         -5    1    3    3    0  503 -0.13913846448E+02 -0.55204572097E+02  0.13840513194E+02  0.58777459190E+02  0.47000000000E+01 0.  1.
         11    1    4    4    0    0  0.61306243332E+02 -0.36712884054E+02 -0.88265175052E+02  0.11356510227E+03  0.00000000000E+00 0. -1.
        -12    1    4    4    0    0 -0.19787211221E+02 -0.16289180307E+01 -0.68198182815E+02  0.71029425178E+02  0.00000000000E+00 0.  1.
</event>
<event>
12    1  0.8684423E-002  0.2675268E+03  0.7818608E-02  0.1103180E+00
         21   -1    0    0  503  502  0.00000000000E+00  0.00000000000E+00  0.46539506956E+02  0.46539506956E+02  0.00000000000E+00 0.  1.
         21   -1    0    0  501  503 -0.00000000000E+00 -0.00000000000E+00 -0.15707791210E+04  0.15707791210E+04  0.00000000000E+00 0.  1.
          6    2    1    2  501    0  0.17678210217E+03 -0.95140397965E+02 -0.61095734957E+03  0.66565951901E+03  0.17184325787E+03 0.  0.
         24    2    3    3    0    0  0.12835717117E+02 -0.34399866657E+02 -0.17111760277E+03  0.19232145569E+03  0.79738333827E+02 0.  0.
         -6    2    1    2    0  502 -0.17678210217E+03  0.95140397965E+02 -0.91328226452E+03  0.95165910899E+03  0.17682465348E+03 0.  0.
        -24    2    5    5    0    0 -0.13384289556E+03  0.12343147316E+03 -0.80974818741E+03  0.83596314743E+03  0.99965031830E+02 0.  0.
          5    1    3    3  501    0  0.16394638505E+03 -0.60740531308E+02 -0.43983974680E+03  0.47333806331E+03  0.47000000000E+01 0. -1.
        -13    1    4    4    0    0  0.40763787665E+02 -0.16027390022E+02 -0.13984746092E+03  0.14654649754E+03  0.00000000000E+00 0.  1.
         14    1    4    4    0    0 -0.27928070548E+02 -0.18372476636E+02 -0.31270141848E+02  0.45774958148E+02  0.00000000000E+00 0. -1.
         -5    1    5    5    0  502 -0.42939206614E+02 -0.28291075192E+02 -0.10353407711E+03  0.11569596156E+03  0.47000000000E+01 0.  1.
         13    1    6    6    0    0 -0.49027996589E+02  0.66822801051E+02 -0.56156504363E+03  0.56764806828E+03  0.00000000000E+00 0. -1.
        -14    1    6    6    0    0 -0.84814898967E+02  0.56608672106E+02 -0.24818314378E+03  0.26831507915E+03  0.00000000000E+00 0.  1.
</event>
<event>
12    1  0.8684423E-002  0.1755446E+03  0.7818608E-02  0.1172584E+00
         21   -1    0    0  503  502  0.00000000000E+00  0.00000000000E+00  0.55418419265E+02  0.55418419265E+02  0.00000000000E+00 0.  1.
         21   -1    0    0  501  503 -0.00000000000E+00 -0.00000000000E+00 -0.59550046960E+03  0.59550046960E+03  0.00000000000E+00 0.  1.
          6    2    1    2  501    0 -0.91636439524E+01 -0.80325443879E+01 -0.36009619995E+03  0.40060600523E+03  0.17512111258E+03 0.  0.
         24    2    3    3    0    0 -0.42509811347E+02 -0.61594460808E+02 -0.25782891441E+03  0.28034988912E+03  0.80742489192E+02 0.  0.
         -6    2    1    2    0  502  0.91636439524E+01  0.80325443879E+01 -0.17998585039E+03  0.25031288364E+03  0.17353137824E+03 0.  0.
        -24    2    5    5    0    0 -0.58397836241E+02 -0.12561270135E+02 -0.75250379013E+02  0.12389979979E+03  0.78233292542E+02 0.  0.
          5    1    3    3  501    0  0.33346167395E+02  0.53561916420E+02 -0.10226728553E+03  0.12025611611E+03  0.47000000000E+01 0. -1.
        -13    1    4    4    0    0  0.66201014622E+00 -0.28401753528E+02 -0.19562245059E+03  0.19767458369E+03  0.00000000000E+00 0.  1.
         14    1    4    4    0    0 -0.43171821493E+02 -0.33192707280E+02 -0.62206463823E+02  0.82675305436E+02  0.00000000000E+00 0. -1.
         -5    1    5    5    0  502  0.67561480194E+02  0.20593814523E+02 -0.10473547138E+03  0.12641308385E+03  0.47000000000E+01 0.  1.
         13    1    6    6    0    0 -0.25769842683E+02  0.69382467525E+01 -0.81157483797E+02  0.85432787829E+02  0.00000000000E+00 0. -1.
        -14    1    6    6    0    0 -0.32627993558E+02 -0.19499516888E+02  0.59071047842E+01  0.38467011964E+02  0.00000000000E+00 0.  1.
</event>
<event>
12    1  0.8684423E-002  0.1797032E+03  0.7818608E-02  0.1168400E+00
         21   -1    0    0  501  502  0.00000000000E+00  0.00000000000E+00  0.20827829470E+03  0.20827829470E+03  0.00000000000E+00 0.  1.
         21   -1    0    0  502  503 -0.00000000000E+00 -0.00000000000E+00 -0.17500738456E+03  0.17500738456E+03  0.00000000000E+00 0.  1.
         -6    2    1    2    0  503  0.31229183538E+02 -0.41159469471E+02 -0.49888110270E+02  0.18527389291E+03  0.17078708386E+03 0.  0.
        -24    2    3    3    0    0  0.77229221348E+02 -0.53433381021E+02 -0.60185448553E+02  0.13633742839E+03  0.78397240551E+02 0.  0.
          6    2    1    2  501    0 -0.31229183538E+02  0.41159469471E+02  0.83159020414E+02  0.19801178636E+03  0.17211589418E+03 0.  0.
         24    2    5    5    0    0 -0.21391335043E+02  0.59683454167E+02  0.11895075559E+03  0.15626182134E+03  0.79049165938E+02 0.  0.
          5    1    5    5  501    0 -0.98378484945E+01 -0.18523984696E+02 -0.35791735178E+02  0.41749965019E+02  0.47000000000E+01 0. -1.
        -13    1    6    6    0    0  0.27792506875E+02  0.61672596869E+01  0.37763631037E+02  0.47292180744E+02  0.00000000000E+00 0.  1.
         14    1    6    6    0    0 -0.49183841918E+02  0.53516194480E+02  0.81187124555E+02  0.10896964059E+03  0.00000000000E+00 0. -1.
         -5    1    3    3    0  503 -0.46000037810E+02  0.12273911550E+02  0.10297338282E+02  0.48936464512E+02  0.47000000000E+01 0.  1.
         11    1    4    4    0    0  0.66262127728E+02 -0.32884997469E+02 -0.23755915548E+01  0.74011729238E+02  0.00000000000E+00 0. -1.
        -12    1    4    4    0    0  0.10967093620E+02 -0.20548383553E+02 -0.57809856998E+02  0.62325699155E+02  0.00000000000E+00 0.  1.
</event>
<event>
12    1  0.8684423E-002  0.2352349E+03  0.7818608E-02  0.1123094E+00
         21   -1    0    0  501  502  0.00000000000E+00  0.00000000000E+00  0.28351189768E+03  0.28351189768E+03  0.00000000000E+00 0.  1.
         21   -1    0    0  502  503 -0.00000000000E+00 -0.00000000000E+00 -0.43422083598E+03  0.43422083598E+03  0.00000000000E+00 0. -1.
         -6    2    1    2    0  503 -0.88373542632E+02  0.13306819709E+03 -0.34181354893E+03  0.41465448447E+03  0.17200235797E+03 0.  0.
        -24    2    3    3    0    0  0.15646458436E+02  0.44147661016E+02 -0.19723535116E+03  0.21552646628E+03  0.73185014084E+02 0.  0.
          6    2    1    2  501    0  0.88373542632E+02 -0.13306819709E+03  0.19110461062E+03  0.30307824919E+03  0.17268012281E+03 0.  0.
         24    2    5    5    0    0  0.84094902198E+02 -0.98865335968E+02  0.21436620762E+03  0.26122930215E+03  0.73766998738E+02 0.  0.
          5    1    5    5  501    0  0.42786404340E+01 -0.34202861125E+02 -0.23261596995E+02  0.41848947034E+02  0.47000000000E+01 0. -1.
        -13    1    6    6    0    0  0.48948282155E+02 -0.33105569653E+02  0.39359609884E+02  0.71000647590E+02  0.00000000000E+00 0.  1.
         14    1    6    6    0    0  0.35146620043E+02 -0.65759766315E+02  0.17500659773E+03  0.19022865456E+03  0.00000000000E+00 0. -1.
         -5    1    3    3    0  503 -0.10402000107E+03  0.88920536076E+02 -0.14457819777E+03  0.19912801819E+03  0.47000000000E+01 0.  1.
         11    1    4    4    0    0  0.42331668744E+02  0.33177516095E+02 -0.93624526469E+02  0.10797346762E+03  0.00000000000E+00 0. -1.
        -12    1    4    4    0    0 -0.26685210308E+02  0.10970144921E+02 -0.10361082469E+03  0.10755299866E+03  0.00000000000E+00 0.  1.
</event>
<event>
12    1  0.8684423E-002  0.2083016E+03  0.7818608E-02  0.1142997E+00
         21   -1    0    0  501  502  0.00000000000E+00  0.00000000000E+00  0.12680936299E+04  0.12680936299E+04  0.00000000000E+00 0. -1.
         21   -1    0    0  502  503 -0.00000000000E+00 -0.00000000000E+00 -0.37311945944E+02  0.37311945944E+02  0.00000000000E+00 0. -1.
         -6    2    1    2    0  503  0.11678203364E+03 -0.13382447675E+02  0.42596977604E+03  0.47417276410E+03  0.17196635378E+03 0.  0.
        -24    2    3    3    0    0  0.42925696996E+01 -0.40166489518E+02  0.21448737347E+03  0.23309567894E+03  0.81835133823E+02 0.  0.
          6    2    1    2  501    0 -0.11678203364E+03  0.13382447675E+02  0.80481190789E+03  0.83123281171E+03  0.17148949500E+03 0.  0.
         24    2    5    5    0    0 -0.14520797725E+02 -0.39675795934E+02  0.40796499761E+03  0.41797490461E+03  0.80514341926E+02 0.  0.
          5    1    5    5  501    0 -0.10226123592E+03  0.53058243608E+02  0.39684691028E+03  0.41325790711E+03  0.47000000000E+01 0. -1.
        -13    1    6    6    0    0  0.16122679017E+02  0.15933027790E+02  0.17685909152E+03  0.17830574978E+03  0.00000000000E+00 0.  1.
         14    1    6    6    0    0 -0.30643476742E+02 -0.55608823723E+02  0.23110590609E+03  0.23966915482E+03  0.00000000000E+00 0. -1.
         -5    1    3    3    0  503  0.11248946394E+03  0.26784041843E+02  0.21148240257E+03  0.24107708517E+03  0.47000000000E+01 0.  1.
         13    1    4    4    0    0  0.29085970432E+02 -0.52834649512E+02  0.11591550928E+03  0.13066713113E+03  0.00000000000E+00 0. -1.
        -14    1    4    4    0    0 -0.24793400733E+02  0.12668159994E+02  0.98571864185E+02  0.10242854781E+03  0.00000000000E+00 0.  1.
</event>
<event>
12    1  0.8684423E-002  0.1824916E+03  0.7818608E-02  0.1165841E+00
         21   -1    0    0  501  502  0.00000000000E+00  0.00000000000E+00  0.22891837115E+03  0.22891837115E+03  0.00000000000E+00 0. -1.
         21   -1    0    0  502  503 -0.00000000000E+00 -0.00000000000E+00 -0.31220887536E+03  0.31220887536E+03  0.00000000000E+00 0. -1.
         -6    2    1    2    0  503  0.23534907553E+02  0.57050285700E+02 -0.24030188638E+03  0.30174189648E+03  0.17173976978E+03 0.  0.
        -24    2    3    3    0    0  0.60826256813E+02  0.29341354896E+01 -0.19862361646E+03  0.22377799056E+03  0.83167333582E+02 0.  0.
          6    2    1    2  501    0 -0.23534907553E+02 -0.57050285700E+02  0.15701138217E+03  0.23938535003E+03  0.16983564027E+03 0.  0.
         24    2    5    5    0    0  0.26431766511E+02 -0.85989588534E+02  0.12084683880E+03  0.17109101671E+03  0.81088408149E+02 0.  0.
          5    1    5    5  501    0 -0.49966674063E+02  0.28939302834E+02  0.36164543378E+02  0.68294333317E+02  0.47000000000E+01 0. -1.
        -13    1    6    6    0    0 -0.20685070786E+02 -0.44860308811E+02  0.21902921996E+02  0.54037555940E+02  0.00000000000E+00 0.  1.
         14    1    6    6    0    0  0.47116837297E+02 -0.41129279724E+02  0.98943916800E+02  0.11705346077E+03  0.00000000000E+00 0. -1.
         -5    1    3    3    0  503 -0.37291349260E+02  0.54116150211E+02 -0.41678269920E+02  0.77963905923E+02  0.47000000000E+01 0.  1.
         13    1    4    4    0    0  0.12868857927E+02  0.20411324382E+02 -0.15430397406E+03  0.15617921142E+03  0.00000000000E+00 0. -1.
        -14    1    4    4    0    0  0.47957398886E+02 -0.17477188892E+02 -0.44319642394E+02  0.67598779141E+02  0.00000000000E+00 0.  1.
</event>
<event>
12    1  0.8684423E-002  0.1813916E+03  0.7818608E-02  0.1167821E+00
         21   -1    0    0  501  502  0.00000000000E+00  0.00000000000E+00  0.94913100051E+02  0.94913100051E+02  0.00000000000E+00 0. -1.
         21   -1    0    0  502  503 -0.00000000000E+00 -0.00000000000E+00 -0.52404543260E+03  0.52404543260E+03  0.00000000000E+00 0. -1.
         -6    2    1    2    0  503  0.34379261970E+02  0.86397455603E+01 -0.31385827388E+02  0.18408688262E+03  0.17789415768E+03 0.  0.
        -24    2    3    3    0    0  0.65839059549E+02  0.32130981224E+02  0.17384620770E+02  0.12129991239E+03  0.95101324863E+02 0.  0.
          6    2    1    2  501    0 -0.34379261970E+02 -0.86397455603E+01 -0.39774650516E+03  0.43487165003E+03  0.17220479313E+03 0.  0.
         24    2    5    5    0    0 -0.24423924644E+02 -0.44179656471E+02 -0.38357069196E+03  0.39505660653E+03  0.79967971676E+02 0.  0.
          5    1    5    5  501    0 -0.99553373255E+01  0.35539910911E+02 -0.14175813201E+02  0.39815043498E+02  0.47000000000E+01 0. -1.
        -13    1    6    6    0    0  0.23355732109E+02 -0.37216097235E+02 -0.22687213900E+03  0.23108763612E+03  0.00000000000E+00 0.  1.
         14    1    6    6    0    0 -0.47779656754E+02 -0.69635592365E+01 -0.15669855296E+03  0.16396897041E+03  0.00000000000E+00 0. -1.
         -5    1    3    3    0  503 -0.31459797579E+02 -0.23491235663E+02 -0.48770448158E+02  0.62786970227E+02  0.47000000000E+01 0.  1.
         13    1    4    4    0    0 -0.78587803815E+01  0.15972019154E+02  0.38954224015E+02  0.42828698247E+02  0.00000000000E+00 0. -1.
        -14    1    4    4    0    0  0.73697839930E+02  0.16158962070E+02 -0.21569603245E+02  0.78471214147E+02  0.00000000000E+00 0.  1.
</event>
<event>
12    1  0.8684423E-002  0.1909722E+03  0.7818608E-02  0.1158206E+00
         21   -1    0    0  501  502  0.00000000000E+00  0.00000000000E+00  0.14383560002E+03  0.14383560002E+03  0.00000000000E+00 0.  1.
         21   -1    0    0  502  503 -0.00000000000E+00 -0.00000000000E+00 -0.64447091333E+03  0.64447091333E+03  0.00000000000E+00 0.  1.
         -6    2    1    2    0  503 -0.74812027630E+02  0.14990490665E+02 -0.55800958634E+03  0.58890191313E+03  0.17207327087E+03 0.  0.
        -24    2    3    3    0    0 -0.10507415078E+03 -0.10050922752E+01 -0.52412887438E+03  0.54051134158E+03  0.79999037839E+02 0.  0.
          6    2    1    2  501    0  0.74812027630E+02 -0.14990490665E+02  0.57374273036E+02  0.19940460022E+03  0.17506808131E+03 0.  0.
         24    2    5    5    0    0  0.11153275700E+03  0.82321004530E+01  0.13262900588E+02  0.13731109103E+03  0.78556399008E+02 0.  0.
          5    1    5    5  501    0 -0.36720729372E+02 -0.23222591118E+02  0.44111372448E+02  0.62093509186E+02  0.47000000000E+01 0. -1.
        -11    1    6    6    0    0  0.27160073909E+02 -0.24991964701E+02  0.26820573604E+02  0.45624676249E+02  0.00000000000E+00 0.  1.
         12    1    6    6    0    0  0.84372683093E+02  0.33224065154E+02 -0.13557673016E+02  0.91686414780E+02  0.00000000000E+00 0. -1.
         -5    1    3    3    0  503  0.30262123148E+02  0.15995582941E+02 -0.33880711967E+02  0.48390571545E+02  0.47000000000E+01 0.  1.
         11    1    4    4    0    0 -0.30535994908E+02 -0.36352539104E+02 -0.23991288683E+03  0.24456522106E+03  0.00000000000E+00 0. -1.
        -12    1    4    4    0    0 -0.74538155870E+02  0.35347446829E+02 -0.28421598754E+03  0.29594612052E+03  0.00000000000E+00 0.  1.
</event>
<event>
12    1  0.8684423E-002  0.2421604E+03  0.7818608E-02  0.1118401E+00
         21   -1    0    0  501  502  0.00000000000E+00  0.00000000000E+00  0.59663840270E+03  0.59663840270E+03  0.00000000000E+00 0. -1.
         21   -1    0    0  502  503 -0.00000000000E+00 -0.00000000000E+00 -0.12994916649E+03  0.12994916649E+03  0.00000000000E+00 0. -1.
         -6    2    1    2    0  503 -0.15039556223E+03 -0.78192555319E+02  0.53660609321E+02  0.24780339445E+03  0.17260985043E+03 0.  0.
        -24    2    3    3    0    0 -0.51894464278E+02 -0.70612814858E+02  0.82763851494E+02  0.14470631657E+03  0.80067833096E+02 0.  0.
          6    2    1    2  501    0  0.15039556223E+03  0.78192555319E+02  0.41302862688E+03  0.47878417474E+03  0.17294143086E+03 0.  0.
         24    2    5    5    0    0  0.78707761128E+02  0.91227979586E+02  0.16374050842E+03  0.21902328639E+03  0.81503312566E+02 0.  0.
          5    1    5    5  501    0  0.71687801101E+02 -0.13035424267E+02  0.24928811846E+03  0.25976088835E+03  0.47000000000E+01 0. -1.
        -11    1    6    6    0    0  0.64564123130E+01 -0.15324511619E+02  0.16258429047E+02  0.23256449243E+02  0.00000000000E+00 0.  1.
         12    1    6    6    0    0  0.72251348815E+02  0.10655249120E+03  0.14748207938E+03  0.19576683714E+03  0.00000000000E+00 0. -1.
         -5    1    3    3    0  503 -0.98501097952E+02 -0.75797404612E+01 -0.29103242173E+02  0.10309707788E+03  0.47000000000E+01 0.  1.
         11    1    4    4    0    0  0.14689915276E-01 -0.23985295608E+02 -0.12163626536E+02  0.26893278560E+02  0.00000000000E+00 0. -1.
        -12    1    4    4    0    0 -0.51909154193E+02 -0.46627519250E+02  0.94927478030E+02  0.11781303801E+03  0.00000000000E+00 0.  1.
</event>
<event>
12    1  0.8684423E-002  0.2614854E+03  0.7818608E-02  0.1106487E+00
         21   -1    0    0  503  502  0.00000000000E+00  0.00000000000E+00  0.53007806971E+03  0.53007806971E+03  0.00000000000E+00 0. -1.
         21   -1    0    0  501  503 -0.00000000000E+00 -0.00000000000E+00 -0.13137275834E+03  0.13137275834E+03  0.00000000000E+00 0.  1.
          6    2    1    2  501    0  0.11374196265E+03 -0.16041516615E+03  0.24998368555E+03  0.36063071318E+03  0.16997767103E+03 0.  0.
         24    2    3    3    0    0  0.13423704250E+01 -0.80643777199E+02  0.16248951691E+03  0.19730752936E+03  0.77602817451E+02 0.  0.
         -6    2    1    2    0  502 -0.11374196265E+03  0.16041516615E+03  0.14872162582E+03  0.30082011486E+03  0.17234952835E+03 0.  0.
        -24    2    5    5    0    0 -0.48148308836E+02  0.77882160138E+01  0.35947517773E+02  0.99977881323E+02  0.79526327511E+02 0.  0.
          5    1    3    3  501    0  0.11239959223E+03 -0.79771388948E+02  0.87494168642E+02  0.16332318382E+03  0.47000000000E+01 0. -1.
        -13    1    4    4    0    0 -0.19987699153E+02 -0.35050024716E+00  0.73040098715E+01  0.21283315720E+02  0.00000000000E+00 0.  1.
         14    1    4    4    0    0  0.21330069578E+02 -0.80293276952E+02  0.15518550704E+03  0.17602421364E+03  0.00000000000E+00 0. -1.
         -5    1    5    5    0  502 -0.65593653816E+02  0.15262695013E+03  0.11277410805E+03  0.20084223354E+03  0.47000000000E+01 0.  1.
         13    1    6    6    0    0 -0.53509030107E+02 -0.15325095755E+02  0.47879112150E+02  0.73419917210E+02  0.00000000000E+00 0. -1.
        -14    1    6    6    0    0  0.53607212704E+01  0.23113311768E+02 -0.11931594377E+02  0.26557964113E+02  0.00000000000E+00 0.  1.
</event>
<event>
12    1  0.8684423E-002  0.2314045E+03  0.7818608E-02  0.1126126E+00
         21   -1    0    0  503  502  0.00000000000E+00  0.00000000000E+00  0.10603626918E+03  0.10603626918E+03  0.00000000000E+00 0.  1.
         21   -1    0    0  501  503 -0.00000000000E+00 -0.00000000000E+00 -0.60669215274E+03  0.60669215274E+03  0.00000000000E+00 0.  1.
          6    2    1    2  501    0 -0.24609026687E+01 -0.15343691858E+03 -0.40155316771E+03  0.46345766173E+03  0.17320252219E+03 0.  0.
         24    2    3    3    0    0 -0.42945073703E+02 -0.86770428379E+02 -0.16509991338E+03  0.21442830502E+03  0.96685728005E+02 0.  0.
         -6    2    1    2    0  502  0.24609026687E+01  0.15343691858E+03 -0.99102715851E+02  0.24927076019E+03  0.16960430293E+03 0.  0.
        -24    2    5    5    0    0  0.19173050293E+02  0.12724685085E+03 -0.13428232619E+03  0.20210180314E+03  0.79082417741E+02 0.  0.
          5    1    3    3  501    0  0.40484171034E+02 -0.66666490197E+02 -0.23645325433E+03  0.24902935671E+03  0.47000000000E+01 0. -1.
        -13    1    4    4    0    0 -0.20389610737E+02 -0.97238227745E+02 -0.16105612852E+03  0.18923552969E+03  0.00000000000E+00 0.  1.
         14    1    4    4    0    0 -0.22555462966E+02  0.10467799366E+02 -0.40437848596E+01  0.25192775337E+02  0.00000000000E+00 0. -1.
         -5    1    5    5    0  502 -0.16712147625E+02  0.26190067728E+02  0.35179610338E+02  0.47168957052E+02  0.47000000000E+01 0.  1.
         11    1    6    6    0    0 -0.39339397429E+01 -0.77898351400E+01  0.19011084755E+01  0.89314963385E+01  0.00000000000E+00 0. -1.
        -12    1    6    6    0    0  0.23106990036E+02  0.13503668599E+03 -0.13618343467E+03  0.19317030680E+03  0.00000000000E+00 0.  1.
</event>
<event>
12    1  0.8684423E-002  0.2513393E+03  0.7818608E-02  0.1112823E+00
         21   -1    0    0  501  502  0.00000000000E+00  0.00000000000E+00  0.14056521644E+04  0.14056521644E+04  0.00000000000E+00 0. -1.
         21   -1    0    0  502  503 -0.00000000000E+00 -0.00000000000E+00 -0.46926832813E+02  0.46926832813E+02  0.00000000000E+00 0. -1.
         -6    2    1    2    0  503  0.48899455119E+02 -0.17641990094E+03  0.84047854567E+03  0.87660052579E+03  0.16884655143E+03 0.  0.
        -24    2    3    3    0    0 -0.56101167917E+01 -0.17633077457E+03  0.68153435248E+03  0.70850338744E+03  0.79774437842E+02 0.  0.
          6    2    1    2  501    0 -0.48899455119E+02  0.17641990094E+03  0.51824678594E+03  0.57597847144E+03  0.17221013405E+03 0.  0.
         24    2    5    5    0    0 -0.51748265472E+02  0.22579687792E+02  0.18765456684E+03  0.21130295509E+03  0.79037820639E+02 0.  0.
          5    1    5    5  501    0  0.28488103534E+01  0.15384021315E+03  0.33059221910E+03  0.36467551636E+03  0.47000000000E+01 0. -1.
        -11    1    6    6    0    0 -0.60138177294E+01  0.22133168014E+02  0.15088631693E+03  0.15261953927E+03  0.00000000000E+00 0.  1.
         12    1    6    6    0    0 -0.45734447743E+02  0.44651977800E+00  0.36768249909E+02  0.58683415814E+02  0.00000000000E+00 0. -1.
         -5    1    3    3    0  503  0.54509571911E+02 -0.89126367936E-01  0.15894419318E+03  0.16809713835E+03  0.47000000000E+01 0.  1.
         11    1    4    4    0    0 -0.17257718913E+01 -0.55252218233E+02  0.37240164480E+03  0.37648209912E+03  0.00000000000E+00 0. -1.
        -12    1    4    4    0    0 -0.38843449004E+01 -0.12107855634E+03  0.30913270769E+03  0.33202128833E+03  0.00000000000E+00 0.  1.
</event>
<event>
12    1  0.8684423E-002  0.1788357E+03  0.7818608E-02  0.1169255E+00
         21   -1    0    0  503  502  0.00000000000E+00  0.00000000000E+00  0.31895354858E+03  0.31895354858E+03  0.00000000000E+00 0.  1.
         21   -1    0    0  501  503 -0.00000000000E+00 -0.00000000000E+00 -0.10552041042E+03  0.10552041042E+03  0.00000000000E+00 0.  1.
          6    2    1    2  501    0  0.47134878986E+02 -0.14029888236E+02  0.15687568137E+03  0.23690809757E+03  0.17057823046E+03 0.  0.
         24    2    3    3    0    0  0.49170788212E+02  0.68496133066E+01  0.18149239157E+03  0.20422521317E+03  0.79396258616E+02 0.  0.
         -6    2    1    2    0  502 -0.47134878986E+02  0.14029888236E+02  0.56557456792E+02  0.18756586144E+03  0.17194089647E+03 0.  0.
        -24    2    5    5    0    0 -0.54892296264E+02 -0.28621283960E+02  0.87667369208E+02  0.13400079201E+03  0.80239033840E+02 0.  0.
          5    1    3    3  501    0 -0.20359092255E+01 -0.20879501542E+02 -0.24616710202E+02  0.32682884393E+02  0.47000000000E+01 0. -1.
        -13    1    4    4    0    0  0.14904947590E+02 -0.30115536157E+02  0.12051881315E+03  0.12511549586E+03  0.00000000000E+00 0.  1.
         14    1    4    4    0    0  0.34265840622E+02  0.36965149464E+02  0.60973578418E+02  0.79109717314E+02  0.00000000000E+00 0. -1.
         -5    1    5    5    0  502  0.77574172779E+01  0.42651172196E+02 -0.31109912416E+02  0.53565069430E+02  0.47000000000E+01 0.  1.
         13    1    6    6    0    0 -0.29892175425E+02  0.18745264675E+01  0.89646699763E+02  0.94517653270E+02  0.00000000000E+00 0. -1.
        -14    1    6    6    0    0 -0.25000120839E+02 -0.30495810428E+02 -0.19793305551E+01  0.39483138744E+02  0.00000000000E+00 0.  1.
</event>
<event>
12    1  0.8684423E-002  0.2023767E+03  0.7818608E-02  0.1147904E+00
         21   -1    0    0  501  502  0.00000000000E+00  0.00000000000E+00  0.12680878800E+04  0.12680878800E+04  0.00000000000E+00 0.  1.
         21   -1    0    0  502  503 -0.00000000000E+00 -0.00000000000E+00 -0.33037261440E+02  0.33037261440E+02  0.00000000000E+00 0.  1.
         -6    2    1    2    0  503  0.10542203684E+03  0.60637922578E+01  0.72127147247E+03  0.74892469329E+03  0.17177043924E+03 0.  0.
        -24    2    3    3    0    0  0.63365986992E+00  0.23386689724E+02  0.20076329613E+03  0.21767001015E+03  0.80789810401E+02 0.  0.
          6    2    1    2  501    0 -0.10542203684E+03 -0.60637922578E+01  0.51377914608E+03  0.55220044814E+03  0.17264341444E+03 0.  0.
         24    2    5    5    0    0 -0.35561878894E+02  0.31334906180E+02  0.12457104769E+03  0.15497993234E+03  0.79084195206E+02 0.  0.
          5    1    5    5  501    0 -0.69860157948E+02 -0.37398698438E+02  0.38920809839E+03  0.39722051579E+03  0.47000000000E+01 0. -1.
        -13    1    6    6    0    0  0.40001699369E+01 -0.23231634367E+02  0.21986887135E+02  0.32235592143E+02  0.00000000000E+00 0.  1.
         14    1    6    6    0    0 -0.39562048831E+02  0.54566540548E+02  0.10258416055E+03  0.12274434020E+03  0.00000000000E+00 0. -1.
         -5    1    3    3    0  503  0.10478837697E+03 -0.17322897466E+02  0.52050817634E+03  0.53125468314E+03  0.47000000000E+01 0.  1.
         13    1    4    4    0    0  0.32755514999E+02  0.33988298829E+02  0.86951440211E+02  0.98937764150E+02  0.00000000000E+00 0. -1.
        -14    1    4    4    0    0 -0.32121855129E+02 -0.10601609105E+02  0.11381185592E+03  0.11873224600E+03  0.00000000000E+00 0.  1.
</event>
<event>
12    1  0.8684423E-002  0.1972489E+03  0.7818608E-02  0.1152342E+00
         21   -1    0    0  503  502  0.00000000000E+00  0.00000000000E+00  0.33249691152E+03  0.33249691152E+03  0.00000000000E+00 0. -1.
         21   -1    0    0  501  503 -0.00000000000E+00 -0.00000000000E+00 -0.12264925107E+03  0.12264925107E+03  0.00000000000E+00 0. -1.
          6    2    1    2  501    0  0.80425510380E+02 -0.52126176065E+02  0.15701999682E+03  0.25211586412E+03  0.17239990890E+03 0.  0.
         24    2    3    3    0    0  0.30505505899E+02  0.32211360312E+02  0.49090898703E+02  0.10625426153E+03  0.83137802083E+02 0.  0.
         -6    2    1    2    0  502 -0.80425510380E+02  0.52126176065E+02  0.52827663634E+02  0.20303029847E+03  0.17101210221E+03 0.  0.
        -24    2    5    5    0    0 -0.33684113883E+02 -0.22704057113E+02  0.70483536799E+02  0.11292956706E+03  0.78326652038E+02 0.  0.
          5    1    3    3  501    0  0.49920004481E+02 -0.84337536377E+02  0.10792909811E+03  0.14586160259E+03  0.47000000000E+01 0. -1.
        -11    1    4    4    0    0 -0.23898040201E+02 -0.48361756771E+01  0.40651311759E+00  0.24385860114E+02  0.00000000000E+00 0.  1.
         12    1    4    4    0    0  0.54403546099E+02  0.37047535989E+02  0.48684385585E+02  0.81868401419E+02  0.00000000000E+00 0. -1.
         -5    1    5    5    0  502 -0.46741396497E+02  0.74830233177E+02 -0.17655873165E+02  0.90100731413E+02  0.47000000000E+01 0.  1.
         11    1    6    6    0    0 -0.58730900795E+02 -0.15533296933E+02  0.58185168887E+02  0.84119652283E+02  0.00000000000E+00 0. -1.
        -12    1    6    6    0    0  0.25046786913E+02 -0.71707601792E+01  0.12298367912E+02  0.28809914778E+02  0.00000000000E+00 0.  1.
</event>
<event>
12    1  0.8684423E-002  0.2049688E+03  0.7818608E-02  0.1145868E+00
         21   -1    0    0  503  502  0.00000000000E+00  0.00000000000E+00  0.24916827436E+03  0.24916827436E+03  0.00000000000E+00 0.  1.
         21   -1    0    0  501  503 -0.00000000000E+00 -0.00000000000E+00 -0.16765511887E+03  0.16765511887E+03  0.00000000000E+00 0.  1.
          6    2    1    2  501    0  0.10796917115E+03  0.21666430841E+02  0.44813631355E+02  0.20859502622E+03  0.17139675395E+03 0.  0.
         24    2    3    3    0    0  0.79869630341E+02  0.75809272395E+02  0.57233263789E+02  0.14616611661E+03  0.77218414446E+02 0.  0.
         -6    2    1    2    0  502 -0.10796917115E+03 -0.21666430841E+02  0.36699524139E+02  0.20822836701E+03  0.17287400502E+03 0.  0.
        -24    2    5    5    0    0  0.76109894699E+01  0.81700296196E+01  0.99034148139E+01  0.85798348729E+02  0.84490250769E+02 0.  0.
          5    1    3    3  501    0  0.28099540808E+02 -0.54142841554E+02 -0.12419632434E+02  0.62428909609E+02  0.47000000000E+01 0. -1.
        -11    1    4    4    0    0  0.49153285248E+02 -0.26988519788E+01  0.29641308201E+02  0.57462478232E+02  0.00000000000E+00 0.  1.
         12    1    4    4    0    0  0.30716345092E+02  0.78508124374E+02  0.27591955588E+02  0.88703638379E+02  0.00000000000E+00 0. -1.
         -5    1    5    5    0  502 -0.11558016062E+03 -0.29836460461E+02  0.26796109325E+02  0.12243001828E+03  0.47000000000E+01 0.  1.
         11    1    6    6    0    0 -0.15609305251E+02  0.41488212140E+02  0.16583083980E+01  0.44358450646E+02  0.00000000000E+00 0. -1.
        -12    1    6    6    0    0  0.23220294721E+02 -0.33318182520E+02  0.82451064159E+01  0.41439898083E+02  0.00000000000E+00 0.  1.
</event>
<event>
12    1  0.8684423E-002  0.2619625E+03  0.7818608E-02  0.1106024E+00
         21   -1    0    0  501  502  0.00000000000E+00  0.00000000000E+00  0.19781344659E+03  0.19781344659E+03  0.00000000000E+00 0. -1.
         21   -1    0    0  502  503 -0.00000000000E+00 -0.00000000000E+00 -0.34950187978E+03  0.34950187978E+03  0.00000000000E+00 0. -1.
         -6    2    1    2    0  503 -0.19709815619E+03  0.11265198426E+01 -0.10142037541E+03  0.28057345531E+03  0.17200703199E+03 0.  0.
        -24    2    3    3    0    0 -0.14983912603E+03  0.21950925983E+01 -0.13910874484E+03  0.21993468083E+03  0.81015053057E+02 0.  0.
          6    2    1    2  501    0  0.19709815619E+03 -0.11265198426E+01 -0.50268057783E+02  0.26674187106E+03  0.17255548650E+03 0.  0.
         24    2    5    5    0    0  0.11543082378E+03  0.19668724182E+02  0.33214231624E+02  0.14802633711E+03  0.84246528144E+02 0.  0.
          5    1    5    5  501    0  0.81667332410E+02 -0.20795244025E+02 -0.83482289407E+02  0.11871553395E+03  0.47000000000E+01 0. -1.
        -11    1    6    6    0    0  0.91078591201E+01 -0.11886557716E+01  0.38468208632E+02  0.39549577439E+02  0.00000000000E+00 0.  1.
         12    1    6    6    0    0  0.10632296466E+03  0.20857379954E+02 -0.52539770077E+01  0.10847675967E+03  0.00000000000E+00 0. -1.
         -5    1    3    3    0  503 -0.47259030166E+02 -0.10685727557E+01  0.37688369427E+02  0.60638774477E+02  0.47000000000E+01 0.  1.
         11    1    4    4    0    0 -0.10026895619E+03 -0.23678525100E+02 -0.12552551086E+03  0.16239208725E+03  0.00000000000E+00 0. -1.
        -12    1    4    4    0    0 -0.49570169839E+02  0.25873617698E+02 -0.13583233984E+02  0.57542593581E+02  0.00000000000E+00 0.  1.
</event>
<event>
12    1  0.8684423E-002  0.1941330E+03  0.7818608E-02  0.1155849E+00
         21   -1    0    0  501  502  0.00000000000E+00  0.00000000000E+00  0.80309808705E+02  0.80309808705E+02  0.00000000000E+00 0. -1.
         21   -1    0    0  502  503 -0.00000000000E+00 -0.00000000000E+00 -0.90590625261E+03  0.90590625261E+03  0.00000000000E+00 0.  1.
         -6    2    1    2    0  503  0.31307584561E+02  0.69725076508E+02 -0.76220180741E+03  0.78653622444E+03  0.17845415656E+03 0.  0.
        -24    2    3    3    0    0  0.32494942227E+02 -0.17879801608E+02 -0.20120834914E+03  0.21872307321E+03  0.77326414735E+02 0.  0.
          6    2    1    2  501    0 -0.31307584561E+02 -0.69725076508E+02 -0.63394636496E+02  0.19967983687E+03  0.17323800441E+03 0.  0.
         24    2    5    5    0    0 -0.84470957257E+02 -0.29924780970E+02 -0.57677867883E+02  0.13285784076E+03  0.79332428879E+02 0.  0.
          5    1    5    5  501    0  0.53163372697E+02 -0.39800295538E+02 -0.57167686126E+01  0.66821996115E+02  0.47000000000E+01 0. -1.
        -11    1    6    6    0    0 -0.28557898357E+02  0.26322876491E+02 -0.29196360592E+02  0.48588834696E+02  0.00000000000E+00 0.  1.
         12    1    6    6    0    0 -0.55913058901E+02 -0.56247657461E+02 -0.28481507291E+02  0.84269006064E+02  0.00000000000E+00 0. -1.
         -5    1    3    3    0  503 -0.11873576665E+01  0.87604878116E+02 -0.56099345826E+03  0.56781315122E+03  0.47000000000E+01 0.  1.
         13    1    4    4    0    0  0.29286006527E+02  0.27054055205E+02 -0.10985905477E+03  0.11687003036E+03  0.00000000000E+00 0. -1.
        -14    1    4    4    0    0  0.32089357003E+01 -0.44933856813E+02 -0.91349294378E+02  0.10185304286E+03  0.00000000000E+00 0.  1.
</event>
<event>
12    1  0.8684423E-002  0.2537987E+03  0.7818608E-02  0.1111016E+00
         21   -1    0    0  501  502  0.00000000000E+00  0.00000000000E+00  0.26417401551E+03  0.26417401551E+03  0.00000000000E+00 0. -1.
         21   -1    0    0  502  503 -0.00000000000E+00 -0.00000000000E+00 -0.27188550870E+03  0.27188550870E+03  0.00000000000E+00 0.  1.
         -6    2    1    2    0  503  0.12334932248E+03 -0.13949241379E+03 -0.90787568607E+02  0.26901006976E+03  0.17161248834E+03 0.  0.
        -24    2    3    3    0    0  0.75915647065E+01 -0.98770394669E+02 -0.67719902778E+02  0.14406068587E+03  0.79713695588E+02 0.  0.
          6    2    1    2  501    0 -0.12334932248E+03  0.13949241379E+03  0.83076075415E+02  0.26704945445E+03  0.17245459678E+03 0.  0.
         24    2    5    5    0    0 -0.14281180151E+03  0.15734192156E+03  0.73295994799E+02  0.23849892041E+03  0.79735445397E+02 0.  0.
          5    1    5    5  501    0  0.19462479024E+02 -0.17849507763E+02  0.97800806159E+01  0.28550534040E+02  0.47000000000E+01 0. -1.
        -13    1    6    6    0    0 -0.22074009008E+02 -0.34711470799E+00  0.26435826317E+02  0.34441766438E+02  0.00000000000E+00 0.  1.
         14    1    6    6    0    0 -0.12073779250E+03  0.15768903627E+03  0.46860168482E+02  0.20405715397E+03  0.00000000000E+00 0. -1.
         -5    1    3    3    0  503  0.11575775777E+03 -0.40722019126E+02 -0.23067665829E+02  0.12494938389E+03  0.47000000000E+01 0.  1.
         11    1    4    4    0    0 -0.18921920169E+02 -0.15286565592E+00 -0.29451204348E+02  0.35006226137E+02  0.00000000000E+00 0. -1.
        -12    1    4    4    0    0  0.26513484876E+02 -0.98617529013E+02 -0.38268698430E+02  0.10905445974E+03  0.00000000000E+00 0.  1.
</event>
<event>
12    1  0.8684423E-002  0.1864491E+03  0.7818608E-02  0.1161918E+00
         21   -1    0    0  503  502  0.00000000000E+00  0.00000000000E+00  0.62612022502E+03  0.62612022502E+03  0.00000000000E+00 0. -1.
         21   -1    0    0  501  503 -0.00000000000E+00 -0.00000000000E+00 -0.29109796635E+03  0.29109796635E+03  0.00000000000E+00 0. -1.
          6    2    1    2  501    0  0.70702673502E+02 -0.37918136715E+01 -0.24537024824E+03  0.30761280909E+03  0.17148129841E+03 0.  0.
         24    2    3    3    0    0 -0.23093021164E+02  0.17087954794E+02 -0.10376220769E+03  0.13641548371E+03  0.83769341799E+02 0.  0.
         -6    2    1    2    0  502 -0.70702673502E+02  0.37918136715E+01  0.58039250691E+03  0.60960538228E+03  0.17248192409E+03 0.  0.
        -24    2    5    5    0    0 -0.10417807256E+03 -0.31904723064E+02  0.38072882366E+03  0.40397824038E+03  0.79831067762E+02 0.  0.
          5    1    3    3  501    0  0.93795694666E+02 -0.20879768465E+02 -0.14160804055E+03  0.17119732538E+03  0.47000000000E+01 0. -1.
        -11    1    4    4    0    0 -0.65317591943E+01 -0.33906630606E+02 -0.34334992116E+02  0.48695124610E+02  0.00000000000E+00 0.  1.
         12    1    4    4    0    0 -0.16561261970E+02  0.50994585400E+02 -0.69427215570E+02  0.87720359096E+02  0.00000000000E+00 0. -1.
         -5    1    5    5    0  502  0.33475399055E+02  0.35696536736E+02  0.19966368325E+03  0.20562714190E+03  0.47000000000E+01 0.  1.
         13    1    6    6    0    0 -0.91082462224E+02 -0.52424688110E+01  0.34808343462E+03  0.35984104249E+03  0.00000000000E+00 0. -1.
        -14    1    6    6    0    0 -0.13095610332E+02 -0.26662254253E+02  0.32645389032E+02  0.44137197882E+02  0.00000000000E+00 0.  1.
</event>
<event>
12    1  0.8684423E-002  0.1875554E+03  0.7818608E-02  0.1160887E+00
         21   -1    0    0  503  502  0.00000000000E+00  0.00000000000E+00  0.12475457511E+03  0.12475457511E+03  0.00000000000E+00 0. -1.
         21   -1    0    0  501  503 -0.00000000000E+00 -0.00000000000E+00 -0.31154327604E+03  0.31154327604E+03  0.00000000000E+00 0. -1.
          6    2    1    2  501    0 -0.58740814346E+02 -0.41407100311E+02 -0.24504965974E+02  0.18827959428E+03  0.17228952678E+03 0.  0.
         24    2    3    3    0    0 -0.26318875835E+02 -0.58201706824E+02  0.44632032684E+02  0.10995172256E+03  0.77570877584E+02 0.  0.
         -6    2    1    2    0  502  0.58740814346E+02  0.41407100311E+02 -0.16228373495E+03  0.24801825688E+03  0.17323975839E+03 0.  0.
        -24    2    5    5    0    0  0.65422763763E+02 -0.35613686318E+02 -0.10751527982E+03  0.15315770818E+03  0.79682341265E+02 0.  0.
          5    1    3    3  501    0 -0.32421938511E+02  0.16794606513E+02 -0.69136998658E+02  0.78327871720E+02  0.47000000000E+01 0. -1.
        -11    1    4    4    0    0  0.13328485043E+02 -0.46072193472E+02 -0.14238351751E+01  0.47982526314E+02  0.00000000000E+00 0.  1.
         12    1    4    4    0    0 -0.39647360877E+02 -0.12129513352E+02  0.46055867859E+02  0.61969196242E+02  0.00000000000E+00 0. -1.
         -5    1    5    5    0  502 -0.66819494174E+01  0.77020786629E+02 -0.54768455134E+02  0.94860548695E+02  0.47000000000E+01 0.  1.
         13    1    6    6    0    0  0.42112873449E+01  0.19752868155E+02 -0.45937711480E+02  0.50181511311E+02  0.00000000000E+00 0. -1.
        -14    1    6    6    0    0  0.61211476418E+02 -0.55366554473E+02 -0.61577568340E+02  0.10297619687E+03  0.00000000000E+00 0.  1.
</event>
<event>
12    1  0.8684423E-002  0.1968345E+03  0.7818608E-02  0.1152792E+00
         21   -1    0    0  503  502  0.00000000000E+00  0.00000000000E+00  0.18830293810E+03  0.18830293810E+03  0.00000000000E+00 0. -1.
         21   -1    0    0  501  503 -0.00000000000E+00 -0.00000000000E+00 -0.50788984328E+03  0.50788984328E+03  0.00000000000E+00 0. -1.
          6    2    1    2  501    0 -0.14505717358E+02 -0.92307398110E+02 -0.42876550984E+03  0.47110664301E+03  0.17137833899E+03 0.  0.
         24    2    3    3    0    0  0.41067810623E+02 -0.86727438519E+02 -0.36849637850E+03  0.38880226187E+03  0.78545554998E+02 0.  0.
         -6    2    1    2    0  502  0.14505717358E+02  0.92307398110E+02  0.10917860466E+03  0.22508613837E+03  0.17324182632E+03 0.  0.
        -24    2    5    5    0    0 -0.51827043150E+02  0.60295235371E+02  0.29568055175E+02  0.11652858097E+03  0.79894195564E+02 0.  0.
          5    1    3    3  501    0 -0.55573527982E+02 -0.55799595911E+01 -0.60269131342E+02  0.82304381136E+02  0.47000000000E+01 0. -1.
        -11    1    4    4    0    0  0.65660454894E+01  0.93589175528E+01 -0.75628020263E+01  0.13707598828E+02  0.00000000000E+00 0.  1.
         12    1    4    4    0    0  0.34501765134E+02 -0.96086356072E+02 -0.36093357647E+03  0.37509466305E+03  0.00000000000E+00 0. -1.
         -5    1    5    5    0  502  0.66332760508E+02  0.32012162739E+02  0.79610549488E+02  0.10855755740E+03  0.47000000000E+01 0.  1.
         13    1    6    6    0    0  0.85814300517E+00  0.41679803646E+02  0.42116210405E+02  0.59259747048E+02  0.00000000000E+00 0. -1.
        -14    1    6    6    0    0 -0.52685186155E+02  0.18615431725E+02 -0.12548155230E+02  0.57268833917E+02  0.00000000000E+00 0.  1.
</event>
<event>
12    1  0.8684423E-002  0.2434579E+03  0.7818608E-02  0.1117535E+00
         21   -1    0    0  503  502  0.00000000000E+00  0.00000000000E+00  0.50432135151E+03  0.50432135151E+03  0.00000000000E+00 0.  1.
         21   -1    0    0  501  503 -0.00000000000E+00 -0.00000000000E+00 -0.12366549440E+03  0.12366549440E+03  0.00000000000E+00 0. -1.
          6    2    1    2  501    0 -0.40440241980E+02  0.16681710622E+03  0.11991750185E+03  0.27125691692E+03  0.17244346212E+03 0.  0.
         24    2    3    3    0    0  0.37949261618E+02  0.10135009008E+03  0.80450432788E+02  0.16166410686E+03  0.89168515154E+02 0.  0.
         -6    2    1    2    0  502  0.40440241980E+02 -0.16681710622E+03  0.26073835526E+03  0.35672992899E+03  0.17265107074E+03 0.  0.
        -24    2    5    5    0    0 -0.25021165033E+02 -0.12809869956E+03  0.22658710605E+03  0.27322718265E+03  0.79221469210E+02 0.  0.
          5    1    3    3  501    0 -0.78389503598E+02  0.65467016146E+02  0.39467069065E+02  0.10959281006E+03  0.47000000000E+01 0. -1.
        -11    1    4    4    0    0  0.67573884600E+01  0.61715470199E+02  0.90975826226E+02  0.11014110276E+03  0.00000000000E+00 0.  1.
         12    1    4    4    0    0  0.31191873158E+02  0.39634619876E+02 -0.10525393437E+02  0.51523004093E+02  0.00000000000E+00 0. -1.
         -5    1    5    5    0  502  0.65461407013E+02 -0.38718406660E+02  0.34151249216E+02  0.83502746334E+02  0.47000000000E+01 0.  1.
         13    1    6    6    0    0  0.83250502523E+01 -0.16559964647E+02  0.58294351808E-01  0.18534893824E+02  0.00000000000E+00 0. -1.
        -14    1    6    6    0    0 -0.33346215285E+02 -0.11153873491E+03  0.22652881169E+03  0.25469228883E+03  0.00000000000E+00 0.  1.
</event>
<event>
12    1  0.8684423E-002  0.1835548E+03  0.7818608E-02  0.1166371E+00
         21   -1    0    0  501  502  0.00000000000E+00  0.00000000000E+00  0.18374916628E+03  0.18374916628E+03  0.00000000000E+00 0.  1.
         21   -1    0    0  502  503 -0.00000000000E+00 -0.00000000000E+00 -0.26761389621E+03  0.26761389621E+03  0.00000000000E+00 0. -1.
         -6    2    1    2    0  503  0.10356680287E+02 -0.64709652393E+02 -0.17505866109E+03  0.25364915906E+03  0.17145775320E+03 0.  0.
        -24    2    3    3    0    0  0.38279551694E+02 -0.96404584169E+02 -0.92002991639E+02  0.16035076853E+03  0.80552160570E+02 0.  0.
          6    2    1    2  501    0 -0.10356680287E+02  0.64709652393E+02  0.91193931151E+02  0.19771390343E+03  0.16272631806E+03 0.  0.
         24    2    5    5    0    0 -0.58795939432E+02  0.19763666517E+02  0.23216887737E+02  0.10279566543E+03  0.78615265360E+02 0.  0.
          5    1    5    5  501    0  0.48439259145E+02  0.44945985876E+02  0.67977043413E+02  0.94918237995E+02  0.47000000000E+01 0. -1.
        -13    1    6    6    0    0 -0.39387349263E+02  0.50145131988E+02  0.18776870476E+02  0.66471560903E+02  0.00000000000E+00 0.  1.
         14    1    6    6    0    0 -0.19408590169E+02 -0.30381465471E+02  0.44400172618E+01  0.36324104529E+02  0.00000000000E+00 0. -1.
         -5    1    3    3    0  503 -0.27922871406E+02  0.31694931776E+02 -0.83055669448E+02  0.93298390529E+02  0.47000000000E+01 0.  1.
         13    1    4    4    0    0  0.68009269440E+01 -0.52393855661E+02 -0.92172459557E+02  0.10624091029E+03  0.00000000000E+00 0. -1.
        -14    1    4    4    0    0  0.31478624750E+02 -0.44010728507E+02  0.16946791843E+00  0.54109858245E+02  0.00000000000E+00 0.  1.
</event>
<event>
12    1  0.8684423E-002  0.2558493E+03  0.7818608E-02  0.1109768E+00
         21   -1    0    0  501  502  0.00000000000E+00  0.00000000000E+00  0.40309100479E+03  0.40309100479E+03  0.00000000000E+00 0. -1.
         21   -1    0    0  502  503 -0.00000000000E+00 -0.00000000000E+00 -0.53063298606E+03  0.53063298606E+03  0.00000000000E+00 0.  1.
         -6    2    1    2    0  503 -0.57420612803E+02 -0.17971367733E+03 -0.45294412950E+03  0.52020887194E+03  0.17281421643E+03 0.  0.
        -24    2    3    3    0    0 -0.30505373843E+02 -0.68574555947E+02 -0.98437726700E+02  0.14768610214E+03  0.80549060652E+02 0.  0.
          6    2    1    2  501    0  0.57420612803E+02  0.17971367733E+03  0.32540214823E+03  0.41351511892E+03  0.17179657420E+03 0.  0.
         24    2    5    5    0    0  0.45846126341E+02  0.18263319586E+03  0.19535590939E+03  0.28283762827E+03  0.79852621128E+02 0.  0.
          5    1    5    5  501    0  0.11574486462E+02 -0.29195185350E+01  0.13004623884E+03  0.13067749064E+03  0.47000000000E+01 0. -1.
        -13    1    6    6    0    0 -0.14804760300E+01  0.93574598400E+02  0.50531244738E+02  0.10635696484E+03  0.00000000000E+00 0.  1.
         14    1    6    6    0    0  0.47326602371E+02  0.89058597463E+02  0.14482466465E+03  0.17648066343E+03  0.00000000000E+00 0. -1.
         -5    1    3    3    0  503 -0.26915238960E+02 -0.11113912138E+03 -0.35450640280E+03  0.37252276980E+03  0.47000000000E+01 0.  1.
         11    1    4    4    0    0 -0.46363030207E+01  0.15498106230E+02 -0.69647582270E+00  0.16191716431E+02  0.00000000000E+00 0. -1.
        -12    1    4    4    0    0 -0.25869070822E+02 -0.84072662177E+02 -0.97741250877E+02  0.13149438571E+03  0.00000000000E+00 0.  1.
</event>
<event>
12    1  0.8684423E-002  0.2097234E+03  0.7818608E-02  0.1141829E+00
         21   -1    0    0  501  502  0.00000000000E+00  0.00000000000E+00  0.17249889797E+03  0.17249889797E+03  0.00000000000E+00 0.  1.
         21   -1    0    0  502  503 -0.00000000000E+00 -0.00000000000E+00 -0.46398465062E+03  0.46398465062E+03  0.00000000000E+00 0.  1.
         -6    2    1    2    0  503  0.97888493064E+02  0.67960621178E+02 -0.35942804590E+03  0.41602929109E+03  0.17231090436E+03 0.  0.
        -24    2    3    3    0    0  0.11590372604E+03  0.99236063606E+02 -0.28151743769E+03  0.33003594955E+03  0.79938665504E+02 0.  0.
          6    2    1    2  501    0 -0.97888493064E+02 -0.67960621178E+02  0.67942293251E+02  0.22045425750E+03  0.17257787034E+03 0.  0.
         24    2    5    5    0    0 -0.12551092314E+03 -0.26819787234E+02  0.23731503163E+02  0.15387910582E+03  0.81506454667E+02 0.  0.
          5    1    5    5  501    0  0.27622430073E+02 -0.41140833944E+02  0.44210790088E+02  0.66575151678E+02  0.47000000000E+01 0. -1.
        -11    1    6    6    0    0  0.72134590505E+01 -0.11959290577E+02  0.14306300027E+02  0.19993219927E+02  0.00000000000E+00 0.  1.
         12    1    6    6    0    0 -0.13272438219E+03 -0.14860496656E+02  0.94252031364E+01  0.13388588590E+03  0.00000000000E+00 0. -1.
         -5    1    3    3    0  503 -0.18015232972E+02 -0.31275442428E+02 -0.77910608212E+02  0.85993341545E+02  0.47000000000E+01 0.  1.
         13    1    4    4    0    0  0.14213525896E+02  0.25785199434E+02 -0.10264093225E+02  0.31180962750E+02  0.00000000000E+00 0. -1.
        -14    1    4    4    0    0  0.10169020014E+03  0.73450864172E+02 -0.27125334446E+03  0.29885498680E+03  0.00000000000E+00 0.  1.
</event>
<event>
12    1  0.8684423E-002  0.2238943E+03  0.7818608E-02  0.1132037E+00
         21   -1    0    0  501  502  0.00000000000E+00  0.00000000000E+00  0.59934634512E+03  0.59934634512E+03  0.00000000000E+00 0.  1.
         21   -1    0    0  502  503 -0.00000000000E+00 -0.00000000000E+00 -0.14521709023E+03  0.14521709023E+03  0.00000000000E+00 0. -1.
         -6    2    1    2    0  503  0.94580768580E+02 -0.10636504191E+03 -0.17769319732E+02  0.22459834621E+03  0.17282830922E+03 0.  0.
        -24    2    3    3    0    0  0.13185019379E+03 -0.63305143085E+02 -0.15218576974E+02  0.16739903475E+03  0.79992605954E+02 0.  0.
          6    2    1    2  501    0 -0.94580768580E+02  0.10636504191E+03  0.47189857462E+03  0.51996508915E+03  0.16557893973E+03 0.  0.
         24    2    5    5    0    0 -0.35239173455E+02  0.10599284739E+01  0.27939326665E+03  0.29260859501E+03  0.79474962313E+02 0.  0.
          5    1    5    5  501    0 -0.59341595124E+02  0.10530511344E+03  0.19250530797E+03  0.22735649413E+03  0.47000000000E+01 0. -1.
        -11    1    6    6    0    0 -0.57436024253E+01  0.29678013117E+01  0.25269785744E+03  0.25278054508E+03  0.00000000000E+00 0.  1.
         12    1    6    6    0    0 -0.29495571030E+02 -0.19078728378E+01  0.26695409201E+02  0.39828049934E+02  0.00000000000E+00 0. -1.
         -5    1    3    3    0  503 -0.37269425209E+02 -0.43059898826E+02 -0.25507427584E+01  0.57199311455E+02  0.47000000000E+01 0.  1.
         11    1    4    4    0    0  0.74014762965E+02 -0.68196472624E+02  0.15338610087E+02  0.10180479839E+03  0.00000000000E+00 0. -1.
        -12    1    4    4    0    0  0.57835430824E+02  0.48913295382E+01 -0.30557187060E+02  0.65594236365E+02  0.00000000000E+00 0.  1.
</event>
<event>
12    1  0.8684423E-002  0.2031945E+03  0.7818608E-02  0.1147115E+00
         21   -1    0    0  501  502  0.00000000000E+00  0.00000000000E+00  0.11141361036E+03  0.11141361036E+03  0.00000000000E+00 0. -1.
         21   -1    0    0  502  503 -0.00000000000E+00 -0.00000000000E+00 -0.67444400436E+03  0.67444400436E+03  0.00000000000E+00 0. -1.
         -6    2    1    2    0  503  0.10054108592E+03  0.39993079609E+02 -0.54550548347E+03  0.58212045743E+03  0.17198848242E+03 0.  0.
        -24    2    3    3    0    0  0.92479796226E+02  0.85656518269E+02 -0.47367878147E+03  0.49649745151E+03  0.79047957037E+02 0.  0.
          6    2    1    2  501    0 -0.10054108592E+03 -0.39993079609E+02 -0.17524910531E+02  0.20373715729E+03  0.17173744611E+03 0.  0.
         24    2    5    5    0    0 -0.43253169324E+02  0.12386867516E+02 -0.60681184981E+02  0.11479831160E+03  0.86441743343E+02 0.  0.
          5    1    5    5  501    0 -0.57287916594E+02 -0.52379947125E+02  0.43156274449E+02  0.88938845691E+02  0.47000000000E+01 0. -1.
        -11    1    6    6    0    0 -0.50901320946E+02  0.30801737299E+02 -0.99924565091E+01  0.60328605833E+02  0.00000000000E+00 0.  1.
         12    1    6    6    0    0  0.76481516219E+01 -0.18414869782E+02 -0.50688728471E+02  0.54469705767E+02  0.00000000000E+00 0. -1.
         -5    1    3    3    0  503  0.80612896919E+01 -0.45663438660E+02 -0.71826702003E+02  0.85623005917E+02  0.47000000000E+01 0.  1.
         11    1    4    4    0    0  0.32060311005E+02  0.72823490635E+02 -0.34078358781E+03  0.34994939356E+03  0.00000000000E+00 0. -1.
        -12    1    4    4    0    0  0.60419485221E+02  0.12833027633E+02 -0.13289519365E+03  0.14654805795E+03  0.00000000000E+00 0.  1.
</event>
<event>
12    1  0.8684423E-002  0.2093134E+03  0.7818608E-02  0.1145498E+00
         21   -1    0    0  503  502  0.00000000000E+00  0.00000000000E+00  0.16789755506E+03  0.16789755506E+03  0.00000000000E+00 0. -1.
         21   -1    0    0  501  503 -0.00000000000E+00 -0.00000000000E+00 -0.24215541866E+03  0.24215541866E+03  0.00000000000E+00 0. -1.
          6    2    1    2  501    0  0.87845038685E+02 -0.11409562453E+02 -0.49753799241E+02  0.19931009121E+03  0.17147053094E+03 0.  0.
         24    2    3    3    0    0  0.10705221749E+03  0.11415546478E+02 -0.79124093385E+02  0.15718402453E+03  0.82799175368E+02 0.  0.
         -6    2    1    2    0  502 -0.87845038685E+02  0.11409562453E+02 -0.24504064356E+02  0.21074288252E+03  0.18964489032E+03 0.  0.
        -24    2    5    5    0    0 -0.84608051228E+02 -0.30720383191E+01  0.55388925536E+02  0.12934770648E+03  0.80591167924E+02 0.  0.
          5    1    3    3  501    0 -0.19207178808E+02 -0.22825108932E+02  0.29370294144E+02  0.42126066676E+02  0.47000000000E+01 0. -1.
        -13    1    4    4    0    0 -0.73164139884E+01  0.18572867503E+01 -0.32403866976E+02  0.33271459582E+02  0.00000000000E+00 0.  1.
         14    1    4    4    0    0  0.11436863148E+03  0.95582597278E+01 -0.46720226409E+02  0.12391256495E+03  0.00000000000E+00 0. -1.
         -5    1    5    5    0  502 -0.32369874573E+01  0.14481600773E+02 -0.79892989892E+02  0.81395176040E+02  0.47000000000E+01 0.  1.
         11    1    6    6    0    0 -0.41008457398E+02 -0.33014064250E+02  0.55443788784E+02  0.76456757263E+02  0.00000000000E+00 0. -1.
        -12    1    6    6    0    0 -0.43599593830E+02  0.29942025931E+02 -0.54863248374E-01  0.52890949216E+02  0.00000000000E+00 0.  1.
</event>
<event>
12    1  0.8684423E-002  0.3143751E+03  0.7818608E-02  0.1078557E+00
         21   -1    0    0  501  502  0.00000000000E+00  0.00000000000E+00  0.16798252118E+04  0.16798252118E+04  0.00000000000E+00 0. -1.
         21   -1    0    0  502  503 -0.00000000000E+00 -0.00000000000E+00 -0.66794442580E+02  0.66794442580E+02  0.00000000000E+00 0. -1.
         -6    2    1    2    0  503 -0.10844001351E+03 -0.23698018404E+03  0.49376074571E+03  0.58403757411E+03  0.17140994665E+03 0.  0.
        -24    2    3    3    0    0 -0.54214306004E+02 -0.23677518975E+03  0.43127355736E+03  0.50116895469E+03  0.78560539786E+02 0.  0.
          6    2    1    2  501    0  0.10844001351E+03  0.23698018404E+03  0.11192700235E+04  0.11625820803E+04  0.17582054395E+03 0.  0.
         24    2    5    5    0    0  0.10767593461E+03  0.24144013495E+03  0.86210310576E+03  0.90533241833E+03  0.80731512275E+02 0.  0.
          5    1    5    5  501    0  0.76407890053E+00 -0.44599509033E+01  0.25716691776E+03  0.25724966194E+03  0.47000000000E+01 0. -1.
        -13    1    6    6    0    0  0.10564686409E+02  0.56188238747E+01  0.91377984747E+01  0.15056000187E+02  0.00000000000E+00 0.  1.
         14    1    6    6    0    0  0.97111248200E+02  0.23582131107E+03  0.85296530728E+03  0.89027641815E+03  0.00000000000E+00 0. -1.
         -5    1    3    3    0  503 -0.54225707506E+02 -0.20499429976E+00  0.62487188347E+02  0.82868619421E+02  0.47000000000E+01 0.  1.
         11    1    4    4    0    0 -0.24980156870E+02 -0.95635171508E+02  0.10356625582E+03  0.14316446351E+03  0.00000000000E+00 0. -1.
        -12    1    4    4    0    0 -0.29234149134E+02 -0.14114001824E+03  0.32770730154E+03  0.35800449118E+03  0.00000000000E+00 0.  1.
</event>
<event>
12    1  0.8684423E-002  0.2637198E+03  0.7818608E-02  0.1105132E+00
         21   -1    0    0  501  502  0.00000000000E+00  0.00000000000E+00  0.73634192975E+02  0.73634192975E+02  0.00000000000E+00 0.  1.
         21   -1    0    0  502  503 -0.00000000000E+00 -0.00000000000E+00 -0.10854817465E+04  0.10854817465E+04  0.00000000000E+00 0.  1.
         -6    2    1    2    0  503 -0.18385402183E+03  0.75748245185E+02 -0.71725202426E+03  0.76372418140E+03  0.17112586292E+03 0.  0.
        -24    2    3    3    0    0 -0.39737016070E+02 -0.28000392113E+02 -0.32767840086E+03  0.33556160814E+03  0.53529487808E+02 0.  0.
          6    2    1    2  501    0  0.18385402183E+03 -0.75748245185E+02 -0.29459552931E+03  0.39539175812E+03  0.17322822665E+03 0.  0.
         24    2    5    5    0    0  0.78973876319E+02 -0.43209355762E+02 -0.24869257789E+03  0.27627922647E+03  0.79864204220E+02 0.  0.
          5    1    5    5  501    0  0.10488014551E+03 -0.32538889423E+02 -0.45902951419E+02  0.11911253165E+03  0.47000000000E+01 0. -1.
        -13    1    6    6    0    0  0.47552048468E+02  0.12792887639E+02 -0.64066725023E+02  0.80804706192E+02  0.00000000000E+00 0.  1.
         14    1    6    6    0    0  0.31421827851E+02 -0.56002243400E+02 -0.18462585287E+03  0.19547452028E+03  0.00000000000E+00 0. -1.
         -5    1    3    3    0  503 -0.14411700576E+03  0.10374863730E+03 -0.38957362340E+03  0.42816257326E+03  0.47000000000E+01 0.  1.
         13    1    4    4    0    0  0.10383181718E+02 -0.14587378111E+02 -0.50781577850E+02  0.53845804959E+02  0.00000000000E+00 0. -1.
        -14    1    4    4    0    0 -0.50120197787E+02 -0.13413014002E+02 -0.27689682301E+03  0.28171580318E+03  0.00000000000E+00 0.  1.
</event>
<event>
12    1  0.8684423E-002  0.2010608E+03  0.7818608E-02  0.1148989E+00
         21   -1    0    0  503  502  0.00000000000E+00  0.00000000000E+00  0.46465303134E+02  0.46465303134E+02  0.00000000000E+00 0. -1.
         21   -1    0    0  501  503 -0.00000000000E+00 -0.00000000000E+00 -0.11982290720E+04  0.11982290720E+04  0.00000000000E+00 0. -1.
          6    2    1    2  501    0  0.10262956158E+03 -0.91853005385E+01 -0.90374387255E+03  0.92583931499E+03  0.17265066857E+03 0.  0.
         24    2    3    3    0    0  0.41411947760E+02  0.52288307827E+02 -0.63713055448E+03  0.64542649050E+03  0.78682873825E+02 0.  0.
         -6    2    1    2    0  502 -0.10262956158E+03  0.91853005385E+01 -0.24801989627E+03  0.31885506010E+03  0.17186472514E+03 0.  0.
        -24    2    5    5    0    0 -0.44835229980E+02 -0.54630913149E+02 -0.17455639502E+03  0.20557809902E+03  0.82448075999E+02 0.  0.
          5    1    3    3  501    0  0.61217613823E+02 -0.61473608365E+02 -0.26661331807E+03  0.28041282449E+03  0.47000000000E+01 0. -1.
        -11    1    4    4    0    0 -0.21757200172E+02  0.23453173466E+02 -0.15015519150E+03  0.15352527036E+03  0.00000000000E+00 0.  1.
         12    1    4    4    0    0  0.63169147932E+02  0.28835134361E+02 -0.48697536299E+03  0.49190122015E+03  0.00000000000E+00 0. -1.
         -5    1    5    5    0  502 -0.57794331602E+02  0.63816213688E+02 -0.73463501258E+02  0.11327696108E+03  0.47000000000E+01 0.  1.
         11    1    6    6    0    0 -0.33331618481E+02 -0.10049193160E+02 -0.12310839335E+02  0.36926140319E+02  0.00000000000E+00 0. -1.
        -12    1    6    6    0    0 -0.11503611499E+02 -0.44581719989E+02 -0.16224555568E+03  0.16865195870E+03  0.00000000000E+00 0.  1.
</event>
<event>
12    1  0.8684423E-002  0.2162176E+03  0.7818608E-02  0.1137087E+00
         21   -1    0    0  503  502  0.00000000000E+00  0.00000000000E+00  0.54830175374E+02  0.54830175374E+02  0.00000000000E+00 0.  1.
         21   -1    0    0  501  503 -0.00000000000E+00 -0.00000000000E+00 -0.84543493123E+03  0.84543493123E+03  0.00000000000E+00 0.  1.
          6    2    1    2  501    0 -0.45724211170E+02 -0.12083953985E+03 -0.39090343626E+03  0.44583009958E+03  0.17107332734E+03 0.  0.
         24    2    3    3    0    0  0.36569013357E+02 -0.37721476905E+02 -0.15169383454E+03  0.17951428941E+03  0.80337775084E+02 0.  0.
         -6    2    1    2    0  502  0.45724211170E+02  0.12083953985E+03 -0.39970131959E+03  0.45443500703E+03  0.17336993064E+03 0.  0.
        -24    2    5    5    0    0 -0.36679085534E+02  0.63562200994E+02 -0.14564936285E+03  0.18124005177E+03  0.79048787189E+02 0.  0.
          5    1    3    3  501    0 -0.82293224527E+02 -0.83118062941E+02 -0.23920960172E+03  0.26631581017E+03  0.47000000000E+01 0. -1.
        -11    1    4    4    0    0  0.38882883336E+02 -0.37577793961E+02 -0.38697327444E+02  0.66494002488E+02  0.00000000000E+00 0.  1.
         12    1    4    4    0    0 -0.23138699785E+01 -0.14368294352E+00 -0.11299650710E+03  0.11302028692E+03  0.00000000000E+00 0. -1.
         -5    1    5    5    0  502  0.82403296704E+02  0.57277338852E+02 -0.25405195674E+03  0.27319495526E+03  0.47000000000E+01 0.  1.
         11    1    6    6    0    0 -0.58664410225E+02  0.30012855675E+02 -0.10618216483E+03  0.12496774248E+03  0.00000000000E+00 0. -1.
        -12    1    6    6    0    0  0.21985324692E+02  0.33549345318E+02 -0.39467198019E+02  0.56272309288E+02  0.00000000000E+00 0.  1.
</event>
<event>
12    1  0.8684423E-002  0.1919534E+03  0.7818608E-02  0.1156756E+00
         21   -1    0    0  501  502  0.00000000000E+00  0.00000000000E+00  0.40025908145E+03  0.40025908145E+03  0.00000000000E+00 0.  1.
         21   -1    0    0  502  503 -0.00000000000E+00 -0.00000000000E+00 -0.18936986718E+03  0.18936986718E+03  0.00000000000E+00 0.  1.
         -6    2    1    2    0  503  0.16122943107E+01 -0.84268503303E+02 -0.10602756744E+03  0.21911261483E+03  0.17223447036E+03 0.  0.
        -24    2    3    3    0    0  0.42493239865E+02  0.37156416670E+01 -0.33364904312E+02  0.97809630167E+02  0.81449527233E+02 0.  0.
          6    2    1    2  501    0 -0.16122943107E+01  0.84268503303E+02  0.31691678171E+03  0.37051633380E+03  0.17245963859E+03 0.  0.
         24    2    5    5    0    0  0.59595390935E+02  0.69153322500E+02  0.15536729774E+03  0.19703672349E+03  0.79691157370E+02 0.  0.
          5    1    5    5  501    0 -0.61207685246E+02  0.15115180804E+02  0.16154948397E+03  0.17347961031E+03  0.47000000000E+01 0. -1.
        -13    1    6    6    0    0  0.23681185341E+02 -0.22897457515E+01  0.91953701587E+02  0.94981707241E+02  0.00000000000E+00 0.  1.
         14    1    6    6    0    0  0.35914205594E+02  0.71443068251E+02  0.63413596155E+02  0.10205501625E+03  0.00000000000E+00 0. -1.
         -5    1    3    3    0  503 -0.40880945554E+02 -0.87984144970E+02 -0.72662663125E+02  0.12130298466E+03  0.47000000000E+01 0.  1.
         13    1    4    4    0    0 -0.20277464650E+02  0.11982550766E+02 -0.24316894318E+02  0.33853632667E+02  0.00000000000E+00 0. -1.
        -14    1    4    4    0    0  0.62770704515E+02 -0.82669090988E+01 -0.90480099940E+01  0.63955997500E+02  0.00000000000E+00 0.  1.
</event>
<event>
12    1  0.8684423E-002  0.1828100E+03  0.7818608E-02  0.1166190E+00
         21   -1    0    0  501  502  0.00000000000E+00  0.00000000000E+00  0.11565591093E+04  0.11565591093E+04  0.00000000000E+00 0.  1.
         21   -1    0    0  502  503 -0.00000000000E+00 -0.00000000000E+00 -0.34104624338E+02  0.34104624338E+02  0.00000000000E+00 0.  1.
         -6    2    1    2    0  503  0.33009934580E+02 -0.58245188108E+02  0.81490713632E+03  0.83516055652E+03  0.17010983694E+03 0.  0.
        -24    2    3    3    0    0  0.14811866935E+02  0.23731988944E+02  0.26032937838E+03  0.27424166147E+03  0.81575149012E+02 0.  0.
          6    2    1    2  501    0 -0.33009934580E+02  0.58245188108E+02  0.30754734866E+03  0.35550317714E+03  0.16527244044E+03 0.  0.
         24    2    5    5    0    0  0.27420201404E+02  0.27494580379E+02  0.25062483744E+03  0.26684843392E+03  0.82990711222E+02 0.  0.
          5    1    5    5  501    0 -0.60430135984E+02  0.30750607730E+02  0.56922511218E+02  0.88654743213E+02  0.47000000000E+01 0. -1.
        -11    1    6    6    0    0  0.42787320292E+02  0.48096109348E+02  0.19946459191E+03  0.20959511907E+03  0.00000000000E+00 0.  1.
         12    1    6    6    0    0 -0.15367118887E+02 -0.20601528970E+02  0.51160245532E+02  0.57253314853E+02  0.00000000000E+00 0. -1.
         -5    1    3    3    0  503  0.18198067645E+02 -0.81977177052E+02  0.55457775793E+03  0.56091889505E+03  0.47000000000E+01 0.  1.
         11    1    4    4    0    0 -0.32621158565E+02  0.26570434932E+01  0.12743591506E+03  0.13157170027E+03  0.00000000000E+00 0. -1.
        -12    1    4    4    0    0  0.47433025500E+02  0.21074945451E+02  0.13289346333E+03  0.14266996120E+03  0.00000000000E+00 0.  1.
</event>
<event>
12    1  0.8684423E-002  0.2502429E+03  0.7818608E-02  0.1113323E+00
         21   -1    0    0  503  502  0.00000000000E+00  0.00000000000E+00  0.66438951590E+03  0.66438951590E+03  0.00000000000E+00 0.  1.
         21   -1    0    0  501  503 -0.00000000000E+00 -0.00000000000E+00 -0.19935874192E+03  0.19935874192E+03  0.00000000000E+00 0. -1.
          6    2    1    2  501    0  0.16249770221E+03 -0.79370929231E+02 -0.81435680132E+02  0.26316020275E+03  0.17296321771E+03 0.  0.
         24    2    3    3    0    0  0.51708806611E+02 -0.12771291040E+02 -0.93034142145E+02  0.13328986157E+03  0.79208137447E+02 0.  0.
         -6    2    1    2    0  502 -0.16249770221E+03  0.79370929231E+02  0.54646645411E+03  0.60058805507E+03  0.17139188663E+03 0.  0.
        -24    2    5    5    0    0 -0.17154656833E+02  0.83274770223E+01  0.21358329920E+03  0.23044611235E+03  0.84403529995E+02 0.  0.
          5    1    3    3  501    0  0.11078889560E+03 -0.66599638191E+02  0.11598462012E+02  0.12987034118E+03  0.47000000000E+01 0. -1.
        -13    1    4    4    0    0  0.53058801029E+01  0.65075760833E+01  0.13272725626E+02  0.15705609052E+02  0.00000000000E+00 0.  1.
         14    1    4    4    0    0  0.46402926508E+02 -0.19278867123E+02 -0.10630686777E+03  0.11758425252E+03  0.00000000000E+00 0. -1.
         -5    1    5    5    0  502 -0.14534304538E+03  0.71043452209E+02  0.33288315491E+03  0.37014194272E+03  0.47000000000E+01 0.  1.
         13    1    6    6    0    0 -0.16954008700E+01 -0.17480321436E+02  0.31123206679E+01  0.17835990624E+02  0.00000000000E+00 0. -1.
        -14    1    6    6    0    0 -0.15459255964E+02  0.25807798458E+02  0.21047097853E+03  0.21261012173E+03  0.00000000000E+00 0.  1.
</event>
<event>
12    1  0.8684423E-002  0.2116840E+03  0.7818608E-02  0.1140467E+00
         21   -1    0    0  503  502  0.00000000000E+00  0.00000000000E+00  0.62954181104E+03  0.62954181104E+03  0.00000000000E+00 0.  1.
         21   -1    0    0  501  503 -0.00000000000E+00 -0.00000000000E+00 -0.85680478389E+02  0.85680478389E+02  0.00000000000E+00 0.  1.
          6    2    1    2  501    0 -0.64173525845E+02 -0.10401192492E+03  0.12346302802E+03  0.24505762196E+03  0.17283922254E+03 0.  0.
         24    2    3    3    0    0 -0.22612176314E+02 -0.12585419419E+03  0.52931844521E+02  0.16019792394E+03  0.80690804663E+02 0.  0.
         -6    2    1    2    0  502  0.64173525845E+02  0.10401192492E+03  0.42039830463E+03  0.47016466747E+03  0.17141574623E+03 0.  0.
        -24    2    5    5    0    0 -0.24033391892E+02  0.14833880757E+02  0.15655330857E+03  0.17798414819E+03  0.79823371518E+02 0.  0.
          5    1    3    3  501    0 -0.41561349531E+02  0.21842269277E+02  0.70531183501E+02  0.84859698020E+02  0.47000000000E+01 0. -1.
        -13    1    4    4    0    0 -0.11481546417E+02 -0.12693368453E+03  0.24688255327E+02  0.12982101574E+03  0.00000000000E+00 0.  1.
         14    1    4    4    0    0 -0.11130629897E+02  0.10794903384E+01  0.28243589194E+02  0.30376908201E+02  0.00000000000E+00 0. -1.
         -5    1    5    5    0  502  0.88206917737E+02  0.89178044159E+02  0.26384499606E+03  0.29218051928E+03  0.47000000000E+01 0.  1.
         13    1    6    6    0    0  0.13532724861E+02 -0.75543455396E+01  0.11997441534E+03  0.12097133179E+03  0.00000000000E+00 0. -1.
        -14    1    6    6    0    0 -0.37566116753E+02  0.22388226297E+02  0.36578893229E+02  0.57012816406E+02  0.00000000000E+00 0.  1.
</event>
<event>
12    1  0.8684423E-002  0.1847312E+03  0.7818608E-02  0.1163707E+00
         21   -1    0    0  501  502  0.00000000000E+00  0.00000000000E+00  0.19531557217E+04  0.19531557217E+04  0.00000000000E+00 0.  1.
         21   -1    0    0  502  503 -0.00000000000E+00 -0.00000000000E+00 -0.19265939494E+02  0.19265939494E+02  0.00000000000E+00 0.  1.
         -6    2    1    2    0  503  0.65531788629E+02 -0.62105054030E+00  0.64858153101E+03  0.67390599580E+03  0.17086979777E+03 0.  0.
        -24    2    3    3    0    0  0.10702993921E+03 -0.21920227038E+02  0.50434826175E+03  0.52224493494E+03  0.80229039024E+02 0.  0.
          6    2    1    2  501    0 -0.65531788629E+02  0.62105054030E+00  0.12853082512E+04  0.12985156654E+04  0.17271604338E+03 0.  0.
         24    2    5    5    0    0 -0.43776171311E+02 -0.31768221431E+02  0.37548455264E+03  0.38784359254E+03  0.80674840754E+02 0.  0.
          5    1    5    5  501    0 -0.21755617318E+02  0.32389271971E+02  0.90982369856E+03  0.91067207286E+03  0.47000000000E+01 0. -1.
        -13    1    6    6    0    0 -0.15977727773E+02  0.23360901863E+02  0.59559650095E+02  0.65942182555E+02  0.00000000000E+00 0.  1.
         14    1    6    6    0    0 -0.27798443539E+02 -0.55129123294E+02  0.31592490255E+03  0.32190140998E+03  0.00000000000E+00 0. -1.
         -5    1    3    3    0  503 -0.41498150576E+02  0.21299176498E+02  0.14423326925E+03  0.15166106086E+03  0.47000000000E+01 0.  1.
         13    1    4    4    0    0  0.23166419156E+02  0.29153092555E+02  0.12917431668E+03  0.13443433294E+03  0.00000000000E+00 0. -1.
        -14    1    4    4    0    0  0.83863520049E+02 -0.51073319593E+02  0.37517394507E+03  0.38781060201E+03  0.00000000000E+00 0.  1.
</event>
<event>
12    1  0.8684423E-002  0.1930591E+03  0.7818608E-02  0.1156881E+00
         21   -1    0    0  503  502  0.00000000000E+00  0.00000000000E+00  0.71762349352E+03  0.71762349352E+03  0.00000000000E+00 0.  1.
         21   -1    0    0  501  503 -0.00000000000E+00 -0.00000000000E+00 -0.10677655767E+03  0.10677655767E+03  0.00000000000E+00 0.  1.
          6    2    1    2  501    0 -0.32471063055E+02  0.72703466273E+02  0.44142448372E+01  0.18797847113E+03  0.17022413491E+03 0.  0.
         24    2    3    3    0    0 -0.29745759586E+02  0.40250377594E+02 -0.62191374634E+02  0.11368830496E+03  0.80946652164E+02 0.  0.
         -6    2    1    2    0  502  0.32471063055E+02 -0.72703466273E+02  0.60643269101E+03  0.63642158007E+03  0.17587397449E+03 0.  0.
        -24    2    5    5    0    0  0.82273661202E+02 -0.19228703131E+02  0.30954161121E+03  0.33063365953E+03  0.79774114832E+02 0.  0.
          5    1    3    3  501    0 -0.27253034692E+01  0.32453088679E+02  0.66605619471E+02  0.74290166166E+02  0.47000000000E+01 0. -1.
        -13    1    4    4    0    0  0.84590435445E+01 -0.21028908313E+02 -0.18741194428E+02  0.29410929450E+02  0.00000000000E+00 0.  1.
         14    1    4    4    0    0 -0.38204803131E+02  0.61279285906E+02 -0.43450180206E+02  0.84277375513E+02  0.00000000000E+00 0. -1.
         -5    1    5    5    0  502 -0.49802598146E+02 -0.53474763142E+02  0.29689107981E+03  0.30578792054E+03  0.47000000000E+01 0.  1.
         13    1    6    6    0    0  0.29979771135E+02 -0.36225557376E+02  0.66473509214E+02  0.81423615197E+02  0.00000000000E+00 0. -1.
        -14    1    6    6    0    0  0.52293890067E+02  0.16996854245E+02  0.24306810199E+03  0.24921004434E+03  0.00000000000E+00 0.  1.
</event>
<event>
12    1  0.8684423E-002  0.2711734E+03  0.7818608E-02  0.1100899E+00
         21   -1    0    0  501  502  0.00000000000E+00  0.00000000000E+00  0.33104299406E+03  0.33104299406E+03  0.00000000000E+00 0. -1.
         21   -1    0    0  502  503 -0.00000000000E+00 -0.00000000000E+00 -0.26100290299E+03  0.26100290299E+03  0.00000000000E+00 0. -1.
         -6    2    1    2    0  503 -0.20181721905E+03  0.71221145368E+02 -0.81516338015E+02  0.28316060588E+03  0.16653039935E+03 0.  0.
        -24    2    3    3    0    0 -0.55173332958E+02  0.58796126214E+02  0.45670308607E+01  0.11259904273E+03  0.78464039691E+02 0.  0.
          6    2    1    2  501    0  0.20181721905E+03 -0.71221145368E+02  0.15155642908E+03  0.30888529117E+03  0.16321191886E+03 0.  0.
         24    2    5    5    0    0  0.70443756917E+02 -0.18170305085E+02  0.96692432457E+01  0.10831749289E+03  0.79666191855E+02 0.  0.
          5    1    5    5  501    0  0.13137346213E+03 -0.53050840283E+02  0.14188718583E+03  0.20056779829E+03  0.47000000000E+01 0. -1.
        -13    1    6    6    0    0  0.53202486427E+02  0.25178428742E+02  0.16595604865E+02  0.61154492368E+02  0.00000000000E+00 0.  1.
         14    1    6    6    0    0  0.17241270490E+02 -0.43348733827E+02 -0.69263616193E+01  0.47163000518E+02  0.00000000000E+00 0. -1.
         -5    1    3    3    0  503 -0.14664388609E+03  0.12425019154E+02 -0.86083368875E+02  0.17056156315E+03  0.47000000000E+01 0.  1.
         11    1    4    4    0    0 -0.67943446189E+02  0.23174196818E+02 -0.91076433845E+01  0.72362313715E+02  0.00000000000E+00 0. -1.
        -12    1    4    4    0    0  0.12770113231E+02  0.35621929396E+02  0.13674674245E+02  0.40236729011E+02  0.00000000000E+00 0.  1.
</event>
<event>
12    1  0.8684423E-002  0.2845394E+03  0.7818608E-02  0.1093381E+00
         21   -1    0    0  501  502  0.00000000000E+00  0.00000000000E+00  0.17217414839E+03  0.17217414839E+03  0.00000000000E+00 0. -1.
         21   -1    0    0  502  503 -0.00000000000E+00 -0.00000000000E+00 -0.47663942635E+03  0.47663942635E+03  0.00000000000E+00 0.  1.
         -6    2    1    2    0  503  0.20399394137E+03  0.97955841177E+02 -0.10938925070E+03  0.30382473497E+03  0.17068856574E+03 0.  0.
        -24    2    3    3    0    0  0.15333420740E+03  0.11746185062E+03 -0.12946128248E+03  0.24575693399E+03  0.79546096291E+02 0.  0.
          6    2    1    2  501    0 -0.20399394137E+03 -0.97955841177E+02 -0.19507602725E+03  0.34498883978E+03  0.17249280631E+03 0.  0.
         24    2    5    5    0    0 -0.12201180961E+03  0.13787146082E+02 -0.96929554403E+02  0.17509950738E+03  0.78660866302E+02 0.  0.
          5    1    5    5  501    0 -0.81982131761E+02 -0.11174298726E+03 -0.98146472846E+02  0.16988933240E+03  0.47000000000E+01 0. -1.
        -13    1    6    6    0    0 -0.37279108470E+02  0.39413984361E+02 -0.20001698767E+02  0.57820948151E+02  0.00000000000E+00 0.  1.
         14    1    6    6    0    0 -0.84732701136E+02 -0.25626838279E+02 -0.76927855636E+02  0.11727855923E+03  0.00000000000E+00 0. -1.
         -5    1    3    3    0  503  0.50659733970E+02 -0.19506009441E+02  0.20072031778E+02  0.58067800974E+02  0.47000000000E+01 0.  1.
         11    1    4    4    0    0  0.38989461863E+02  0.70957328042E+02 -0.76660096356E+02  0.11149838973E+03  0.00000000000E+00 0. -1.
        -12    1    4    4    0    0  0.11434474553E+03  0.46504522577E+02 -0.52801186126E+02  0.13425854426E+03  0.00000000000E+00 0.  1.
</event>
<event>
12    1  0.8684423E-002  0.1940795E+03  0.7818608E-02  0.1155423E+00
         21   -1    0    0  503  502  0.00000000000E+00  0.00000000000E+00  0.66098061085E+02  0.66098061085E+02  0.00000000000E+00 0. -1.
         21   -1    0    0  501  503 -0.00000000000E+00 -0.00000000000E+00 -0.60394570854E+03  0.60394570854E+03  0.00000000000E+00 0. -1.
          6    2    1    2  501    0 -0.87676862854E+02  0.16144096273E+02 -0.35543456264E+03  0.40369550035E+03  0.16937669425E+03 0.  0.
         24    2    3    3    0    0 -0.99412157558E+02  0.62371011287E+02 -0.23187179677E+03  0.27116440239E+03  0.77412420646E+02 0.  0.
         -6    2    1    2    0  502  0.87676862854E+02 -0.16144096273E+02 -0.18241308482E+03  0.26634826928E+03  0.17239200362E+03 0.  0.
        -24    2    5    5    0    0  0.10457732476E+03 -0.54769876627E+02 -0.17068241312E+03  0.22233378100E+03  0.79772600464E+02 0.  0.
          5    1    3    3  501    0  0.11735294704E+02 -0.46226915013E+02 -0.12356276588E+03  0.13253109795E+03  0.47000000000E+01 0. -1.
        -13    1    4    4    0    0  0.26066555325E+01 -0.12963265540E+02 -0.29673811930E+02  0.32486551386E+02  0.00000000000E+00 0.  1.
         14    1    4    4    0    0 -0.10201881309E+03  0.75334276826E+02 -0.20219798484E+03  0.23867785101E+03  0.00000000000E+00 0. -1.
         -5    1    5    5    0  502 -0.16900461905E+02  0.38625780354E+02 -0.11730671695E+02  0.44014488285E+02  0.47000000000E+01 0.  1.
         13    1    6    6    0    0  0.32409963755E+02  0.95155106222E+01 -0.10714057804E+02  0.35436446317E+02  0.00000000000E+00 0. -1.
        -14    1    6    6    0    0  0.72167361005E+02 -0.64285387249E+02 -0.15996835532E+03  0.18689733468E+03  0.00000000000E+00 0.  1.
</event>
<event>
12    1  0.8684423E-002  0.2054401E+03  0.7818608E-02  0.1146760E+00
         21   -1    0    0  501  502  0.00000000000E+00  0.00000000000E+00  0.23953904320E+04  0.23953904320E+04  0.00000000000E+00 0.  1.
         21   -1    0    0  502  503 -0.00000000000E+00 -0.00000000000E+00 -0.20006363248E+02  0.20006363248E+02  0.00000000000E+00 0.  1.
         -6    2    1    2    0  503  0.89049870842E+02 -0.20020899515E+02  0.70059969715E+03  0.72805914664E+03  0.17578244919E+03 0.  0.
        -24    2    3    3    0    0  0.96600118748E+02  0.61744459284E+01  0.68473472433E+03  0.69616887024E+03  0.80123320312E+02 0.  0.
          6    2    1    2  501    0 -0.89049870842E+02  0.20020899515E+02  0.16747843716E+04  0.16873376486E+04  0.18405144156E+03 0.  0.
         24    2    5    5    0    0 -0.13543555986E+03  0.11362508979E+02  0.12644813908E+04  0.12743034782E+04  0.80400680247E+02 0.  0.
          5    1    5    5  501    0  0.46385689022E+02  0.86583905354E+01  0.41030298080E+03  0.41303417041E+03  0.47000000000E+01 0. -1.
        -11    1    6    6    0    0 -0.71275543193E+02  0.43442183735E+02  0.56126871182E+03  0.56744162101E+03  0.00000000000E+00 0.  1.
         12    1    6    6    0    0 -0.64160016671E+02 -0.32079674756E+02  0.70321267901E+03  0.70686185722E+03  0.00000000000E+00 0. -1.
         -5    1    3    3    0  503 -0.75502479061E+01 -0.26195345443E+02  0.15864972818E+02  0.31890276400E+02  0.47000000000E+01 0.  1.
         13    1    4    4    0    0  0.36360540490E+02  0.37053298711E+02  0.40730417321E+03  0.41059922719E+03  0.00000000000E+00 0. -1.
        -14    1    4    4    0    0  0.60239578259E+02 -0.30878852782E+02  0.27743055112E+03  0.28556964305E+03  0.00000000000E+00 0.  1.
</event>
<event>
12    1  0.8684423E-002  0.1773798E+03  0.7818608E-02  0.1172313E+00
         21   -1    0    0  501  502  0.00000000000E+00  0.00000000000E+00  0.44673287007E+02  0.44673287007E+02  0.00000000000E+00 0. -1.
         21   -1    0    0  502  503 -0.00000000000E+00 -0.00000000000E+00 -0.67512751760E+03  0.67512751760E+03  0.00000000000E+00 0. -1.
         -6    2    1    2    0  503 -0.31769447819E+02  0.19441168303E+02 -0.32302541354E+03  0.36486971684E+03  0.16552110329E+03 0.  0.
        -24    2    3    3    0    0  0.49192857529E+00 -0.99843303835E+00 -0.60618207016E+02  0.99656207105E+02  0.79092058581E+02 0.  0.
          6    2    1    2  501    0  0.31769447819E+02 -0.19441168303E+02 -0.30742881705E+03  0.35493108777E+03  0.17342532304E+03 0.  0.
         24    2    5    5    0    0 -0.17732790531E+02  0.51050433533E+02 -0.12321291113E+03  0.15151740208E+03  0.69681439705E+02 0.  0.
          5    1    5    5  501    0  0.49502238350E+02 -0.70491601836E+02 -0.18421590592E+03  0.20341368569E+03  0.47000000000E+01 0. -1.
        -11    1    6    6    0    0 -0.37693557646E+02  0.56087442156E+02 -0.93095473332E+02  0.11503639689E+03  0.00000000000E+00 0.  1.
         12    1    6    6    0    0  0.19960767115E+02 -0.50370086224E+01 -0.30117437798E+02  0.36481005183E+02  0.00000000000E+00 0. -1.
         -5    1    3    3    0  503 -0.32261376394E+02  0.20439601341E+02 -0.26240720653E+03  0.26521350974E+03  0.47000000000E+01 0.  1.
         11    1    4    4    0    0 -0.15080076223E+02  0.33735511447E+02 -0.14105482823E+02  0.39553230932E+02  0.00000000000E+00 0. -1.
        -12    1    4    4    0    0  0.15572004799E+02 -0.34733944486E+02 -0.46512724193E+02  0.60102976173E+02  0.00000000000E+00 0.  1.
</event>
<event>
12    1  0.8684423E-002  0.2237958E+03  0.7818608E-02  0.1131343E+00
         21   -1    0    0  503  502  0.00000000000E+00  0.00000000000E+00  0.21249581857E+04  0.21249581857E+04  0.00000000000E+00 0. -1.
         21   -1    0    0  501  503 -0.00000000000E+00 -0.00000000000E+00 -0.31241980366E+02  0.31241980366E+02  0.00000000000E+00 0.  1.
          6    2    1    2  501    0 -0.14224204771E+03  0.43692392442E+01  0.15837815466E+04  0.15993178614E+04  0.17088517762E+03 0.  0.
         24    2    3    3    0    0 -0.15517637146E+03 -0.15484561888E+02  0.15320279360E+04  0.15422039720E+04  0.83450683574E+02 0.  0.
         -6    2    1    2    0  502  0.14224204771E+03 -0.43692392442E+01  0.50993465870E+03  0.55688230467E+03  0.17272132099E+03 0.  0.
        -24    2    5    5    0    0  0.38174761369E+02  0.44515643586E+02  0.16993143350E+03  0.19793381951E+03  0.82838094398E+02 0.  0.
          5    1    3    3  501    0  0.12934323754E+02  0.19853801132E+02  0.51753610623E+02  0.57113889404E+02  0.47000000000E+01 0. -1.
        -11    1    4    4    0    0 -0.10022182299E+02  0.24363230160E+02  0.22503893934E+03  0.22657567244E+03  0.00000000000E+00 0.  1.
         12    1    4    4    0    0 -0.14515418916E+03 -0.39847792048E+02  0.13069889967E+04  0.13156282996E+04  0.00000000000E+00 0. -1.
         -5    1    5    5    0  502  0.10406728634E+03 -0.48884882830E+02  0.34000322519E+03  0.35894848516E+03  0.47000000000E+01 0.  1.
         13    1    6    6    0    0 -0.17424113161E+02 -0.10564390466E+02  0.18723750827E+02  0.27672818982E+02  0.00000000000E+00 0. -1.
        -14    1    6    6    0    0  0.55598874530E+02  0.55080034052E+02  0.15120768268E+03  0.17026100053E+03  0.00000000000E+00 0.  1.
</event>
<event>
12    1  0.8684423E-002  0.1785060E+03  0.7818608E-02  0.1169573E+00
         21   -1    0    0  503  502  0.00000000000E+00  0.00000000000E+00  0.12881880529E+03  0.12881880529E+03  0.00000000000E+00 0.  1.
         21   -1    0    0  501  503 -0.00000000000E+00 -0.00000000000E+00 -0.39226965781E+03  0.39226965781E+03  0.00000000000E+00 0.  1.
          6    2    1    2  501    0 -0.18174359885E+02  0.39331588719E+02 -0.29135283822E+03  0.34168827345E+03  0.17316789150E+03 0.  0.
         24    2    3    3    0    0  0.12095575068E+02 -0.11578463072E+02 -0.26505465653E+03  0.27671299588E+03  0.77690072708E+02 0.  0.
         -6    2    1    2    0  502  0.18174359885E+02 -0.39331588719E+02  0.27901985699E+02  0.17940018965E+03  0.17183895371E+03 0.  0.
        -24    2    5    5    0    0 -0.15981035856E+02  0.30815432388E+02  0.44630691956E+02  0.99468123236E+02  0.81835349913E+02 0.  0.
          5    1    3    3  501    0 -0.30269934952E+02  0.50910051791E+02 -0.26298181691E+02  0.64975277573E+02  0.47000000000E+01 0. -1.
        -13    1    4    4    0    0  0.41876968942E+02  0.46846960966E+00 -0.19772802401E+03  0.20211450089E+03  0.00000000000E+00 0.  1.
         14    1    4    4    0    0 -0.29781393874E+02 -0.12046932682E+02 -0.67326632518E+02  0.74598494987E+02  0.00000000000E+00 0. -1.
         -5    1    5    5    0  502  0.34155395741E+02 -0.70147021106E+02 -0.16728706256E+02  0.79932066415E+02  0.47000000000E+01 0.  1.
         13    1    6    6    0    0 -0.49050580063E+01  0.65857402202E+00 -0.23567608386E+02  0.24081641946E+02  0.00000000000E+00 0. -1.
        -14    1    6    6    0    0 -0.11075977850E+02  0.30156858366E+02  0.68198300342E+02  0.75386481290E+02  0.00000000000E+00 0.  1.
</event>
<event>
12    1  0.8684423E-002  0.1811188E+03  0.7818608E-02  0.1167661E+00
         21   -1    0    0  501  502  0.00000000000E+00  0.00000000000E+00  0.58901825465E+03  0.58901825465E+03  0.00000000000E+00 0. -1.
         21   -1    0    0  502  503 -0.00000000000E+00 -0.00000000000E+00 -0.73732120703E+02  0.73732120703E+02  0.00000000000E+00 0. -1.
         -6    2    1    2    0  503 -0.41556575515E+02  0.99277509810E+01  0.90516427457E+02  0.20247773350E+03  0.17600710132E+03 0.  0.
        -24    2    3    3    0    0 -0.21320563078E+02 -0.55691717099E+02  0.83952585707E+02  0.13333596024E+03  0.84701286200E+02 0.  0.
          6    2    1    2  501    0  0.41556575515E+02 -0.99277509810E+01  0.42476970649E+03  0.46027264185E+03  0.17203514780E+03 0.  0.
         24    2    5    5    0    0  0.10798970432E+02  0.58507690928E+02  0.28334066677E+03  0.30010490710E+03  0.79001608586E+02 0.  0.
          5    1    5    5  501    0  0.30757605083E+02 -0.68435441909E+02  0.14142903972E+03  0.16016773475E+03  0.47000000000E+01 0. -1.
        -13    1    6    6    0    0  0.15331640212E+02 -0.60099993997E+01  0.10109149353E+02  0.19322892770E+02  0.00000000000E+00 0.  1.
         14    1    6    6    0    0 -0.45326697799E+01  0.64517690328E+02  0.27323151741E+03  0.28078201433E+03  0.00000000000E+00 0. -1.
         -5    1    3    3    0  503 -0.20236012437E+02  0.65619468080E+02  0.65638417493E+01  0.69141773256E+02  0.47000000000E+01 0.  1.
         11    1    4    4    0    0 -0.18834791524E+02 -0.20485443641E+02 -0.12590503304E+02  0.30543797183E+02  0.00000000000E+00 0. -1.
        -12    1    4    4    0    0 -0.24857715545E+01 -0.35206273458E+02  0.96543089011E+02  0.10279216306E+03  0.00000000000E+00 0.  1.
</event>
<event>
12    1  0.8684423E-002  0.1804893E+03  0.7818608E-02  0.1167596E+00
         21   -1    0    0  503  502  0.00000000000E+00  0.00000000000E+00  0.56592830442E+02  0.56592830442E+02  0.00000000000E+00 0.  1.
         21   -1    0    0  501  503 -0.00000000000E+00 -0.00000000000E+00 -0.60345262184E+03  0.60345262184E+03  0.00000000000E+00 0. -1.
          6    2    1    2  501    0  0.25387182933E+02 -0.41190774359E+02 -0.19903817584E+03  0.26868674468E+03  0.17388266841E+03 0.  0.
         24    2    3    3    0    0  0.14150417694E+01 -0.76262321797E+02 -0.64211643813E+02  0.12724785070E+03  0.79062862564E+02 0.  0.
         -6    2    1    2    0  502 -0.25387182933E+02  0.41190774359E+02 -0.34782161555E+03  0.39135870760E+03  0.17274424106E+03 0.  0.
        -24    2    5    5    0    0  0.43079980690E+02  0.31499946475E+02 -0.12578123578E+03  0.15875242031E+03  0.80828709716E+02 0.  0.
          5    1    3    3  501    0  0.23972141163E+02  0.35071547438E+02 -0.13482653203E+03  0.14143889398E+03  0.47000000000E+01 0. -1.
        -11    1    4    4    0    0  0.32543295834E+02 -0.30208475449E+02 -0.29127295971E+01  0.44498338018E+02  0.00000000000E+00 0.  1.
         12    1    4    4    0    0 -0.31128254064E+02 -0.46053846349E+02 -0.61298914216E+02  0.82749512679E+02  0.00000000000E+00 0. -1.
         -5    1    5    5    0  502 -0.68467163622E+02  0.96908278835E+01 -0.22204037977E+03  0.23260628729E+03  0.47000000000E+01 0.  1.
         11    1    6    6    0    0  0.25635039718E+02 -0.90880594671E+00 -0.11848593718E+03  0.12123076548E+03  0.00000000000E+00 0. -1.
        -12    1    6    6    0    0  0.17444940971E+02  0.32408752422E+02 -0.72952985990E+01  0.37521654824E+02  0.00000000000E+00 0.  1.
</event>
<event>
12    1  0.8684423E-002  0.2731672E+03  0.7818608E-02  0.1099708E+00
         21   -1    0    0  503  502  0.00000000000E+00  0.00000000000E+00  0.10220451449E+04  0.10220451449E+04  0.00000000000E+00 0. -1.
         21   -1    0    0  501  503 -0.00000000000E+00 -0.00000000000E+00 -0.99153361435E+02  0.99153361435E+02  0.00000000000E+00 0.  1.
          6    2    1    2  501    0  0.18036761375E+03  0.10657602155E+03  0.17023716578E+03  0.32050551373E+03  0.17277779735E+03 0.  0.
         24    2    3    3    0    0  0.19022285127E+03  0.79647473319E+02  0.10140511595E+03  0.24579130155E+03  0.87188951297E+02 0.  0.
         -6    2    1    2    0  502 -0.18036761375E+03 -0.10657602155E+03  0.75265461769E+03  0.80069299261E+03  0.17529794760E+03 0.  0.
        -24    2    5    5    0    0 -0.12568599972E+03 -0.10992285093E+03  0.70065156031E+03  0.72501150111E+03  0.82759072583E+02 0.  0.
          5    1    3    3  501    0 -0.98552375215E+01  0.26928548229E+02  0.68832049832E+02  0.74714212172E+02  0.47000000000E+01 0. -1.
        -11    1    4    4    0    0  0.14503290259E+03  0.95936369262E+02  0.65497323167E+02  0.18581773091E+03  0.00000000000E+00 0.  1.
         12    1    4    4    0    0  0.45189948682E+02 -0.16288895944E+02  0.35907792780E+02  0.59973570640E+02  0.00000000000E+00 0. -1.
         -5    1    5    5    0  502 -0.54681614027E+02  0.33468293796E+01  0.52003057381E+02  0.75681491505E+02  0.47000000000E+01 0.  1.
         11    1    6    6    0    0 -0.12524616590E+03 -0.96692538361E+02  0.51189925682E+03  0.53579557499E+03  0.00000000000E+00 0. -1.
        -12    1    6    6    0    0 -0.43983382358E+00 -0.13230312566E+02  0.18875230348E+03  0.18921592611E+03  0.00000000000E+00 0.  1.
</event>
<event>
12    1  0.8684423E-002  0.1923087E+03  0.7818608E-02  0.1157775E+00
         21   -1    0    0  501  502  0.00000000000E+00  0.00000000000E+00  0.17750566158E+04  0.17750566158E+04  0.00000000000E+00 0.  1.
         21   -1    0    0  502  503 -0.00000000000E+00 -0.00000000000E+00 -0.12551599432E+03  0.12551599432E+03  0.00000000000E+00 0. -1.
         -6    2    1    2    0  503  0.76136865486E+02  0.45984537984E+02 -0.43628754233E+02  0.19719561175E+03  0.17050290636E+03 0.  0.
        -24    2    3    3    0    0  0.13327311063E+02  0.79124371903E+02 -0.52384155765E+02  0.12548762213E+03  0.81023207065E+02 0.  0.
          6    2    1    2  501    0 -0.76136865486E+02 -0.45984537984E+02  0.16931693757E+04  0.17033769984E+04  0.16358258999E+03 0.  0.
         24    2    5    5    0    0 -0.66252947128E+02 -0.89293521988E+02  0.11798158182E+04  0.11880835626E+04  0.84937628883E+02 0.  0.
          5    1    5    5  501    0 -0.98839183577E+01  0.43308984004E+02  0.51335355750E+03  0.51529343576E+03  0.47000000000E+01 0. -1.
        -11    1    6    6    0    0 -0.58147410799E+02 -0.68256811387E+02  0.11282191985E+04  0.11317767772E+04  0.00000000000E+00 0.  1.
         12    1    6    6    0    0 -0.81055363288E+01 -0.21036710602E+02  0.51596619710E+02  0.56306785360E+02  0.00000000000E+00 0. -1.
         -5    1    3    3    0  503  0.62809554423E+02 -0.33139833919E+02  0.87554015325E+01  0.71707989617E+02  0.47000000000E+01 0.  1.
         11    1    4    4    0    0  0.15817730470E+02  0.33627133860E+02 -0.67857380669E+02  0.77366716617E+02  0.00000000000E+00 0. -1.
        -12    1    4    4    0    0 -0.24904194060E+01  0.45497238043E+02  0.15473224904E+02  0.48120905512E+02  0.00000000000E+00 0.  1.
</event>
<event>
12    1  0.8684423E-002  0.1909167E+03  0.7818608E-02  0.1159773E+00
         21   -1    0    0  501  502  0.00000000000E+00  0.00000000000E+00  0.10429189169E+03  0.10429189169E+03  0.00000000000E+00 0. -1.
         21   -1    0    0  502  503 -0.00000000000E+00 -0.00000000000E+00 -0.12846646707E+04  0.12846646707E+04  0.00000000000E+00 0. -1.
         -6    2    1    2    0  503 -0.54443986889E+02 -0.20361753330E+02 -0.11917670045E+04  0.12069622112E+04  0.18185279089E+03 0.  0.
        -24    2    3    3    0    0 -0.71796637483E+02  0.38639085761E+02 -0.99969623614E+03  0.10052309951E+04  0.66701220650E+02 0.  0.
          6    2    1    2  501    0  0.54443986889E+02  0.20361753330E+02  0.11394225434E+02  0.18199435124E+03  0.17208534744E+03 0.  0.
         24    2    5    5    0    0  0.68314874887E+02  0.55441000435E+02 -0.32584856093E+02  0.12386342381E+03  0.80868709971E+02 0.  0.
          5    1    5    5  501    0 -0.13870887998E+02 -0.35079247105E+02  0.43979081527E+02  0.58130927425E+02  0.47000000000E+01 0. -1.
        -13    1    6    6    0    0 -0.84578033812E+01  0.33872732361E+02 -0.26605521151E+02  0.43894762687E+02  0.00000000000E+00 0.  1.
         14    1    6    6    0    0  0.76772678268E+02  0.21568268074E+02 -0.59793349427E+01  0.79968661127E+02  0.00000000000E+00 0. -1.
         -5    1    3    3    0  503  0.17352650594E+02 -0.59000839091E+02 -0.19207076834E+03  0.20173121610E+03  0.47000000000E+01 0.  1.
         13    1    4    4    0    0 -0.17684710377E+02 -0.12762629355E+02 -0.44528446493E+03  0.44581822349E+03  0.00000000000E+00 0. -1.
        -14    1    4    4    0    0 -0.54111927106E+02  0.51401715116E+02 -0.55441177121E+03  0.55941277160E+03  0.00000000000E+00 0.  1.
</event>
<event>
12    1  0.8684423E-002  0.2692606E+03  0.7818608E-02  0.1102492E+00
         21   -1    0    0  501  502  0.00000000000E+00  0.00000000000E+00  0.13421452700E+03  0.13421452700E+03  0.00000000000E+00 0. -1.
         21   -1    0    0  502  503 -0.00000000000E+00 -0.00000000000E+00 -0.53578867413E+03  0.53578867413E+03  0.00000000000E+00 0. -1.
         -6    2    1    2    0  503  0.12063844923E+03 -0.16353427570E+03 -0.16607444709E+03  0.31635741940E+03  0.17664710603E+03 0.  0.
        -24    2    3    3    0    0  0.20325564556E+02 -0.24798258475E+02 -0.15676202843E+02  0.88427431941E+02  0.80904790873E+02 0.  0.
          6    2    1    2  501    0 -0.12063844923E+03  0.16353427570E+03 -0.23549970004E+03  0.35364578173E+03  0.16825021681E+03 0.  0.
         24    2    5    5    0    0 -0.84262965146E+02  0.34187049680E+02 -0.15713425774E+03  0.19802729547E+03  0.79086238575E+02 0.  0.
          5    1    5    5  501    0 -0.36375484084E+02  0.12934722602E+03 -0.78365442292E+02  0.15561848626E+03  0.47000000000E+01 0. -1.
        -13    1    6    6    0    0 -0.39325393451E+02 -0.23386326170E+02 -0.77298075079E+02  0.89824268617E+02  0.00000000000E+00 0.  1.
         14    1    6    6    0    0 -0.44937571695E+02  0.57573375850E+02 -0.79836182664E+02  0.10820302685E+03  0.00000000000E+00 0. -1.
         -5    1    3    3    0  503  0.10031288468E+03 -0.13873601723E+03 -0.15039824425E+03  0.22792998746E+03  0.47000000000E+01 0.  1.
         11    1    4    4    0    0  0.40475428164E+02 -0.32577016394E+02 -0.32293970061E+02  0.61175344580E+02  0.00000000000E+00 0. -1.
        -12    1    4    4    0    0 -0.20149863608E+02  0.77787579187E+01  0.16617767219E+02  0.27252087361E+02  0.00000000000E+00 0.  1.
</event>
<event>
12    1  0.8684423E-002  0.1892395E+03  0.7818608E-02  0.1160069E+00
         21   -1    0    0  503  502  0.00000000000E+00  0.00000000000E+00  0.29415658780E+03  0.29415658780E+03  0.00000000000E+00 0. -1.
         21   -1    0    0  501  503 -0.00000000000E+00 -0.00000000000E+00 -0.12608368786E+03  0.12608368786E+03  0.00000000000E+00 0. -1.
          6    2    1    2  501    0 -0.70316381266E+02 -0.13854184576E+02  0.34008439961E+02  0.18832458834E+03  0.17080177013E+03 0.  0.
         24    2    3    3    0    0 -0.82141844209E+01 -0.39806665595E+01  0.78338039237E+02  0.11124428876E+03  0.78454603806E+02 0.  0.
         -6    2    1    2    0  502  0.70316381266E+02  0.13854184576E+02  0.13406445997E+03  0.23191568732E+03  0.17514358308E+03 0.  0.
        -24    2    5    5    0    0 -0.80193745276E+01 -0.44736367509E+02  0.71379181615E+02  0.11563637897E+03  0.78810732941E+02 0.  0.
          5    1    3    3  501    0 -0.62102196845E+02 -0.98735180164E+01 -0.44329599276E+02  0.77080299577E+02  0.47000000000E+01 0. -1.
        -11    1    4    4    0    0 -0.39461244709E+02  0.78091038405E+01  0.62391497979E+02  0.74235240666E+02  0.00000000000E+00 0.  1.
         12    1    4    4    0    0  0.31247060288E+02 -0.11789770400E+02  0.15946541258E+02  0.37009048094E+02  0.00000000000E+00 0. -1.
         -5    1    5    5    0  502  0.78335755793E+02  0.58590552085E+02  0.62685278359E+02  0.11627930836E+03  0.47000000000E+01 0.  1.
         11    1    6    6    0    0  0.47196669060E+01 -0.48344095070E+02  0.84199916068E+02  0.97206237710E+02  0.00000000000E+00 0. -1.
        -12    1    6    6    0    0 -0.12739041434E+02  0.36077275614E+01 -0.12820734453E+02  0.18430141256E+02  0.00000000000E+00 0.  1.
</event>
<event>
12    1  0.8684423E-002  0.2136170E+03  0.7818608E-02  0.1140684E+00
         21   -1    0    0  503  502  0.00000000000E+00  0.00000000000E+00  0.66032769105E+02  0.66032769105E+02  0.00000000000E+00 0.  1.
         21   -1    0    0  501  503 -0.00000000000E+00 -0.00000000000E+00 -0.69402759604E+03  0.69402759604E+03  0.00000000000E+00 0.  1.
          6    2    1    2  501    0 -0.60885387064E+02  0.90195974073E+02 -0.22240467546E+03  0.30165488260E+03  0.17230636794E+03 0.  0.
         24    2    3    3    0    0 -0.63765249984E+02 -0.68165683083E+01 -0.14395790260E+03  0.17677208490E+03  0.80075087072E+02 0.  0.
         -6    2    1    2    0  502  0.60885387064E+02 -0.90195974073E+02 -0.40559015147E+03  0.45840548254E+03  0.18382021476E+03 0.  0.
        -24    2    5    5    0    0  0.10383197295E+03 -0.21633341094E+02 -0.24323777446E+03  0.27695127839E+03  0.79298900547E+02 0.  0.
          5    1    3    3  501    0  0.28798629201E+01  0.97012542381E+02 -0.78446772858E+02  0.12488279770E+03  0.47000000000E+01 0. -1.
        -11    1    4    4    0    0 -0.79025433515E+01  0.32969751550E+02 -0.51390712023E+02  0.61566711711E+02  0.00000000000E+00 0.  1.
         12    1    4    4    0    0 -0.55862706632E+02 -0.39786319858E+02 -0.92567190579E+02  0.11520537319E+03  0.00000000000E+00 0. -1.
         -5    1    5    5    0  502 -0.42946585886E+02 -0.68562632979E+02 -0.16235237702E+03  0.18145420415E+03  0.47000000000E+01 0.  1.
         13    1    6    6    0    0  0.36519409186E+02  0.15008755409E+02 -0.15559233098E+03  0.16052384074E+03  0.00000000000E+00 0. -1.
        -14    1    6    6    0    0  0.67312563763E+02 -0.36642096503E+02 -0.87645443480E+02  0.11642743766E+03  0.00000000000E+00 0.  1.
</event>
<event>
12    1  0.8684423E-002  0.3155915E+03  0.7818608E-02  0.1077792E+00
         21   -1    0    0  501  502  0.00000000000E+00  0.00000000000E+00  0.54547446968E+03  0.54547446968E+03  0.00000000000E+00 0. -1.
         21   -1    0    0  502  503 -0.00000000000E+00 -0.00000000000E+00 -0.20571698601E+03  0.20571698601E+03  0.00000000000E+00 0.  1.
         -6    2    1    2    0  503  0.13316104042E+03  0.22752207222E+03  0.42472726788E+02  0.31762922771E+03  0.17200650495E+03 0.  0.
        -24    2    3    3    0    0  0.10321012309E+03  0.24143548673E+03  0.58649382329E+02  0.28055612780E+03  0.79552291221E+02 0.  0.
          6    2    1    2  501    0 -0.13316104042E+03 -0.22752207222E+03  0.29728475688E+03  0.43356222797E+03  0.17349300510E+03 0.  0.
         24    2    5    5    0    0 -0.93720770132E+02 -0.10878414088E+03  0.79955379008E+02  0.18274679833E+03  0.79912186852E+02 0.  0.
          5    1    5    5  501    0 -0.39440270290E+02 -0.11873793134E+03  0.21732937787E+03  0.25081542964E+03  0.47000000000E+01 0. -1.
        -13    1    6    6    0    0 -0.75896184695E+02 -0.64940433509E+02  0.89899047680E+02  0.13438500485E+03  0.00000000000E+00 0.  1.
         14    1    6    6    0    0 -0.17824585437E+02 -0.43843707368E+02 -0.99436686718E+01  0.48361793478E+02  0.00000000000E+00 0. -1.
         -5    1    3    3    0  503  0.29950917332E+02 -0.13913414515E+02 -0.16176655541E+02  0.37073099911E+02  0.47000000000E+01 0.  1.
         11    1    4    4    0    0  0.32406945030E+00  0.71040446437E+00  0.15157758703E+02  0.15177857042E+02  0.00000000000E+00 0. -1.
        -12    1    4    4    0    0  0.10288605364E+03  0.24072508227E+03  0.43491623627E+02  0.26537827076E+03  0.00000000000E+00 0.  1.
</event>
<event>
12    1  0.8684423E-002  0.2236663E+03  0.7818608E-02  0.1131238E+00
         21   -1    0    0  501  502  0.00000000000E+00  0.00000000000E+00  0.82627247451E+02  0.82627247451E+02  0.00000000000E+00 0. -1.
         21   -1    0    0  502  503 -0.00000000000E+00 -0.00000000000E+00 -0.60469783882E+03  0.60469783882E+03  0.00000000000E+00 0. -1.
         -6    2    1    2    0  503 -0.10872114186E+03 -0.92258165347E+02 -0.25630418938E+03  0.34017417675E+03  0.17232172606E+03 0.  0.
        -24    2    3    3    0    0  0.51453114051E+01 -0.70668462443E+02 -0.10774180819E+03  0.15169458752E+03  0.79890204894E+02 0.  0.
          6    2    1    2  501    0  0.10872114186E+03  0.92258165347E+02 -0.26576640199E+03  0.34715090952E+03  0.17190147700E+03 0.  0.
         24    2    5    5    0    0  0.98756928680E+02  0.63627375506E+00 -0.12085759288E+03  0.17535303550E+03  0.79929928651E+02 0.  0.
          5    1    5    5  501    0  0.99642131770E+01  0.91621891592E+02 -0.14490880911E+03  0.17179787403E+03  0.47000000000E+01 0. -1.
        -11    1    6    6    0    0  0.52929779243E+02  0.13806648201E+01 -0.80065086727E+01  0.53549714725E+02  0.00000000000E+00 0.  1.
         12    1    6    6    0    0  0.45827149437E+02 -0.74439106502E+00 -0.11285108421E+03  0.12180332077E+03  0.00000000000E+00 0. -1.
         -5    1    3    3    0  503 -0.11386645326E+03 -0.21589702903E+02 -0.14856238119E+03  0.18847958923E+03  0.47000000000E+01 0.  1.
         13    1    4    4    0    0 -0.24588177015E+02 -0.62865115309E+02 -0.98840337948E+02  0.11969132624E+03  0.00000000000E+00 0. -1.
        -14    1    4    4    0    0  0.29733488420E+02 -0.78033471342E+01 -0.89014702410E+01  0.32003261280E+02  0.00000000000E+00 0.  1.
</event>
<event>
12    1  0.8684423E-002  0.1811968E+03  0.7818608E-02  0.1166745E+00
         21   -1    0    0  503  502  0.00000000000E+00  0.00000000000E+00  0.71886945803E+03  0.71886945803E+03  0.00000000000E+00 0.  1.
         21   -1    0    0  501  503 -0.00000000000E+00 -0.00000000000E+00 -0.46884217083E+02  0.46884217083E+02  0.00000000000E+00 0.  1.
          6    2    1    2  501    0 -0.50813742483E+02 -0.33722339849E+02  0.39968263780E+03  0.43867420238E+03  0.17020461876E+03 0.  0.
         24    2    3    3    0    0  0.14169062906E+02 -0.33994150618E+01  0.97606915334E+02  0.12816804001E+03  0.81777858824E+02 0.  0.
         -6    2    1    2    0  502  0.50813742483E+02  0.33722339849E+02  0.27230260314E+03  0.32707947273E+03  0.17062544116E+03 0.  0.
        -24    2    5    5    0    0  0.66703575454E+02  0.76040530376E+02  0.17049773009E+03  0.21559118536E+03  0.84726347754E+02 0.  0.
          5    1    3    3  501    0 -0.64982805390E+02 -0.30322924787E+02  0.30207572247E+03  0.31050616237E+03  0.47000000000E+01 0. -1.
        -11    1    4    4    0    0  0.16533526247E+02 -0.38640185045E+02  0.29186777064E+02  0.51169222643E+02  0.00000000000E+00 0.  1.
         12    1    4    4    0    0 -0.23644633401E+01  0.35240769983E+02  0.68420138269E+02  0.76998817372E+02  0.00000000000E+00 0. -1.
         -5    1    5    5    0  502 -0.15889832970E+02 -0.42318190527E+02  0.10180487305E+03  0.11148828736E+03  0.47000000000E+01 0.  1.
         11    1    6    6    0    0 -0.79171487518E+01 -0.46004700650E+01  0.56609670065E+02  0.57345447195E+02  0.00000000000E+00 0. -1.
        -12    1    6    6    0    0  0.74620724205E+02  0.80641000441E+02  0.11388806002E+03  0.15824573817E+03  0.00000000000E+00 0.  1.
</event>
<event>
12    1  0.8684423E-002  0.2255909E+03  0.7818608E-02  0.1132037E+00
         21   -1    0    0  503  502  0.00000000000E+00  0.00000000000E+00  0.14197151625E+04  0.14197151625E+04  0.00000000000E+00 0. -1.
         21   -1    0    0  501  503 -0.00000000000E+00 -0.00000000000E+00 -0.33959162890E+02  0.33959162890E+02  0.00000000000E+00 0.  1.
          6    2    1    2  501    0 -0.38009335513E+02 -0.12236576711E+03  0.69663503218E+03  0.73225107257E+03  0.18566953081E+03 0.  0.
         24    2    3    3    0    0  0.42526298136E+02 -0.47349241399E+02  0.20989193943E+03  0.23319757267E+03  0.79221493099E+02 0.  0.
         -6    2    1    2    0  502  0.38009335513E+02  0.12236576711E+03  0.68912096739E+03  0.72142325278E+03  0.17072115104E+03 0.  0.
        -24    2    5    5    0    0  0.74548175103E+02  0.13150691564E+03  0.49597105315E+03  0.52457908404E+03  0.79651933946E+02 0.  0.
          5    1    3    3  501    0 -0.80535633650E+02 -0.75016525711E+02  0.48674309275E+03  0.49905349990E+03  0.47000000000E+01 0. -1.
        -11    1    4    4    0    0  0.13129345598E+02  0.20623966367E+02  0.80277363167E+02  0.83917714111E+02  0.00000000000E+00 0.  1.
         12    1    4    4    0    0  0.29396952539E+02 -0.67973207767E+02  0.12961457626E+03  0.14927985856E+03  0.00000000000E+00 0. -1.
         -5    1    5    5    0  502 -0.36538839589E+02 -0.91411485322E+01  0.19314991424E+03  0.19684416874E+03  0.47000000000E+01 0.  1.
         13    1    6    6    0    0  0.73807618427E+01  0.80343472599E+02  0.31018873199E+03  0.32050990420E+03  0.00000000000E+00 0. -1.
        -14    1    6    6    0    0  0.67167413260E+02  0.51163443043E+02  0.18578232116E+03  0.20406917985E+03  0.00000000000E+00 0.  1.
</event>
<event>
12    1  0.8684423E-002  0.1830430E+03  0.7818608E-02  0.1165085E+00
         21   -1    0    0  503  502  0.00000000000E+00  0.00000000000E+00  0.13605669185E+03  0.13605669185E+03  0.00000000000E+00 0.  1.
         21   -1    0    0  501  503 -0.00000000000E+00 -0.00000000000E+00 -0.55121999595E+03  0.55121999595E+03  0.00000000000E+00 0.  1.
          6    2    1    2  501    0 -0.41105128171E+02 -0.44510301837E+02 -0.46343769359E+03  0.49797491881E+03  0.17185379072E+03 0.  0.
         24    2    3    3    0    0 -0.76092823369E+02 -0.68189994778E+02 -0.26680112652E+03  0.29679615207E+03  0.80405979990E+02 0.  0.
         -6    2    1    2    0  502  0.41105128171E+02  0.44510301837E+02  0.48274389490E+02  0.18930176899E+03  0.17272505472E+03 0.  0.
        -24    2    5    5    0    0  0.55198631246E+02 -0.15998217691E+02 -0.15516209455E+02  0.10013205284E+03  0.80516106395E+02 0.  0.
          5    1    3    3  501    0  0.34987695199E+02  0.23679692942E+02 -0.19663656707E+03  0.20117876673E+03  0.47000000000E+01 0. -1.
        -13    1    4    4    0    0 -0.37409724403E+02 -0.67718211923E+02 -0.10493350899E+03  0.13036980101E+03  0.00000000000E+00 0.  1.
         14    1    4    4    0    0 -0.38683098967E+02 -0.47178285510E+00 -0.16186761753E+03  0.16642635106E+03  0.00000000000E+00 0. -1.
         -5    1    5    5    0  502 -0.14093503075E+02  0.60508519528E+02  0.63790598944E+02  0.89169716149E+02  0.47000000000E+01 0.  1.
         13    1    6    6    0    0 -0.10987387744E+02 -0.84121374239E+01 -0.29026794018E+02  0.32156515925E+02  0.00000000000E+00 0. -1.
        -14    1    6    6    0    0  0.66186018990E+02 -0.75860802669E+01  0.13510584563E+02  0.67975536914E+02  0.00000000000E+00 0.  1.
</event>
<event>
12    1  0.8684423E-002  0.1757828E+03  0.7818608E-02  0.1172065E+00
         21   -1    0    0  503  502  0.00000000000E+00  0.00000000000E+00  0.54908298236E+02  0.54908298236E+02  0.00000000000E+00 0. -1.
         21   -1    0    0  501  503 -0.00000000000E+00 -0.00000000000E+00 -0.62849181084E+03  0.62849181084E+03  0.00000000000E+00 0. -1.
          6    2    1    2  501    0 -0.38668812819E+02 -0.18940530618E+02 -0.17536930252E+03  0.24830221611E+03  0.17042763119E+03 0.  0.
         24    2    3    3    0    0 -0.44307423213E+02 -0.33387786020E+02 -0.19770821531E+03  0.22070449628E+03  0.80895267289E+02 0.  0.
         -6    2    1    2    0  502  0.38668812819E+02  0.18940530618E+02 -0.39821421008E+03  0.43509789297E+03  0.16994586952E+03 0.  0.
        -24    2    5    5    0    0 -0.65408574671E+01  0.13099883510E+02 -0.37376392056E+03  0.38315625164E+03  0.83035264142E+02 0.  0.
          5    1    3    3  501    0  0.56386103942E+01  0.14447255402E+02  0.22338912784E+02  0.27597719837E+02  0.47000000000E+01 0. -1.
        -11    1    4    4    0    0  0.11020498673E+01 -0.46175301553E+02 -0.13175045340E+03  0.13961215906E+03  0.00000000000E+00 0.  1.
         12    1    4    4    0    0 -0.45409473080E+02  0.12787515533E+02 -0.65957761910E+02  0.81092337216E+02  0.00000000000E+00 0. -1.
         -5    1    5    5    0  502  0.45209670286E+02  0.58406471075E+01 -0.24450289520E+02  0.51941641325E+02  0.47000000000E+01 0.  1.
         13    1    6    6    0    0  0.32200935127E+02  0.22561523304E+02 -0.25143789521E+03  0.25449349246E+03  0.00000000000E+00 0. -1.
        -14    1    6    6    0    0 -0.38741792594E+02 -0.94616397936E+01 -0.12232602535E+03  0.12866275918E+03  0.00000000000E+00 0.  1.
</event>
<event>
12    1  0.8684423E-002  0.1778694E+03  0.7818608E-02  0.1169961E+00
         21   -1    0    0  501  502  0.00000000000E+00  0.00000000000E+00  0.10212551659E+03  0.10212551659E+03  0.00000000000E+00 0.  1.
         21   -1    0    0  502  503 -0.00000000000E+00 -0.00000000000E+00 -0.42618867850E+03  0.42618867850E+03  0.00000000000E+00 0.  1.
         -6    2    1    2    0  503  0.43453259789E+02  0.14651184425E+02 -0.30052160904E+03  0.34921447780E+03  0.17185654195E+03 0.  0.
        -24    2    3    3    0    0  0.87528203303E+02  0.41301068565E+02 -0.22423198810E+03  0.25704608173E+03  0.80160707382E+02 0.  0.
          6    2    1    2  501    0 -0.43453259789E+02 -0.14651184425E+02 -0.23541552871E+02  0.17909971730E+03  0.17152160515E+03 0.  0.
         24    2    5    5    0    0  0.67995474990E+01  0.44217445782E+02  0.13227880940E+02  0.93280479796E+02  0.80776572836E+02 0.  0.
          5    1    5    5  501    0 -0.50252807288E+02 -0.58868630207E+02 -0.36769433811E+02  0.85819237503E+02  0.47000000000E+01 0. -1.
        -13    1    6    6    0    0 -0.15761430552E+02  0.46843361037E+02  0.35978649012E+02  0.61132531037E+02  0.00000000000E+00 0.  1.
         14    1    6    6    0    0  0.22560978051E+02 -0.26259152554E+01 -0.22750768072E+02  0.32147948759E+02  0.00000000000E+00 0. -1.
         -5    1    3    3    0  503 -0.44074943513E+02 -0.26649884140E+02 -0.76289620939E+02  0.92168396066E+02  0.47000000000E+01 0.  1.
         11    1    4    4    0    0  0.90164782824E+01  0.26314919638E+02 -0.12061073969E+02  0.30318993741E+02  0.00000000000E+00 0. -1.
        -12    1    4    4    0    0  0.78511725020E+02  0.14986148928E+02 -0.21217091413E+03  0.22672708799E+03  0.00000000000E+00 0.  1.
</event>
<event>
12    1  0.8684423E-002  0.1773614E+03  0.7818608E-02  0.1170459E+00
         21   -1    0    0  503  502  0.00000000000E+00  0.00000000000E+00  0.12953822308E+04  0.12953822308E+04  0.00000000000E+00 0. -1.
         21   -1    0    0  501  503 -0.00000000000E+00 -0.00000000000E+00 -0.37777778925E+02  0.37777778925E+02  0.00000000000E+00 0. -1.
          6    2    1    2  501    0 -0.42795920382E+02  0.79708281700E+01  0.22942215954E+03  0.28979244404E+03  0.17161033895E+03 0.  0.
         24    2    3    3    0    0 -0.88612075990E+02  0.13128691517E+02  0.20456665218E+03  0.23720337755E+03  0.79959143207E+02 0.  0.
         -6    2    1    2    0  502  0.42795920382E+02 -0.79708281700E+01  0.10281822923E+04  0.10433675656E+04  0.17193611005E+03 0.  0.
        -24    2    5    5    0    0  0.76811797034E+02  0.22875122869E+02  0.45553169197E+03  0.46885964349E+03  0.76791402482E+02 0.  0.
          5    1    3    3  501    0  0.45816155608E+02 -0.51578633475E+01  0.24855507356E+02  0.52589066496E+02  0.47000000000E+01 0. -1.
        -13    1    4    4    0    0  0.50705755836E+01  0.22405751574E+02  0.64239409771E+02  0.68223384613E+02  0.00000000000E+00 0.  1.
         14    1    4    4    0    0 -0.93682651574E+02 -0.92770600568E+01  0.14032724241E+03  0.16897999293E+03  0.00000000000E+00 0. -1.
         -5    1    5    5    0  502 -0.34015876652E+02 -0.30845951039E+02  0.57265060034E+03  0.57450792216E+03  0.47000000000E+01 0.  1.
         11    1    6    6    0    0  0.22795754991E+02  0.17699606314E+02  0.33996144733E+03  0.34118427306E+03  0.00000000000E+00 0. -1.
        -12    1    6    6    0    0  0.54016042043E+02  0.51755165556E+01  0.11557024463E+03  0.12767537043E+03  0.00000000000E+00 0.  1.
</event>
<event>
12    1  0.8684423E-002  0.1807994E+03  0.7818608E-02  0.1167362E+00
         21   -1    0    0  503  502  0.00000000000E+00  0.00000000000E+00  0.72023974293E+02  0.72023974293E+02  0.00000000000E+00 0. -1.
         21   -1    0    0  501  503 -0.00000000000E+00 -0.00000000000E+00 -0.64125568955E+03  0.64125568955E+03  0.00000000000E+00 0. -1.
          6    2    1    2  501    0  0.49320291566E+02  0.25739473735E+02 -0.47840881914E+03  0.51095020351E+03  0.17058751587E+03 0.  0.
         24    2    3    3    0    0 -0.18956717886E+02 -0.19805684946E+02 -0.33982896106E+03  0.34982112927E+03  0.78354817360E+02 0.  0.
         -6    2    1    2    0  502 -0.49320291566E+02 -0.25739473735E+02 -0.90822896116E+02  0.20232946033E+03  0.17202732454E+03 0.  0.
        -24    2    5    5    0    0 -0.58003227880E+02  0.43528318658E+02 -0.71633793388E+02  0.12977787792E+03  0.80323149051E+02 0.  0.
          5    1    3    3  501    0  0.68277009451E+02  0.45545158681E+02 -0.13857985808E+03  0.16112907424E+03  0.47000000000E+01 0. -1.
        -11    1    4    4    0    0 -0.47759972058E+02 -0.44550016198E+01 -0.24147468450E+03  0.24619278061E+03  0.00000000000E+00 0.  1.
         12    1    4    4    0    0  0.28803254172E+02 -0.15350683326E+02 -0.98354276558E+02  0.10362834866E+03  0.00000000000E+00 0. -1.
         -5    1    5    5    0  502  0.86829363138E+01 -0.69267792393E+02 -0.19189102728E+02  0.72551582406E+02  0.47000000000E+01 0.  1.
         11    1    6    6    0    0 -0.50027926543E+02  0.98960825266E+01 -0.84868040105E+00  0.51004373753E+02  0.00000000000E+00 0. -1.
        -12    1    6    6    0    0 -0.79753013367E+01  0.33632236132E+02 -0.70785112987E+02  0.78773504170E+02  0.00000000000E+00 0.  1.
</event>
<event>
12    1  0.8684423E-002  0.1885495E+03  0.7818608E-02  0.1160402E+00
         21   -1    0    0  503  502  0.00000000000E+00  0.00000000000E+00  0.21520102157E+04  0.21520102157E+04  0.00000000000E+00 0. -1.
         21   -1    0    0  501  503 -0.00000000000E+00 -0.00000000000E+00 -0.32345425950E+02  0.32345425950E+02  0.00000000000E+00 0.  1.
          6    2    1    2  501    0  0.42875025860E+02  0.57946700722E+02  0.29405296150E+03  0.34931083361E+03  0.17422636524E+03 0.  0.
         24    2    3    3    0    0  0.43346542798E+02  0.10467373472E+03  0.24550109993E+03  0.28176076850E+03  0.79264286319E+02 0.  0.
         -6    2    1    2    0  502 -0.42875025860E+02 -0.57946700722E+02  0.18256118282E+04  0.18350448080E+04  0.17127408473E+03 0.  0.
        -24    2    5    5    0    0  0.23768872388E+02 -0.44887989537E+02  0.14478632620E+04  0.14512114999E+04  0.84420975914E+02 0.  0.
          5    1    3    3  501    0 -0.47151693811E+00 -0.46727034000E+02  0.48551861575E+02  0.67550065115E+02  0.47000000000E+01 0. -1.
        -11    1    4    4    0    0  0.12272805395E+02  0.93023988620E+01 -0.12010346059E+01  0.15446645622E+02  0.00000000000E+00 0.  1.
         12    1    4    4    0    0  0.31073737404E+02  0.95371335860E+02  0.24670213453E+03  0.26631412287E+03  0.00000000000E+00 0. -1.
         -5    1    5    5    0  502 -0.66643898248E+02 -0.13058711185E+02  0.37774856621E+03  0.38383330807E+03  0.47000000000E+01 0.  1.
         11    1    6    6    0    0  0.17915378584E+02 -0.22668445839E+02  0.13626021827E+04  0.13629084810E+04  0.00000000000E+00 0. -1.
        -12    1    6    6    0    0  0.58534938035E+01 -0.22219543698E+02  0.85261079271E+02  0.88303018919E+02  0.00000000000E+00 0.  1.
</event>
<event>
12    1  0.8684423E-002  0.2517197E+03  0.7818608E-02  0.1112692E+00
         21   -1    0    0  501  502  0.00000000000E+00  0.00000000000E+00  0.58685057837E+03  0.58685057837E+03  0.00000000000E+00 0. -1.
         21   -1    0    0  502  503 -0.00000000000E+00 -0.00000000000E+00 -0.15095379267E+03  0.15095379267E+03  0.00000000000E+00 0.  1.
         -6    2    1    2    0  503  0.16867913001E+03  0.62951851253E+02  0.19120438326E+02  0.25244487341E+03  0.17591827213E+03 0.  0.
        -24    2    3    3    0    0  0.12368848385E+03 -0.21978081875E+02  0.44283813444E+02  0.15298363860E+03  0.75240018764E+02 0.  0.
          6    2    1    2  501    0 -0.16867913001E+03 -0.62951851253E+02  0.41677634738E+03  0.48535949764E+03  0.17162672791E+03 0.  0.
         24    2    5    5    0    0 -0.18393363509E+03 -0.19526174458E+02  0.35415840094E+03  0.40750330619E+03  0.80111909195E+02 0.  0.
          5    1    5    5  501    0  0.15254505074E+02 -0.43425676795E+02  0.62617946440E+02  0.77856191446E+02  0.47000000000E+01 0. -1.
        -13    1    6    6    0    0 -0.62390730334E+02 -0.44872374865E+02  0.12085963898E+03  0.14322424932E+03  0.00000000000E+00 0.  1.
         14    1    6    6    0    0 -0.12154290475E+03  0.25346200407E+02  0.23329876196E+03  0.26427905687E+03  0.00000000000E+00 0. -1.
         -5    1    3    3    0  503  0.44990646160E+02  0.84929933128E+02 -0.25163375118E+02  0.99461234812E+02  0.47000000000E+01 0.  1.
         11    1    4    4    0    0  0.15742553978E+02 -0.13395802456E+02  0.39511625721E+02  0.44591973452E+02  0.00000000000E+00 0. -1.
        -12    1    4    4    0    0  0.10794592988E+03 -0.85822794192E+01  0.47721877231E+01  0.10839166514E+03  0.00000000000E+00 0.  1.
</event>
<event>
12    1  0.8684423E-002  0.2204271E+03  0.7818608E-02  0.1133589E+00
         21   -1    0    0  503  502  0.00000000000E+00  0.00000000000E+00  0.10825134938E+04  0.10825134938E+04  0.00000000000E+00 0.  1.
         21   -1    0    0  501  503 -0.00000000000E+00 -0.00000000000E+00 -0.14233415108E+03  0.14233415108E+03  0.00000000000E+00 0.  1.
          6    2    1    2  501    0 -0.99368627181E+02 -0.95458634314E+02 -0.36678404511E+02  0.22345785670E+03  0.17205125234E+03 0.  0.
         24    2    3    3    0    0 -0.22219947736E+02 -0.86443093676E+02  0.27785448617E+02  0.12240897213E+03  0.79030315588E+02 0.  0.
         -6    2    1    2    0  502  0.99368627181E+02  0.95458634314E+02  0.97685774724E+03  0.10013897882E+04  0.17188360768E+03 0.  0.
        -24    2    5    5    0    0  0.30236420541E+02  0.11214742430E+03  0.76657732385E+03  0.77935888004E+03  0.79171867181E+02 0.  0.
          5    1    3    3  501    0 -0.77148679445E+02 -0.90155406379E+01 -0.64463853128E+02  0.10104888457E+03  0.47000000000E+01 0. -1.
        -11    1    4    4    0    0 -0.37787475669E+02 -0.56304499719E+02 -0.13329379553E+02  0.69106890867E+02  0.00000000000E+00 0.  1.
         12    1    4    4    0    0  0.15567527933E+02 -0.30138593957E+02  0.41114828171E+02  0.53302081265E+02  0.00000000000E+00 0. -1.
         -5    1    5    5    0  502  0.69132206641E+02 -0.16688789990E+02  0.21028042338E+03  0.22203090813E+03  0.47000000000E+01 0.  1.
         11    1    6    6    0    0 -0.21909735093E+02  0.65331688738E+02  0.32182481911E+03  0.32911924927E+03  0.00000000000E+00 0. -1.
        -12    1    6    6    0    0  0.52146155634E+02  0.46815735567E+02  0.44475250474E+03  0.45023963077E+03  0.00000000000E+00 0.  1.
</event>
<event>
12    1  0.8684423E-002  0.2414432E+03  0.7818608E-02  0.1118860E+00
         21   -1    0    0  501  502  0.00000000000E+00  0.00000000000E+00  0.77563926966E+02  0.77563926966E+02  0.00000000000E+00 0.  1.
         21   -1    0    0  502  503 -0.00000000000E+00 -0.00000000000E+00 -0.95973162845E+03  0.95973162845E+03  0.00000000000E+00 0. -1.
         -6    2    1    2    0  503  0.81504516886E+02 -0.14892320517E+03 -0.68279298932E+03  0.72417401132E+03  0.17146610480E+03 0.  0.
        -24    2    3    3    0    0  0.10138379266E+03 -0.52945960605E+02 -0.30364149249E+03  0.33253034084E+03  0.72775843910E+02 0.  0.
          6    2    1    2  501    0 -0.81504516886E+02  0.14892320517E+03 -0.19937471216E+03  0.31312154409E+03  0.17167911409E+03 0.  0.
         24    2    5    5    0    0  0.19383925858E+02  0.81545676554E+02 -0.70743238315E+02  0.13624205035E+03  0.80819902069E+02 0.  0.
          5    1    5    5  501    0 -0.10088844274E+03  0.67377528617E+02 -0.12863147384E+03  0.17687949374E+03  0.47000000000E+01 0. -1.
        -13    1    6    6    0    0  0.32040392485E+02 -0.14353717432E+01 -0.14480751067E+02  0.35190043963E+02  0.00000000000E+00 0.  1.
         14    1    6    6    0    0 -0.12656466627E+02  0.82981048297E+02 -0.56262487247E+02  0.10105200639E+03  0.00000000000E+00 0. -1.
         -5    1    3    3    0  503 -0.19879275779E+02 -0.95977244566E+02 -0.37915149683E+03  0.39164367048E+03  0.47000000000E+01 0.  1.
         13    1    4    4    0    0  0.10206712410E+03 -0.65451162380E+02 -0.28806991647E+03  0.31254732322E+03  0.00000000000E+00 0. -1.
        -14    1    4    4    0    0 -0.68333143233E+00  0.12505201775E+02 -0.15571576019E+02  0.19983017615E+02  0.00000000000E+00 0.  1.
</event>
<event>
12    1  0.8684423E-002  0.1824836E+03  0.7818608E-02  0.1165632E+00
         21   -1    0    0  503  502  0.00000000000E+00  0.00000000000E+00  0.23085774164E+03  0.23085774164E+03  0.00000000000E+00 0.  1.
         21   -1    0    0  501  503 -0.00000000000E+00 -0.00000000000E+00 -0.15912990991E+03  0.15912990991E+03  0.00000000000E+00 0.  1.
          6    2    1    2  501    0 -0.12508980904E+02 -0.58702297126E+02 -0.25238341244E+02  0.18334135912E+03  0.17139033171E+03 0.  0.
         24    2    3    3    0    0 -0.14622377124E+01  0.21269524385E+02  0.26792392621E+02  0.87181024066E+02  0.80175855768E+02 0.  0.
         -6    2    1    2    0  502  0.12508980904E+02  0.58702297126E+02  0.96966172969E+02  0.20664629243E+03  0.17233054629E+03 0.  0.
        -24    2    5    5    0    0  0.61659151375E+02  0.79082333436E+02  0.76341392817E+02  0.14938761017E+03  0.80204634570E+02 0.  0.
          5    1    3    3  501    0 -0.11046743192E+02 -0.79971821510E+02 -0.52030733865E+02  0.96160335052E+02  0.47000000000E+01 0. -1.
        -11    1    4    4    0    0 -0.26765396050E+02 -0.25997982794E+01  0.41470356145E+02  0.49426064133E+02  0.00000000000E+00 0.  1.
         12    1    4    4    0    0  0.25303158338E+02  0.23869322664E+02 -0.14677963525E+02  0.37754959933E+02  0.00000000000E+00 0. -1.
         -5    1    5    5    0  502 -0.49150170470E+02 -0.20380036310E+02  0.20624780152E+02  0.57258682255E+02  0.47000000000E+01 0.  1.
         11    1    6    6    0    0 -0.15702040044E+02  0.13652339616E+02 -0.25670119719E+01  0.20964970522E+02  0.00000000000E+00 0. -1.
        -12    1    6    6    0    0  0.77361191418E+02  0.65429993819E+02  0.78908404789E+02  0.12842263965E+03  0.00000000000E+00 0.  1.
</event>
<event>
12    1  0.8684423E-002  0.2116075E+03  0.7818608E-02  0.1140552E+00
         21   -1    0    0  501  502  0.00000000000E+00  0.00000000000E+00  0.49688207308E+03  0.49688207308E+03  0.00000000000E+00 0. -1.
         21   -1    0    0  502  503 -0.00000000000E+00 -0.00000000000E+00 -0.92338085168E+02  0.92338085168E+02  0.00000000000E+00 0. -1.
         -6    2    1    2    0  503 -0.11080448451E+03 -0.55155970855E+02  0.25386063703E+03  0.33048893741E+03  0.17163303821E+03 0.  0.
        -24    2    3    3    0    0 -0.68963520506E+02  0.35837482332E+02  0.14735806401E+03  0.18421739933E+03  0.78621618439E+02 0.  0.
          6    2    1    2  501    0  0.11080448451E+03  0.55155970855E+02  0.15068335088E+03  0.25873122084E+03  0.17004869154E+03 0.  0.
         24    2    5    5    0    0  0.14309141751E+03  0.66103895449E+02  0.13021014630E+03  0.21868693034E+03  0.77617089247E+02 0.  0.
          5    1    5    5  501    0 -0.32286933002E+02 -0.10947924594E+02  0.20473204576E+02  0.40044290495E+02  0.47000000000E+01 0. -1.
        -11    1    6    6    0    0  0.15118447678E+02  0.36974337495E+02  0.11122552886E+02  0.41465410598E+02  0.00000000000E+00 0.  1.
         12    1    6    6    0    0  0.12797296984E+03  0.29129557955E+02  0.11908759341E+03  0.17722151974E+03  0.00000000000E+00 0. -1.
         -5    1    3    3    0  503 -0.41840964005E+02 -0.90993453187E+02  0.10650257302E+03  0.14627153808E+03  0.47000000000E+01 0.  1.
         13    1    4    4    0    0 -0.38843192913E+02  0.50538948979E+02  0.13352343981E+03  0.14795772362E+03  0.00000000000E+00 0. -1.
        -14    1    4    4    0    0 -0.30120327593E+02 -0.14701466647E+02  0.13834624203E+02  0.36259675712E+02  0.00000000000E+00 0.  1.
</event>
<event>
12    1  0.8684423E-002  0.2242109E+03  0.7818608E-02  0.1130904E+00
         21   -1    0    0  503  502  0.00000000000E+00  0.00000000000E+00  0.60392875424E+03  0.60392875424E+03  0.00000000000E+00 0. -1.
         21   -1    0    0  501  503 -0.00000000000E+00 -0.00000000000E+00 -0.16763675153E+03  0.16763675153E+03  0.00000000000E+00 0. -1.
          6    2    1    2  501    0  0.30486793276E+02 -0.13946269170E+03 -0.56147161173E+02  0.23048615434E+03  0.17202347716E+03 0.  0.
         24    2    3    3    0    0  0.24311553594E+01 -0.14705369664E+03  0.57959825717E+01  0.16190200726E+03  0.67438611545E+02 0.  0.
         -6    2    1    2    0  502 -0.30486793276E+02  0.13946269170E+03  0.49243916388E+03  0.54107935143E+03  0.17289085423E+03 0.  0.
        -24    2    5    5    0    0  0.50121697712E+02  0.68693363487E+02  0.26582968379E+03  0.29032055676E+03  0.79935237077E+02 0.  0.
          5    1    3    3  501    0  0.28055637917E+02  0.75910049397E+01 -0.61943143745E+02  0.68584147089E+02  0.47000000000E+01 0. -1.
        -13    1    4    4    0    0  0.28719360025E+02 -0.12250567708E+03  0.49502381012E+01  0.12592437181E+03  0.00000000000E+00 0.  1.
         14    1    4    4    0    0 -0.26288204666E+02 -0.24548019561E+02  0.84574447051E+00  0.35977635451E+02  0.00000000000E+00 0. -1.
         -5    1    5    5    0  502 -0.80608490988E+02  0.70769328215E+02  0.22660948009E+03  0.25075879467E+03  0.47000000000E+01 0.  1.
         13    1    6    6    0    0  0.53411461403E+01  0.58080351521E+02  0.21009798960E+03  0.21804362019E+03  0.00000000000E+00 0. -1.
        -14    1    6    6    0    0  0.44780551571E+02  0.10613011966E+02  0.55731694191E+02  0.72276936566E+02  0.00000000000E+00 0.  1.
</event>
<event>
12    1  0.8684423E-002  0.1798280E+03  0.7818608E-02  0.1168013E+00
         21   -1    0    0  503  502  0.00000000000E+00  0.00000000000E+00  0.53379542177E+02  0.53379542177E+02  0.00000000000E+00 0. -1.
         21   -1    0    0  501  503 -0.00000000000E+00 -0.00000000000E+00 -0.64409983889E+03  0.64409983889E+03  0.00000000000E+00 0. -1.
          6    2    1    2  501    0  0.10576643637E+02 -0.52582704524E+02 -0.38119781218E+03  0.42148533214E+03  0.17164296372E+03 0.  0.
         24    2    3    3    0    0  0.44581320605E+02 -0.77851655403E+01 -0.76384311262E+02  0.11149098075E+03  0.67435694051E+02 0.  0.
         -6    2    1    2    0  502 -0.10576643637E+02  0.52582704524E+02 -0.20952248454E+03  0.27599404893E+03  0.17145330942E+03 0.  0.
        -24    2    5    5    0    0  0.10586194738E+02  0.96688618323E+02 -0.11958765984E+03  0.17350717146E+03  0.79641532689E+02 0.  0.
          5    1    3    3  501    0 -0.34004676968E+02 -0.44797538983E+02 -0.30481350092E+03  0.30999435139E+03  0.47000000000E+01 0. -1.
        -11    1    4    4    0    0  0.29961077731E+02  0.11221331670E+02 -0.80984039927E+02  0.87074675917E+02  0.00000000000E+00 0.  1.
         12    1    4    4    0    0  0.14620242874E+02 -0.19006497210E+02  0.45997286643E+01  0.24416304832E+02  0.00000000000E+00 0. -1.
         -5    1    5    5    0  502 -0.21162838375E+02 -0.44105913799E+02 -0.89934824695E+02  0.10248687747E+03  0.47000000000E+01 0.  1.
         13    1    6    6    0    0  0.32418191620E+02  0.73318228000E+02 -0.11644510795E+03  0.14137172586E+03  0.00000000000E+00 0. -1.
        -14    1    6    6    0    0 -0.21831996882E+02  0.23370390323E+02 -0.31425518865E+01  0.32135445602E+02  0.00000000000E+00 0.  1.
</event>
<event>
12    1  0.8684423E-002  0.2242455E+03  0.7818608E-02  0.1130865E+00
         21   -1    0    0  503  502  0.00000000000E+00  0.00000000000E+00  0.13973691278E+04  0.13973691278E+04  0.00000000000E+00 0.  1.
         21   -1    0    0  501  503 -0.00000000000E+00 -0.00000000000E+00 -0.12649336613E+03  0.12649336613E+03  0.00000000000E+00 0.  1.
          6    2    1    2  501    0  0.10992269036E+03  0.92160992391E+02 -0.91627475704E+01  0.22443262649E+03  0.17236415380E+03 0.  0.
         24    2    3    3    0    0  0.10272608934E+03  0.11440185492E+03 -0.47456410417E+02  0.17932229900E+03  0.79145070544E+02 0.  0.
         -6    2    1    2    0  502 -0.10992269036E+03 -0.92160992391E+02  0.12800385093E+04  0.12994298675E+04  0.17158889501E+03 0.  0.
        -24    2    5    5    0    0 -0.14147015190E+02 -0.31826855356E+02  0.44371054874E+03  0.45546320012E+03  0.96719123421E+02 0.  0.
          5    1    3    3  501    0  0.71966010291E+01 -0.22240862524E+02  0.38293662847E+02  0.45110327492E+02  0.47000000000E+01 0. -1.
        -13    1    4    4    0    0  0.19576394614E+01  0.22947075882E+02 -0.36029912460E+02  0.42761609367E+02  0.00000000000E+00 0.  1.
         14    1    4    4    0    0  0.10076844987E+03  0.91454779034E+02 -0.11426497958E+02  0.13656068964E+03  0.00000000000E+00 0. -1.
         -5    1    5    5    0  502 -0.95775675175E+02 -0.60334137035E+02  0.83632796051E+03  0.84396666734E+03  0.47000000000E+01 0.  1.
         13    1    6    6    0    0 -0.23760004008E+02  0.17876013902E+02  0.32567698837E+03  0.32703148231E+03  0.00000000000E+00 0. -1.
        -14    1    6    6    0    0  0.96129888184E+01 -0.49702869258E+02  0.11803356037E+03  0.12843171781E+03  0.00000000000E+00 0.  1.
</event>
<event>
12    1  0.8684423E-002  0.2295247E+03  0.7818608E-02  0.1127051E+00
         21   -1    0    0  503  502  0.00000000000E+00  0.00000000000E+00  0.64173678768E+03  0.64173678768E+03  0.00000000000E+00 0. -1.
         21   -1    0    0  501  503 -0.00000000000E+00 -0.00000000000E+00 -0.15327564263E+03  0.15327564263E+03  0.00000000000E+00 0. -1.
          6    2    1    2  501    0  0.12927832178E+03 -0.78213782807E+02 -0.26832320986E+02  0.23108781450E+03  0.17277535779E+03 0.  0.
         24    2    3    3    0    0  0.53376446286E+02 -0.11285184390E+03 -0.51037863943E+02  0.14408845652E+03  0.50715244806E+02 0.  0.
         -6    2    1    2    0  502 -0.12927832178E+03  0.78213782807E+02  0.51529346604E+03  0.56392461582E+03  0.17220143983E+03 0.  0.
        -24    2    5    5    0    0 -0.94535880804E+02  0.75544305699E+02  0.21312668416E+03  0.25971906461E+03  0.85947857097E+02 0.  0.
          5    1    3    3  501    0  0.75901875493E+02  0.34638061094E+02  0.24205542957E+02  0.86999357984E+02  0.47000000000E+01 0. -1.
        -11    1    4    4    0    0 -0.26233292620E+01 -0.46335065068E+02 -0.27750267599E+02  0.54073075213E+02  0.00000000000E+00 0.  1.
         12    1    4    4    0    0  0.55999775548E+02 -0.66516778833E+02 -0.23287596344E+02  0.90015381304E+02  0.00000000000E+00 0. -1.
         -5    1    5    5    0  502 -0.34742440975E+02  0.26694771076E+01  0.30216678188E+03  0.30420555121E+03  0.47000000000E+01 0.  1.
         13    1    6    6    0    0 -0.91482217693E+02  0.34401201756E+02  0.18666960134E+03  0.21070827915E+03  0.00000000000E+00 0. -1.
        -14    1    6    6    0    0 -0.30536631116E+01  0.41143103943E+02  0.26457082810E+02  0.49010785459E+02  0.00000000000E+00 0.  1.
</event>
<event>
12    1  0.8684423E-002  0.2124302E+03  0.7818608E-02  0.1140190E+00
         21   -1    0    0  501  502  0.00000000000E+00  0.00000000000E+00  0.42315145508E+02  0.42315145508E+02  0.00000000000E+00 0. -1.
         21   -1    0    0  502  503 -0.00000000000E+00 -0.00000000000E+00 -0.15613580140E+04  0.15613580140E+04  0.00000000000E+00 0. -1.
         -6    2    1    2    0  503 -0.49625525002E+02 -0.11085494833E+03 -0.12138222316E+04  0.12318046159E+04  0.17095815106E+03 0.  0.
        -24    2    3    3    0    0 -0.86142622700E+01 -0.13840072217E+03 -0.94684168043E+03  0.96025094155E+03  0.79647583314E+02 0.  0.
          6    2    1    2  501    0  0.49625525002E+02  0.11085494833E+03 -0.30522063689E+03  0.37186854365E+03  0.17428443497E+03 0.  0.
         24    2    5    5    0    0  0.10055268283E+03  0.94013509288E+02 -0.23313970508E+03  0.28189654688E+03  0.78499421043E+02 0.  0.
          5    1    5    5  501    0 -0.50927157824E+02  0.16841439044E+02 -0.72080931802E+02  0.89971996769E+02  0.47000000000E+01 0. -1.
        -11    1    6    6    0    0  0.22399493662E+02  0.62631827839E+02 -0.14739887453E+03  0.16171243424E+03  0.00000000000E+00 0.  1.
         12    1    6    6    0    0  0.78153189164E+02  0.31381681449E+02 -0.85740830552E+02  0.12018411264E+03  0.00000000000E+00 0. -1.
         -5    1    3    3    0  503 -0.41011262732E+02  0.27545773842E+02 -0.26698055118E+03  0.27155367432E+03  0.47000000000E+01 0.  1.
         13    1    4    4    0    0  0.32786689157E+02 -0.76782055148E+02 -0.57949610221E+03  0.58547944751E+03  0.00000000000E+00 0. -1.
        -14    1    4    4    0    0 -0.41400951427E+02 -0.61618667027E+02 -0.36734557822E+03  0.37477149404E+03  0.00000000000E+00 0.  1.
</event>
<event>
12    1  0.8684423E-002  0.2634366E+03  0.7818608E-02  0.1105334E+00
         21   -1    0    0  501  502  0.00000000000E+00  0.00000000000E+00  0.15513266519E+03  0.15513266519E+03  0.00000000000E+00 0. -1.
         21   -1    0    0  502  503 -0.00000000000E+00 -0.00000000000E+00 -0.44600509378E+03  0.44600509378E+03  0.00000000000E+00 0. -1.
         -6    2    1    2    0  503  0.19702875052E+03 -0.21585185844E+02 -0.16256713042E+03  0.30955921192E+03  0.17352978135E+03 0.  0.
        -24    2    3    3    0    0  0.16895018214E+03 -0.57419823322E+02 -0.17506440337E+03  0.26211662476E+03  0.78844020021E+02 0.  0.
          6    2    1    2  501    0 -0.19702875052E+03  0.21585185844E+02 -0.12830529818E+03  0.29157854705E+03  0.17108346146E+03 0.  0.
         24    2    5    5    0    0 -0.17238938765E+03 -0.38358996724E+02 -0.11363524659E+03  0.22496245561E+03  0.80657445791E+02 0.  0.
          5    1    5    5  501    0 -0.24639362865E+02  0.59944182568E+02 -0.14670051589E+02  0.66616091448E+02  0.47000000000E+01 0. -1.
        -13    1    6    6    0    0 -0.92130870866E+02 -0.11859760403E+02 -0.13405830773E+02  0.93853436709E+02  0.00000000000E+00 0.  1.
         14    1    6    6    0    0 -0.80258516786E+02 -0.26499236321E+02 -0.10022941581E+03  0.13110901890E+03  0.00000000000E+00 0. -1.
         -5    1    3    3    0  503  0.28078568378E+02  0.35834637478E+02  0.12497272954E+02  0.47442587162E+02  0.47000000000E+01 0.  1.
         13    1    4    4    0    0  0.99707801732E+02 -0.73523012614E+02 -0.11542721177E+03  0.16932430519E+03  0.00000000000E+00 0. -1.
        -14    1    4    4    0    0  0.69242380406E+02  0.16103189292E+02 -0.59637191600E+02  0.92792319572E+02  0.00000000000E+00 0.  1.
</event>
<event>
12    1  0.8684423E-002  0.3044943E+03  0.7818608E-02  0.1083049E+00
         21   -1    0    0  503  502  0.00000000000E+00  0.00000000000E+00  0.10465280414E+04  0.10465280414E+04  0.00000000000E+00 0. -1.
         21   -1    0    0  501  503 -0.00000000000E+00 -0.00000000000E+00 -0.11604758291E+03  0.11604758291E+03  0.00000000000E+00 0.  1.
          6    2    1    2  501    0 -0.21850217212E+03 -0.12355857370E+03  0.18193348102E+03  0.35446713237E+03  0.17186400456E+03 0.  0.
         24    2    3    3    0    0 -0.20000862695E+03 -0.55107111638E+02  0.17523925182E+03  0.28309125006E+03  0.79947582066E+02 0.  0.
         -6    2    1    2    0  502  0.21850217212E+03  0.12355857370E+03  0.74854697743E+03  0.80810849189E+03  0.17235671409E+03 0.  0.
        -24    2    5    5    0    0  0.10345238930E+03  0.12854854664E+03  0.53105309015E+03  0.56196415748E+03  0.80988913086E+02 0.  0.
          5    1    3    3  501    0 -0.18493545173E+02 -0.68451462058E+02  0.66942291986E+01  0.71375882310E+02  0.47000000000E+01 0. -1.
        -11    1    4    4    0    0 -0.12533789398E+03  0.40403091250E+01  0.82246142519E+02  0.14996779562E+03  0.00000000000E+00 0.  1.
         12    1    4    4    0    0 -0.74670732970E+02 -0.59147420763E+02  0.92993109302E+02  0.13312345444E+03  0.00000000000E+00 0. -1.
         -5    1    5    5    0  502  0.11504978282E+03 -0.49899729452E+01  0.21749388728E+03  0.24614433441E+03  0.47000000000E+01 0.  1.
         13    1    6    6    0    0  0.83639900935E+02  0.11511601210E+03  0.32839694033E+03  0.35789925913E+03  0.00000000000E+00 0. -1.
        -14    1    6    6    0    0  0.19812488370E+02  0.13432534545E+02  0.20265614982E+03  0.20406489835E+03  0.00000000000E+00 0.  1.
</event>
<event>
12    1  0.8684423E-002  0.1942279E+03  0.7818608E-02  0.1156192E+00
         21   -1    0    0  503  502  0.00000000000E+00  0.00000000000E+00  0.25646447967E+03  0.25646447967E+03  0.00000000000E+00 0. -1.
         21   -1    0    0  501  503 -0.00000000000E+00 -0.00000000000E+00 -0.22508151381E+03  0.22508151381E+03  0.00000000000E+00 0. -1.
          6    2    1    2  501    0  0.88348138872E+02 -0.17337952985E+02 -0.13032939445E+03  0.23390220319E+03  0.17210023633E+03 0.  0.
         24    2    3    3    0    0  0.51985524092E+02  0.38334856692E+02 -0.13125203987E+03  0.16723404913E+03  0.81043650367E+02 0.  0.
         -6    2    1    2    0  502 -0.88348138872E+02  0.17337952985E+02  0.16171236031E+03  0.24764379029E+03  0.16453133785E+03 0.  0.
        -24    2    5    5    0    0 -0.68419849713E+02  0.59549142205E+02  0.16208555480E+03  0.20072737016E+03  0.76107646679E+02 0.  0.
          5    1    3    3  501    0  0.36362614779E+02 -0.55672809677E+02  0.92264542578E+00  0.66668154058E+02  0.47000000000E+01 0. -1.
        -13    1    4    4    0    0 -0.11045087173E+02  0.10271566989E+02 -0.79677757958E+02  0.81092811964E+02  0.00000000000E+00 0.  1.
         14    1    4    4    0    0  0.63030611265E+02  0.28063289703E+02 -0.51574281916E+02  0.86141237166E+02  0.00000000000E+00 0. -1.
         -5    1    5    5    0  502 -0.19928289158E+02 -0.42211189220E+02 -0.37319448691E+00  0.46916420135E+02  0.47000000000E+01 0.  1.
         11    1    6    6    0    0 -0.42384789014E+02  0.53924757028E+02  0.48356299870E+02  0.83920685754E+02  0.00000000000E+00 0. -1.
        -12    1    6    6    0    0 -0.26035060699E+02  0.56243851766E+01  0.11372925493E+03  0.11680668440E+03  0.00000000000E+00 0.  1.
</event>
<event>
12    1  0.8684423E-002  0.1856205E+03  0.7818608E-02  0.1162566E+00
         21   -1    0    0  503  502  0.00000000000E+00  0.00000000000E+00  0.29676757189E+03  0.29676757189E+03  0.00000000000E+00 0. -1.
         21   -1    0    0  501  503 -0.00000000000E+00 -0.00000000000E+00 -0.13282256219E+03  0.13282256219E+03  0.00000000000E+00 0. -1.
          6    2    1    2  501    0  0.68337504175E+02 -0.90182863961E+01  0.52606781603E+01  0.18569500633E+03  0.17234737212E+03 0.  0.
         24    2    3    3    0    0 -0.23058650392E+02  0.31082947198E+01  0.32525380857E+02  0.89436162313E+02  0.79997274175E+02 0.  0.
         -6    2    1    2    0  502 -0.68337504175E+02  0.90182863961E+01  0.15868433155E+03  0.24389512775E+03  0.17190919782E+03 0.  0.
        -24    2    5    5    0    0 -0.88390515312E+02 -0.42644256045E+02  0.12740045633E+03  0.18008358964E+03  0.81042008946E+02 0.  0.
          5    1    3    3  501    0  0.91396154566E+02 -0.12126581116E+02 -0.27264702697E+02  0.96258844021E+02  0.47000000000E+01 0. -1.
        -13    1    4    4    0    0 -0.22164112039E+02 -0.31138275970E+02 -0.50900527880E+01  0.38558380805E+02  0.00000000000E+00 0.  1.
         14    1    4    4    0    0 -0.89453835247E+00  0.34246570690E+02  0.37615433645E+02  0.50877781508E+02  0.00000000000E+00 0. -1.
         -5    1    5    5    0  502  0.20053011137E+02  0.51662542441E+02  0.31283875217E+02  0.63811538108E+02  0.47000000000E+01 0.  1.
         13    1    6    6    0    0 -0.14400007286E+02 -0.21435965946E+02  0.91645461950E+02  0.95214240226E+02  0.00000000000E+00 0. -1.
        -14    1    6    6    0    0 -0.73990508025E+02 -0.21208290099E+02  0.35754994378E+02  0.84869349413E+02  0.00000000000E+00 0.  1.
</event>
<event>
12    1  0.8684423E-002  0.2105585E+03  0.7818608E-02  0.1141177E+00
         21   -1    0    0  501  502  0.00000000000E+00  0.00000000000E+00  0.13812193458E+03  0.13812193458E+03  0.00000000000E+00 0.  1.
         21   -1    0    0  502  503 -0.00000000000E+00 -0.00000000000E+00 -0.32058942451E+03  0.32058942451E+03  0.00000000000E+00 0. -1.
         -6    2    1    2    0  503  0.10913606334E+03  0.52730684052E+02 -0.92777140437E+02  0.23009236220E+03  0.17217343579E+03 0.  0.
        -24    2    3    3    0    0  0.14185724151E+02 -0.24918609646E+02 -0.19347576507E+02  0.87057504272E+02  0.79890603058E+02 0.  0.
          6    2    1    2  501    0 -0.10913606334E+03 -0.52730684052E+02 -0.89690349492E+02  0.22861899690E+03  0.17184609856E+03 0.  0.
         24    2    5    5    0    0  0.42045838103E+01 -0.21247125579E+02 -0.35621188374E+01  0.82750978250E+02  0.79786695885E+02 0.  0.
          5    1    5    5  501    0 -0.11334064715E+03 -0.31483558473E+02 -0.86128230655E+02  0.14586801865E+03  0.47000000000E+01 0. -1.
        -13    1    6    6    0    0 -0.29404706434E+02 -0.35238423571E+02 -0.58881241824E+01  0.46271516753E+02  0.00000000000E+00 0.  1.
         14    1    6    6    0    0  0.33609290245E+02  0.13991297991E+02  0.23260053450E+01  0.36479461497E+02  0.00000000000E+00 0. -1.
         -5    1    3    3    0  503  0.94950339185E+02  0.77649293699E+02 -0.73429563930E+02  0.14303485793E+03  0.47000000000E+01 0.  1.
         13    1    4    4    0    0 -0.13471323993E+02  0.10711366854E+02 -0.35253772964E+02  0.39230580650E+02  0.00000000000E+00 0. -1.
        -14    1    4    4    0    0  0.27657048144E+02 -0.35629976500E+02  0.15906196456E+02  0.47826923622E+02  0.00000000000E+00 0.  1.
</event>
<event>
12    1  0.8684423E-002  0.4630162E+03  0.7818608E-02  0.1023938E+00
         21   -1    0    0  501  502  0.00000000000E+00  0.00000000000E+00  0.28726810028E+03  0.28726810028E+03  0.00000000000E+00 0. -1.
         21   -1    0    0  502  503 -0.00000000000E+00 -0.00000000000E+00 -0.74778547981E+03  0.74778547981E+03  0.00000000000E+00 0.  1.
         -6    2    1    2    0  503  0.24275802005E+03  0.35420847593E+03 -0.20251277969E+03  0.50500603177E+03  0.17211788247E+03 0.  0.
        -24    2    3    3    0    0  0.37780486406E+02  0.13919046318E+03 -0.78527273364E+02  0.18306965469E+03  0.80911158773E+02 0.  0.
          6    2    1    2  501    0 -0.24275802005E+03 -0.35420847593E+03 -0.25800459984E+03  0.53004754832E+03  0.17317311925E+03 0.  0.
         24    2    5    5    0    0 -0.12671482333E+03 -0.26095001125E+03 -0.11021234714E+03  0.32021951231E+03  0.79007719763E+02 0.  0.
          5    1    5    5  501    0 -0.11604319672E+03 -0.93258464679E+02 -0.14779225269E+03  0.20982803601E+03  0.47000000000E+01 0. -1.
        -13    1    6    6    0    0  0.10745698778E+02 -0.21285045224E+02 -0.37828386333E+01  0.24141935724E+02  0.00000000000E+00 0.  1.
         14    1    6    6    0    0 -0.13746052211E+03 -0.23966496602E+03 -0.10642950851E+03  0.29607757659E+03  0.00000000000E+00 0. -1.
         -5    1    3    3    0  503  0.20497753365E+03  0.21501801274E+03 -0.12398550633E+03  0.32193637707E+03  0.47000000000E+01 0.  1.
         11    1    4    4    0    0  0.31556294859E+02  0.13289573078E+03 -0.93603997975E+02  0.16558618131E+03  0.00000000000E+00 0. -1.
        -12    1    4    4    0    0  0.62241915467E+01  0.62947324003E+01  0.15076724612E+02  0.17483473380E+02  0.00000000000E+00 0.  1.
</event>
<event>
12    1  0.8684423E-002  0.1867186E+03  0.7818608E-02  0.1162740E+00
         21   -1    0    0  501  502  0.00000000000E+00  0.00000000000E+00  0.21112022442E+03  0.21112022442E+03  0.00000000000E+00 0. -1.
         21   -1    0    0  502  503 -0.00000000000E+00 -0.00000000000E+00 -0.44262130524E+03  0.44262130524E+03  0.00000000000E+00 0. -1.
         -6    2    1    2    0  503 -0.42182125483E+02  0.44189040781E+02 -0.37740821919E+03  0.42107102329E+03  0.17644217101E+03 0.  0.
        -24    2    3    3    0    0 -0.39790674450E+02  0.37787520728E+02 -0.39218984156E+03  0.40412154374E+03  0.80561503190E+02 0.  0.
          6    2    1    2  501    0  0.42182125483E+02 -0.44189040781E+02  0.14590713837E+03  0.23267050637E+03  0.17063020972E+03 0.  0.
         24    2    5    5    0    0 -0.17982355674E+02  0.29232598450E+02  0.65827571235E+02  0.10839126846E+03  0.78977769131E+02 0.  0.
          5    1    5    5  501    0  0.60164481157E+02 -0.73421639231E+02  0.80079567139E+02  0.12427923790E+03  0.47000000000E+01 0. -1.
        -11    1    6    6    0    0 -0.15614615777E+02  0.13509196245E+02 -0.15313829883E+02  0.25706574932E+02  0.00000000000E+00 0.  1.
         12    1    6    6    0    0 -0.23677398966E+01  0.15723402206E+02  0.81141401118E+02  0.82684693532E+02  0.00000000000E+00 0. -1.
         -5    1    3    3    0  503 -0.23914510325E+01  0.64015200528E+01  0.14781622373E+02  0.16949479550E+02  0.47000000000E+01 0.  1.
         13    1    4    4    0    0  0.14087025536E+02 -0.25953707104E+01 -0.19936704419E+03  0.19988096094E+03  0.00000000000E+00 0. -1.
        -14    1    4    4    0    0 -0.53877699986E+02  0.40382891438E+02 -0.19282279738E+03  0.20424058280E+03  0.00000000000E+00 0.  1.
</event>
<event>
12    1  0.8684423E-002  0.2779248E+03  0.7818608E-02  0.1097031E+00
         21   -1    0    0  503  502  0.00000000000E+00  0.00000000000E+00  0.51693727796E+03  0.51693727796E+03  0.00000000000E+00 0. -1.
         21   -1    0    0  501  503 -0.00000000000E+00 -0.00000000000E+00 -0.34474614411E+03  0.34474614411E+03  0.00000000000E+00 0.  1.
          6    2    1    2  501    0  0.58794709240E+02 -0.20794810322E+03 -0.23895707438E+03  0.36541228752E+03  0.17241352906E+03 0.  0.
         24    2    3    3    0    0  0.89286912646E+02 -0.13564673354E+03 -0.22178599886E+03  0.28494988412E+03  0.75068089611E+02 0.  0.
         -6    2    1    2    0  502 -0.58794709240E+02  0.20794810322E+03  0.41114820823E+03  0.49627113455E+03  0.17476543821E+03 0.  0.
        -24    2    5    5    0    0 -0.32431822735E+02  0.22436022114E+03  0.32150178613E+03  0.40128202784E+03  0.79211965190E+02 0.  0.
          5    1    3    3  501    0 -0.30492203406E+02 -0.72301369680E+02 -0.17171075518E+02  0.80462403398E+02  0.47000000000E+01 0. -1.
        -13    1    4    4    0    0  0.16470265663E+02 -0.65607055886E+02 -0.44727336411E+02  0.81093094993E+02  0.00000000000E+00 0.  1.
         14    1    4    4    0    0  0.72816646983E+02 -0.70039677657E+02 -0.17705866245E+03  0.20385678913E+03  0.00000000000E+00 0. -1.
         -5    1    5    5    0  502 -0.26362886505E+02 -0.16412117913E+02  0.89646422093E+02  0.94989106709E+02  0.47000000000E+01 0.  1.
         13    1    6    6    0    0 -0.22588743351E+01  0.28910749456E+02  0.10102602205E+03  0.10510561869E+03  0.00000000000E+00 0. -1.
        -14    1    6    6    0    0 -0.30172948400E+02  0.19544947168E+03  0.22047576408E+03  0.29617640916E+03  0.00000000000E+00 0.  1.
</event>
<event>
12    1  0.8684423E-002  0.2549757E+03  0.7818608E-02  0.1110308E+00
         21   -1    0    0  501  502  0.00000000000E+00  0.00000000000E+00  0.45514602179E+03  0.45514602179E+03  0.00000000000E+00 0.  1.
         21   -1    0    0  502  503 -0.00000000000E+00 -0.00000000000E+00 -0.23296755370E+03  0.23296755370E+03  0.00000000000E+00 0. -1.
         -6    2    1    2    0  503 -0.18749023677E+03  0.52628369555E+01 -0.10346926598E+03  0.27452072504E+03  0.17168416682E+03 0.  0.
        -24    2    3    3    0    0 -0.59749183302E+02  0.84551715710E+01 -0.10795768099E+03  0.14657462854E+03  0.78662608740E+02 0.  0.
          6    2    1    2  501    0  0.18749023677E+03 -0.52628369555E+01  0.32564773407E+03  0.41359285045E+03  0.17272033146E+03 0.  0.
         24    2    5    5    0    0  0.14476601931E+03 -0.60938119988E+02  0.28365565664E+03  0.33167508396E+03  0.69836773720E+02 0.  0.
          5    1    5    5  501    0  0.42724217467E+02  0.55675283032E+02  0.41992077422E+02  0.81917766480E+02  0.47000000000E+01 0. -1.
        -11    1    6    6    0    0  0.65542765044E+02 -0.58947277501E+02  0.18660902959E+03  0.20638208618E+03  0.00000000000E+00 0.  1.
         12    1    6    6    0    0  0.79223254263E+02 -0.19908424873E+01  0.97046627056E+02  0.12529299778E+03  0.00000000000E+00 0. -1.
         -5    1    3    3    0  503 -0.12774105347E+03 -0.31923346155E+01  0.44884150095E+01  0.12794609651E+03  0.47000000000E+01 0.  1.
         13    1    4    4    0    0 -0.59387176685E+02  0.28128262326E+02 -0.10854890788E+03  0.12688932697E+03  0.00000000000E+00 0. -1.
        -14    1    4    4    0    0 -0.36200661759E+00 -0.19673090755E+02  0.59122688823E+00  0.19685301570E+02  0.00000000000E+00 0.  1.
</event>
<event>
12    1  0.8684423E-002  0.1765931E+03  0.7818608E-02  0.1172138E+00
         21   -1    0    0  503  502  0.00000000000E+00  0.00000000000E+00  0.46963372002E+03  0.46963372002E+03  0.00000000000E+00 0.  1.
         21   -1    0    0  501  503 -0.00000000000E+00 -0.00000000000E+00 -0.69188048903E+02  0.69188048903E+02  0.00000000000E+00 0. -1.
          6    2    1    2  501    0 -0.37136047317E+02 -0.24927914542E+01  0.26927373825E+03  0.32201469643E+03  0.17262623957E+03 0.  0.
         24    2    3    3    0    0  0.40837392554E+01  0.41621319330E+01  0.26877527974E+03  0.27999449568E+03  0.78248107592E+02 0.  0.
         -6    2    1    2    0  502  0.37136047317E+02  0.24927914542E+01  0.13117193286E+03  0.21680707249E+03  0.16856432212E+03 0.  0.
        -24    2    5    5    0    0 -0.35564048023E+02  0.33495897814E+02  0.70738575195E+02  0.11720397422E+03  0.79662091798E+02 0.  0.
          5    1    3    3  501    0 -0.41219786572E+02 -0.66549233872E+01  0.49845850850E+00  0.42020200752E+02  0.47000000000E+01 0. -1.
        -11    1    4    4    0    0 -0.18396785773E+02  0.31856908842E+02  0.18987221710E+03  0.19340311062E+03  0.00000000000E+00 0.  1.
         12    1    4    4    0    0  0.22480525029E+02 -0.27694776909E+02  0.78903062640E+02  0.86591385066E+02  0.00000000000E+00 0. -1.
         -5    1    5    5    0  502  0.72700095339E+02 -0.31003106360E+02  0.60433357666E+02  0.99603098270E+02  0.47000000000E+01 0.  1.
         13    1    6    6    0    0 -0.10315839547E+02  0.52531252657E+02  0.66391838105E+02  0.85286723575E+02  0.00000000000E+00 0. -1.
        -14    1    6    6    0    0 -0.25248208476E+02 -0.19035354843E+02  0.43467370907E+01  0.31917250642E+02  0.00000000000E+00 0.  1.
</event>
<event>
12    1  0.8684423E-002  0.1753767E+03  0.7818608E-02  0.1173118E+00
         21   -1    0    0  501  502  0.00000000000E+00  0.00000000000E+00  0.16174258446E+03  0.16174258446E+03  0.00000000000E+00 0. -1.
         21   -1    0    0  502  503 -0.00000000000E+00 -0.00000000000E+00 -0.20552647868E+03  0.20552647868E+03  0.00000000000E+00 0. -1.
         -6    2    1    2    0  503  0.38591877698E+02 -0.87698299686E+01 -0.77348717162E+02  0.19167629303E+03  0.17085296111E+03 0.  0.
        -24    2    3    3    0    0  0.16820535492E+02  0.15420684067E+02 -0.11544263401E+03  0.14135324849E+03  0.78313544180E+02 0.  0.
          6    2    1    2  501    0 -0.38591877698E+02  0.87698299686E+01  0.33564822945E+02  0.17559277011E+03  0.16774975599E+03 0.  0.
         24    2    5    5    0    0  0.13019577595E+02  0.52685566431E+02  0.45331582334E+02  0.10665162961E+03  0.79839460364E+02 0.  0.
          5    1    5    5  501    0 -0.51611455293E+02 -0.43915736462E+02 -0.11766759390E+02  0.68941140497E+02  0.47000000000E+01 0. -1.
        -13    1    6    6    0    0  0.10350481395E+02  0.42317200605E+02 -0.14465630928E+02  0.45903511960E+02  0.00000000000E+00 0.  1.
         14    1    6    6    0    0  0.26690962006E+01  0.10368365826E+02  0.59797213262E+02  0.60748117653E+02  0.00000000000E+00 0. -1.
         -5    1    3    3    0  503  0.21771342206E+02 -0.24190514035E+02  0.38093916844E+02  0.50323044535E+02  0.47000000000E+01 0.  1.
         13    1    4    4    0    0  0.48338222984E+02  0.12414423775E+02 -0.71201878837E+02  0.86950613965E+02  0.00000000000E+00 0. -1.
        -14    1    4    4    0    0 -0.31517687492E+02  0.30062602916E+01 -0.44240755168E+02  0.54402634528E+02  0.00000000000E+00 0.  1.
</event>
<event>
12    1  0.8684423E-002  0.3421470E+03  0.7818608E-02  0.1065907E+00
         21   -1    0    0  503  502  0.00000000000E+00  0.00000000000E+00  0.19208921901E+03  0.19208921901E+03  0.00000000000E+00 0.  1.
         21   -1    0    0  501  503 -0.00000000000E+00 -0.00000000000E+00 -0.68008339016E+03  0.68008339016E+03  0.00000000000E+00 0. -1.
          6    2    1    2  501    0  0.25690830418E+03 -0.14590672170E+03 -0.38498241011E+03  0.51504954886E+03  0.17255124888E+03 0.  0.
         24    2    3    3    0    0  0.10253606221E+03 -0.68258082317E+02 -0.27397584505E+03  0.30961185082E+03  0.74992830597E+02 0.  0.
         -6    2    1    2    0  502 -0.25690830418E+03  0.14590672170E+03 -0.10301176104E+03  0.35712306031E+03  0.17214763751E+03 0.  0.
        -24    2    5    5    0    0 -0.10611136678E+03  0.43250193052E+02  0.15447522041E+02  0.13956210115E+03  0.78158510614E+02 0.  0.
          5    1    3    3  501    0  0.15437224197E+03 -0.77648639387E+02 -0.11100656506E+03  0.20543769804E+03  0.47000000000E+01 0. -1.
        -13    1    4    4    0    0  0.18675875279E+02 -0.21513520652E+02 -0.12581279605E+02  0.31143353782E+02  0.00000000000E+00 0.  1.
         14    1    4    4    0    0  0.83860186934E+02 -0.46744561665E+02 -0.26139456545E+03  0.27846849704E+03  0.00000000000E+00 0. -1.
         -5    1    5    5    0  502 -0.15079693741E+03  0.10265652865E+03 -0.11845928308E+03  0.21756095917E+03  0.47000000000E+01 0.  1.
         13    1    6    6    0    0  0.92635386484E+01  0.10856165497E+02 -0.95164346980E+01  0.17153192325E+02  0.00000000000E+00 0. -1.
        -14    1    6    6    0    0 -0.11537490542E+03  0.32394027555E+02  0.24963956739E+02  0.12240890882E+03  0.00000000000E+00 0.  1.
</event>
<event>
12    1  0.8684423E-002  0.1742118E+03  0.7818608E-02  0.1174043E+00
         21   -1    0    0  501  502  0.00000000000E+00  0.00000000000E+00  0.69067373582E+02  0.69067373582E+02  0.00000000000E+00 0. -1.
         21   -1    0    0  502  503 -0.00000000000E+00 -0.00000000000E+00 -0.52742229063E+03  0.52742229063E+03  0.00000000000E+00 0. -1.
         -6    2    1    2    0  503  0.18265850256E+02  0.13029615417E+02 -0.35338436133E+03  0.39309699083E+03  0.17070830442E+03 0.  0.
        -24    2    3    3    0    0  0.31208931139E+02 -0.21932700672E+02 -0.88728841629E+02  0.12578720612E+03  0.80588914533E+02 0.  0.
          6    2    1    2  501    0 -0.18265850256E+02 -0.13029615417E+02 -0.10497055572E+03  0.20339267339E+03  0.17276096161E+03 0.  0.
         24    2    5    5    0    0  0.48553262951E+02 -0.17128286442E+02 -0.97567900714E+02  0.13587613989E+03  0.79322333567E+02 0.  0.
          5    1    5    5  501    0 -0.66819113207E+02  0.40986710249E+01 -0.74026550019E+01  0.67516533494E+02  0.47000000000E+01 0. -1.
        -11    1    6    6    0    0  0.49279340217E+02  0.30836215850E+01 -0.10360519888E+03  0.11476933096E+03  0.00000000000E+00 0.  1.
         12    1    6    6    0    0 -0.72607726616E+00 -0.20211908027E+02  0.60372981622E+01  0.21106808934E+02  0.00000000000E+00 0. -1.
         -5    1    3    3    0  503 -0.12943080883E+02  0.34962316088E+02 -0.26465551970E+03  0.26730978470E+03  0.47000000000E+01 0.  1.
         11    1    4    4    0    0  0.50518848318E+02 -0.38547672175E+02 -0.66471221211E+02  0.91959231808E+02  0.00000000000E+00 0. -1.
        -12    1    4    4    0    0 -0.19309917179E+02  0.16614971504E+02 -0.22257620418E+02  0.33827974314E+02  0.00000000000E+00 0.  1.
</event>
<event>
12    1  0.8684423E-002  0.1962420E+03  0.7818608E-02  0.1153258E+00
         21   -1    0    0  501  502  0.00000000000E+00  0.00000000000E+00  0.10549228521E+03  0.10549228521E+03  0.00000000000E+00 0. -1.
         21   -1    0    0  502  503 -0.00000000000E+00 -0.00000000000E+00 -0.36727536686E+03  0.36727536686E+03  0.00000000000E+00 0. -1.
         -6    2    1    2    0  503  0.91457953674E+02  0.16746500597E+02 -0.15761606118E+03  0.25059272221E+03  0.17119838524E+03 0.  0.
        -24    2    3    3    0    0  0.61196884615E+02  0.61761059225E+02 -0.15718143786E+03  0.19614713757E+03  0.78792182636E+02 0.  0.
          6    2    1    2  501    0 -0.91457953674E+02 -0.16746500597E+02 -0.10416702047E+03  0.22217492987E+03  0.17281761697E+03 0.  0.
         24    2    5    5    0    0 -0.17266206759E+02  0.51539486834E+02 -0.36974628438E+02  0.10091364612E+03  0.76563700447E+02 0.  0.
          5    1    5    5  501    0 -0.74191746915E+02 -0.68285987431E+02 -0.67192392032E+02  0.12126128375E+03  0.47000000000E+01 0. -1.
        -13    1    6    6    0    0 -0.47150228849E+02  0.30526164563E+02 -0.14460123910E+02  0.58000741262E+02  0.00000000000E+00 0.  1.
         14    1    6    6    0    0  0.29884022091E+02  0.21013322271E+02 -0.22514504528E+02  0.42912904857E+02  0.00000000000E+00 0. -1.
         -5    1    3    3    0  503  0.30261069059E+02 -0.45014558628E+02 -0.43462331997E+00  0.54445584637E+02  0.47000000000E+01 0.  1.
         13    1    4    4    0    0  0.77575456892E+00  0.54863673493E+02 -0.91048971536E+02  0.10630399655E+03  0.00000000000E+00 0. -1.
        -14    1    4    4    0    0  0.60421130046E+02  0.68973857319E+01 -0.66132466327E+02  0.89843141020E+02  0.00000000000E+00 0.  1.
</event>
<event>
12    1  0.8684423E-002  0.2059586E+03  0.7818608E-02  0.1144897E+00
         21   -1    0    0  503  502  0.00000000000E+00  0.00000000000E+00  0.14439141290E+03  0.14439141290E+03  0.00000000000E+00 0.  1.
         21   -1    0    0  501  503 -0.00000000000E+00 -0.00000000000E+00 -0.34049071285E+03  0.34049071285E+03  0.00000000000E+00 0. -1.
          6    2    1    2  501    0 -0.11006316657E+03 -0.25647357297E+02 -0.75543182587E+01  0.20565434917E+03  0.17165359314E+03 0.  0.
         24    2    3    3    0    0 -0.26165027828E+02 -0.49632770674E+02  0.40689039096E+02  0.10583596776E+03  0.79985208401E+02 0.  0.
         -6    2    1    2    0  502  0.11006316657E+03  0.25647357297E+02 -0.18854498169E+03  0.27922777658E+03  0.17218377834E+03 0.  0.
        -24    2    5    5    0    0  0.36119689648E+02  0.60397542214E+02 -0.11434063817E+03  0.16875792672E+03  0.10223972423E+03 0.  0.
          5    1    3    3  501    0 -0.83898138740E+02  0.23985413377E+02 -0.48243357355E+02  0.99818381412E+02  0.47000000000E+01 0. -1.
        -13    1    4    4    0    0  0.24717942008E+02 -0.84135246612E+01  0.29513271066E+02  0.39405548129E+02  0.00000000000E+00 0.  1.
         14    1    4    4    0    0 -0.50882969836E+02 -0.41219246013E+02  0.11175768030E+02  0.66430419630E+02  0.00000000000E+00 0. -1.
         -5    1    5    5    0  502  0.73943476919E+02 -0.34750184917E+02 -0.74204343518E+02  0.11046984986E+03  0.47000000000E+01 0.  1.
         13    1    6    6    0    0  0.71450557577E+02  0.29933059784E+02 -0.71456502129E+02  0.10539071089E+03  0.00000000000E+00 0. -1.
        -14    1    6    6    0    0 -0.35330867929E+02  0.30464482430E+02 -0.42884136039E+02  0.63367215830E+02  0.00000000000E+00 0.  1.
</event>
<event>
12    1  0.8684423E-002  0.1837815E+03  0.7818608E-02  0.1164658E+00
         21   -1    0    0  503  502  0.00000000000E+00  0.00000000000E+00  0.35069523133E+03  0.35069523133E+03  0.00000000000E+00 0.  1.
         21   -1    0    0  501  503 -0.00000000000E+00 -0.00000000000E+00 -0.27762603289E+03  0.27762603289E+03  0.00000000000E+00 0.  1.
          6    2    1    2  501    0  0.36806883877E+02 -0.50398564312E+02 -0.21813551392E+03  0.28397287160E+03  0.17077097934E+03 0.  0.
         24    2    3    3    0    0  0.45560017701E+02 -0.40764438370E+02 -0.23891929303E+03  0.25900310571E+03  0.79137383971E+02 0.  0.
         -6    2    1    2    0  502 -0.36806883877E+02  0.50398564312E+02  0.29120471236E+03  0.34434839262E+03  0.17286083714E+03 0.  0.
        -24    2    5    5    0    0 -0.69279828135E+02 -0.50891281049E+01  0.23935891245E+03  0.26162322664E+03  0.79551429506E+02 0.  0.
          5    1    3    3  501    0 -0.87531338239E+01 -0.96341259417E+01  0.20783779103E+02  0.24969765882E+02  0.47000000000E+01 0. -1.
        -11    1    4    4    0    0 -0.69944903748E+01 -0.33063245731E+02 -0.16224985761E+03  0.16573206512E+03  0.00000000000E+00 0.  1.
         12    1    4    4    0    0  0.52554508076E+02 -0.77011926399E+01 -0.76669435415E+02  0.93271040597E+02  0.00000000000E+00 0. -1.
         -5    1    5    5    0  502  0.32472944258E+02  0.55487692417E+02  0.51845799902E+02  0.82725165978E+02  0.47000000000E+01 0.  1.
         13    1    6    6    0    0 -0.44692292409E+02  0.36225116583E+02  0.13175602956E+03  0.14376825588E+03  0.00000000000E+00 0. -1.
        -14    1    6    6    0    0 -0.24587535726E+02 -0.41314244688E+02  0.10760288289E+03  0.11785497076E+03  0.00000000000E+00 0.  1.
</event>
<event>
12    1  0.8684423E-002  0.2040595E+03  0.7818608E-02  0.1146453E+00
         21   -1    0    0  501  502  0.00000000000E+00  0.00000000000E+00  0.22091273526E+04  0.22091273526E+04  0.00000000000E+00 0. -1.
         21   -1    0    0  502  503 -0.00000000000E+00 -0.00000000000E+00 -0.20820344403E+02  0.20820344403E+02  0.00000000000E+00 0. -1.
         -6    2    1    2    0  503 -0.17437030849E+01  0.10941761244E+03  0.74631741536E+03  0.77359119271E+03  0.17169273296E+03 0.  0.
        -24    2    3    3    0    0 -0.49620059057E+02  0.11996259653E+03  0.54772312448E+03  0.56898150446E+03  0.82982868773E+02 0.  0.
          6    2    1    2  501    0  0.17437030849E+01 -0.10941761244E+03  0.14419895929E+04  0.14563565043E+04  0.17223538355E+03 0.  0.
         24    2    5    5    0    0  0.17365660797E+02  0.99631095182E+01  0.51105029238E+03  0.51765214537E+03  0.79940681359E+02 0.  0.
          5    1    5    5  501    0 -0.15621957712E+02 -0.11938072196E+03  0.93093930047E+03  0.93870435894E+03  0.47000000000E+01 0. -1.
        -13    1    6    6    0    0 -0.18438504465E+02 -0.15286479795E+02  0.34784389157E+03  0.34866750323E+03  0.00000000000E+00 0.  1.
         14    1    6    6    0    0  0.35804165262E+02  0.25249589313E+02  0.16320640082E+03  0.16898464214E+03  0.00000000000E+00 0. -1.
         -5    1    3    3    0  503  0.47876355972E+02 -0.10544984091E+02  0.19859429089E+03  0.20460968825E+03  0.47000000000E+01 0.  1.
         13    1    4    4    0    0 -0.14279814795E+02  0.45565916869E+02  0.73434669323E+02  0.87594614842E+02  0.00000000000E+00 0. -1.
        -14    1    4    4    0    0 -0.35340244262E+02  0.74396679660E+02  0.47428845515E+03  0.48138688962E+03  0.00000000000E+00 0.  1.
</event>
<event>
12    1  0.8684423E-002  0.1913382E+03  0.7818608E-02  0.1157320E+00
         21   -1    0    0  503  502  0.00000000000E+00  0.00000000000E+00  0.40254016679E+03  0.40254016679E+03  0.00000000000E+00 0. -1.
         21   -1    0    0  501  503 -0.00000000000E+00 -0.00000000000E+00 -0.93084711614E+02  0.93084711614E+02  0.00000000000E+00 0. -1.
          6    2    1    2  501    0  0.15922278180E+02 -0.82143013379E+02  0.11619177032E+03  0.22385445211E+03  0.17207351525E+03 0.  0.
         24    2    3    3    0    0 -0.22533702946E+02 -0.88338079813E+02  0.13218420489E+03  0.18148595797E+03  0.84576029721E+02 0.  0.
         -6    2    1    2    0  502 -0.15922278180E+02  0.82143013379E+02  0.19326368486E+03  0.27177042629E+03  0.17177694587E+03 0.  0.
        -24    2    5    5    0    0  0.49225377175E+02  0.35035954845E+02  0.15198772402E+03  0.18127685246E+03  0.78168875491E+02 0.  0.
          5    1    3    3  501    0  0.38455981126E+02  0.61950664337E+01 -0.15992434572E+02  0.42368494144E+02  0.47000000000E+01 0. -1.
        -11    1    4    4    0    0  0.98552150568E+01 -0.28529746085E+02  0.10325089955E+03  0.10757239392E+03  0.00000000000E+00 0.  1.
         12    1    4    4    0    0 -0.32388918003E+02 -0.59808333728E+02  0.28933305345E+02  0.73913564053E+02  0.00000000000E+00 0. -1.
         -5    1    5    5    0  502 -0.65147655355E+02  0.47107058534E+02  0.41275960838E+02  0.90493573833E+02  0.47000000000E+01 0.  1.
         11    1    6    6    0    0 -0.27520167661E+01  0.45284800177E+02  0.61538643136E+02  0.76454504919E+02  0.00000000000E+00 0. -1.
        -12    1    6    6    0    0  0.51977393941E+02 -0.10248845332E+02  0.90449080884E+02  0.10482234754E+03  0.00000000000E+00 0.  1.
</event>
<event>
12    1  0.8684423E-002  0.1885986E+03  0.7818608E-02  0.1160620E+00
         21   -1    0    0  503  502  0.00000000000E+00  0.00000000000E+00  0.18631573133E+03  0.18631573133E+03  0.00000000000E+00 0. -1.
         21   -1    0    0  501  503 -0.00000000000E+00 -0.00000000000E+00 -0.27586187451E+03  0.27586187451E+03  0.00000000000E+00 0. -1.
          6    2    1    2  501    0 -0.37637529226E+02 -0.65745104246E+02 -0.17622371543E+03  0.25811667003E+03  0.17271483760E+03 0.  0.
         24    2    3    3    0    0 -0.40462226032E+01 -0.64656878303E+02 -0.32603671179E+02  0.11054171542E+03  0.83424143051E+02 0.  0.
         -6    2    1    2    0  502  0.37637529226E+02  0.65745104246E+02  0.86677572245E+02  0.20406093581E+03  0.16848994527E+03 0.  0.
        -24    2    5    5    0    0  0.87760662423E+02  0.35900402556E+02  0.46907166713E+02  0.13330212112E+03  0.81107338962E+02 0.  0.
          5    1    3    3  501    0 -0.33591306623E+02 -0.10882259423E+01 -0.14362004426E+03  0.14757495461E+03  0.47000000000E+01 0. -1.
        -13    1    4    4    0    0 -0.19946591239E+02  0.54816651475E+01  0.13877933718E+02  0.24910082279E+02  0.00000000000E+00 0.  1.
         14    1    4    4    0    0  0.15900368636E+02 -0.70138543451E+02 -0.46481604897E+02  0.85631633138E+02  0.00000000000E+00 0. -1.
         -5    1    5    5    0  502 -0.50123133197E+02  0.29844701690E+02  0.39770405532E+02  0.70758814692E+02  0.47000000000E+01 0.  1.
         11    1    6    6    0    0  0.55165921946E+02  0.28607369603E+01  0.63361223073E+02  0.84060141264E+02  0.00000000000E+00 0. -1.
        -12    1    6    6    0    0  0.32594740477E+02  0.33039665595E+02 -0.16454056360E+02  0.49241979856E+02  0.00000000000E+00 0.  1.
</event>
<event>
12    1  0.8684423E-002  0.1809078E+03  0.7818608E-02  0.1167025E+00
         21   -1    0    0  501  502  0.00000000000E+00  0.00000000000E+00  0.41873844102E+03  0.41873844102E+03  0.00000000000E+00 0. -1.
         21   -1    0    0  502  503 -0.00000000000E+00 -0.00000000000E+00 -0.82333922613E+02  0.82333922613E+02  0.00000000000E+00 0. -1.
         -6    2    1    2    0  503 -0.30145700741E+02 -0.46444240151E+02  0.11043181792E+03  0.21160511233E+03  0.17180135750E+03 0.  0.
        -24    2    3    3    0    0 -0.17395865807E+02 -0.62928119968E+02  0.27865023588E+01  0.10186049721E+03  0.78135983174E+02 0.  0.
          6    2    1    2  501    0  0.30145700741E+02  0.46444240151E+02  0.22597270048E+03  0.28946725130E+03  0.17222600703E+03 0.  0.
         24    2    5    5    0    0 -0.19865094193E+02  0.17216413957E+01  0.40518673655E+02  0.92194656865E+02  0.80377271808E+02 0.  0.
          5    1    5    5  501    0  0.50010794933E+02  0.44722598755E+02  0.18545402683E+03  0.19727259444E+03  0.47000000000E+01 0. -1.
        -11    1    6    6    0    0  0.24874951067E+01  0.37926602421E+02  0.85077119267E+01  0.38948632394E+02  0.00000000000E+00 0.  1.
         12    1    6    6    0    0 -0.22352589300E+02 -0.36204961025E+02  0.32010961728E+02  0.53246024471E+02  0.00000000000E+00 0. -1.
         -5    1    3    3    0  503 -0.12749834934E+02  0.16483879817E+02  0.10764531557E+03  0.10974461512E+03  0.47000000000E+01 0.  1.
         13    1    4    4    0    0 -0.48105874812E+02 -0.30175381170E+02  0.41835153174E+01  0.56940588516E+02  0.00000000000E+00 0. -1.
        -14    1    4    4    0    0  0.30710009005E+02 -0.32752738798E+02 -0.13970129586E+01  0.44919908694E+02  0.00000000000E+00 0.  1.
</event>
<event>
12    1  0.8684423E-002  0.2177818E+03  0.7818608E-02  0.1135631E+00
         21   -1    0    0  503  502  0.00000000000E+00  0.00000000000E+00  0.33771816089E+02  0.33771816089E+02  0.00000000000E+00 0. -1.
         21   -1    0    0  501  503 -0.00000000000E+00 -0.00000000000E+00 -0.14830444267E+04  0.14830444267E+04  0.00000000000E+00 0. -1.
          6    2    1    2  501    0  0.59968558942E+02  0.11773194636E+03 -0.54618556329E+03  0.58784093851E+03  0.17257247806E+03 0.  0.
         24    2    3    3    0    0  0.55465910699E+02  0.12768160255E+03 -0.28955683636E+03  0.33093694285E+03  0.79353889508E+02 0.  0.
         -6    2    1    2    0  502 -0.59968558942E+02 -0.11773194636E+03 -0.90308704731E+03  0.92897530427E+03  0.17312383333E+03 0.  0.
        -24    2    5    5    0    0  0.83889444097E+01 -0.14905435103E+02 -0.21223375318E+03  0.22715880140E+03  0.79154334580E+02 0.  0.
          5    1    3    3  501    0  0.45026482429E+01 -0.99496561916E+01 -0.25662872693E+03  0.25690399566E+03  0.47000000000E+01 0. -1.
        -13    1    4    4    0    0  0.24700928332E+02  0.15830895633E+02 -0.15154603324E+02  0.33021434235E+02  0.00000000000E+00 0.  1.
         14    1    4    4    0    0  0.30764982366E+02  0.11185070692E+03 -0.27440223303E+03  0.29791550861E+03  0.00000000000E+00 0. -1.
         -5    1    5    5    0  502 -0.68357503351E+02 -0.10282651126E+03 -0.69085329413E+03  0.70181650286E+03  0.47000000000E+01 0.  1.
         13    1    6    6    0    0 -0.15552305907E+02 -0.68269550597E+01 -0.40679465935E+01  0.17465100168E+02  0.00000000000E+00 0. -1.
        -14    1    6    6    0    0  0.23941250316E+02 -0.80784800431E+01 -0.20816580659E+03  0.20969370124E+03  0.00000000000E+00 0.  1.
</event>
<event>
12    1  0.8684423E-002  0.2269293E+03  0.7818608E-02  0.1129989E+00
         21   -1    0    0  503  502  0.00000000000E+00  0.00000000000E+00  0.14105874704E+04  0.14105874704E+04  0.00000000000E+00 0. -1.
         21   -1    0    0  501  503 -0.00000000000E+00 -0.00000000000E+00 -0.11343853423E+03  0.11343853423E+03  0.00000000000E+00 0. -1.
          6    2    1    2  501    0 -0.46854078062E+02  0.13018993151E+03  0.19807099614E+02  0.22779204466E+03  0.17986709405E+03 0.  0.
         24    2    3    3    0    0 -0.23556920053E+02  0.42207927039E+02  0.75142033494E+02  0.12117293011E+03  0.81854237555E+02 0.  0.
         -6    2    1    2    0  502  0.46854078062E+02 -0.13018993151E+03  0.12773418365E+04  0.12962339599E+04  0.17168456146E+03 0.  0.
        -24    2    5    5    0    0  0.47321000707E+01 -0.68931545265E+02  0.34057955994E+03  0.35651458493E+03  0.79588076473E+02 0.  0.
          5    1    3    3  501    0 -0.23297158009E+02  0.87982004467E+02 -0.55334933880E+02  0.10661911456E+03  0.47000000000E+01 0. -1.
        -13    1    4    4    0    0 -0.32250284540E+02 -0.46172723818E+01  0.64665707232E+02  0.72408934179E+02  0.00000000000E+00 0.  1.
         14    1    4    4    0    0  0.86933644868E+01  0.46825199421E+02  0.10476326263E+02  0.48763995928E+02  0.00000000000E+00 0. -1.
         -5    1    5    5    0  502  0.42121977992E+02 -0.61258386241E+02  0.93676227658E+03  0.93971937499E+03  0.47000000000E+01 0.  1.
         11    1    6    6    0    0 -0.23071570735E+02  0.72842538833E+01  0.72800192979E+02  0.76715225533E+02  0.00000000000E+00 0. -1.
        -12    1    6    6    0    0  0.27803670805E+02 -0.76215799148E+02  0.26777936696E+03  0.27979935940E+03  0.00000000000E+00 0.  1.
</event>
<event>
12    1  0.8684423E-002  0.2006918E+03  0.7818608E-02  0.1149233E+00
         21   -1    0    0  503  502  0.00000000000E+00  0.00000000000E+00  0.51584412597E+02  0.51584412597E+02  0.00000000000E+00 0.  1.
         21   -1    0    0  501  503 -0.00000000000E+00 -0.00000000000E+00 -0.14334744567E+04  0.14334744567E+04  0.00000000000E+00 0.  1.
          6    2    1    2  501    0 -0.18970914702E+01 -0.10321982096E+03 -0.18902616923E+03  0.27543024129E+03  0.17167700710E+03 0.  0.
         24    2    3    3    0    0  0.23156268420E+02 -0.10374714673E+03 -0.63226977167E+02  0.14707341195E+03  0.79581748141E+02 0.  0.
         -6    2    1    2    0  502  0.18970914702E+01  0.10321982096E+03 -0.11928638749E+04  0.12096286280E+04  0.17210247918E+03 0.  0.
        -24    2    5    5    0    0  0.16274560261E+02  0.23613784530E+02 -0.41534641809E+03  0.42790021082E+03  0.98810279166E+02 0.  0.
          5    1    3    3  501    0 -0.25053359890E+02  0.52732577732E+00 -0.12579919207E+03  0.12835682934E+03  0.47000000000E+01 0. -1.
        -11    1    4    4    0    0  0.41069594931E+02 -0.86802162630E+02 -0.72922341588E+02  0.12057775486E+03  0.00000000000E+00 0.  1.
         12    1    4    4    0    0 -0.17913326511E+02 -0.16944984102E+02  0.96953644214E+01  0.26495657082E+02  0.00000000000E+00 0. -1.
         -5    1    5    5    0  502 -0.14377468790E+02  0.79606036426E+02 -0.77751745682E+03  0.78172841723E+03  0.47000000000E+01 0.  1.
         13    1    6    6    0    0  0.46565960689E+02  0.40265818225E+02 -0.18497587681E+03  0.19495076253E+03  0.00000000000E+00 0. -1.
        -14    1    6    6    0    0 -0.30291400428E+02 -0.16652033695E+02 -0.23037054128E+03  0.23294944828E+03  0.00000000000E+00 0.  1.
</event>
<event>
12    1  0.8684423E-002  0.2289455E+03  0.7818608E-02  0.1127453E+00
         21   -1    0    0  503  502  0.00000000000E+00  0.00000000000E+00  0.56130014015E+03  0.56130014015E+03  0.00000000000E+00 0.  1.
         21   -1    0    0  501  503 -0.00000000000E+00 -0.00000000000E+00 -0.98416510687E+02  0.98416510687E+02  0.00000000000E+00 0. -1.
          6    2    1    2  501    0 -0.80848397214E+02 -0.12665308323E+03  0.15549932874E+03  0.27643976334E+03  0.17222495375E+03 0.  0.
         24    2    3    3    0    0 -0.34258664838E+02 -0.14964849160E+03  0.13603240624E+03  0.22075814123E+03  0.81615036718E+02 0.  0.
         -6    2    1    2    0  502  0.80848397214E+02  0.12665308323E+03  0.30738430072E+03  0.38327688750E+03  0.17273852302E+03 0.  0.
        -24    2    5    5    0    0 -0.26595708064E+02  0.51673753598E+02  0.11108403525E+03  0.14722176712E+03  0.77182104976E+02 0.  0.
          5    1    3    3  501    0 -0.46589732375E+02  0.22995408371E+02  0.19466922501E+02  0.55681622108E+02  0.47000000000E+01 0. -1.
        -11    1    4    4    0    0 -0.38110235097E+02 -0.62191025163E+02  0.10506225562E+03  0.12789914458E+03  0.00000000000E+00 0.  1.
         12    1    4    4    0    0  0.38515702588E+01 -0.87457466436E+02  0.30970150621E+02  0.92858996647E+02  0.00000000000E+00 0. -1.
         -5    1    5    5    0  502  0.10744410528E+03  0.74979329630E+02  0.19630026547E+03  0.23605512038E+03  0.47000000000E+01 0.  1.
         11    1    6    6    0    0 -0.21167389652E+02  0.47586904316E+02  0.19852767766E+02  0.55737816921E+02  0.00000000000E+00 0. -1.
        -12    1    6    6    0    0 -0.54283184127E+01  0.40868492817E+01  0.91231267481E+02  0.91483950199E+02  0.00000000000E+00 0.  1.
</event>
<event>
12    1  0.8684423E-002  0.1746549E+03  0.7818608E-02  0.1174703E+00
         21   -1    0    0  501  502  0.00000000000E+00  0.00000000000E+00  0.11578009437E+03  0.11578009437E+03  0.00000000000E+00 0.  1.
         21   -1    0    0  502  503 -0.00000000000E+00 -0.00000000000E+00 -0.29821522299E+03  0.29821522299E+03  0.00000000000E+00 0.  1.
         -6    2    1    2    0  503 -0.20600315374E+02 -0.23543331819E+02 -0.17233887890E+03  0.24536711101E+03  0.17183034807E+03 0.  0.
        -24    2    3    3    0    0 -0.54178740682E+02  0.37641451077E+02 -0.13109469080E+03  0.16416205356E+03  0.73560499529E+02 0.  0.
          6    2    1    2  501    0  0.20600315374E+02  0.23543331819E+02 -0.10096249722E+02  0.16862820634E+03  0.16539309613E+03 0.  0.
         24    2    5    5    0    0 -0.35971182043E+02  0.38705854692E+02 -0.38900703831E+02  0.10319103803E+03  0.79643307607E+02 0.  0.
          5    1    5    5  501    0  0.56571497417E+02 -0.15162522873E+02  0.28804454109E+02  0.65437168310E+02  0.47000000000E+01 0. -1.
        -11    1    6    6    0    0 -0.12787390401E+02  0.41899988582E+01  0.24161018006E+02  0.27655528105E+02  0.00000000000E+00 0.  1.
         12    1    6    6    0    0 -0.23183791642E+02  0.34515855834E+02 -0.63061721837E+02  0.75535509927E+02  0.00000000000E+00 0. -1.
         -5    1    3    3    0  503  0.33578425308E+02 -0.61184782896E+02 -0.41244188100E+02  0.81205057455E+02  0.47000000000E+01 0.  1.
         13    1    4    4    0    0 -0.37881078930E+02 -0.15380415481E+02 -0.38127248088E+02  0.55903670434E+02  0.00000000000E+00 0. -1.
        -14    1    4    4    0    0 -0.16297661752E+02  0.53021866558E+02 -0.92967442711E+02  0.10825838312E+03  0.00000000000E+00 0.  1.
</event>
<event>
12    1  0.8684423E-002  0.1992002E+03  0.7818608E-02  0.1151215E+00
         21   -1    0    0  501  502  0.00000000000E+00  0.00000000000E+00  0.11725872122E+03  0.11725872122E+03  0.00000000000E+00 0. -1.
         21   -1    0    0  502  503 -0.00000000000E+00 -0.00000000000E+00 -0.38269425083E+03  0.38269425083E+03  0.00000000000E+00 0. -1.
         -6    2    1    2    0  503 -0.10572883183E+02  0.87973835311E+02 -0.22469939416E+03  0.30028409638E+03  0.17840834971E+03 0.  0.
        -24    2    3    3    0    0  0.11718686428E+02  0.11829799404E+03 -0.22116890930E+03  0.26219180055E+03  0.75479207925E+02 0.  0.
          6    2    1    2  501    0  0.10572883183E+02 -0.87973835311E+02 -0.40736135462E+02  0.19966887567E+03  0.17423273407E+03 0.  0.
         24    2    5    5    0    0 -0.46332841542E+02 -0.58199278520E+02 -0.70540348522E+02  0.12870996605E+03  0.77823045204E+02 0.  0.
          5    1    5    5  501    0  0.56905724725E+02 -0.29774556791E+02  0.29804213061E+02  0.70958909622E+02  0.47000000000E+01 0. -1.
        -13    1    6    6    0    0 -0.46250846278E+02 -0.56681823474E+02 -0.16946141512E+02  0.75094218192E+02  0.00000000000E+00 0.  1.
         14    1    6    6    0    0 -0.81995264713E-01 -0.15174550456E+01 -0.53594207010E+02  0.53615747856E+02  0.00000000000E+00 0. -1.
         -5    1    3    3    0  503 -0.22291569611E+02 -0.30324158728E+02 -0.35304848546E+01  0.38092295830E+02  0.47000000000E+01 0.  1.
         13    1    4    4    0    0  0.40723090972E+02  0.79747454629E+02 -0.16817351138E+03  0.19052652463E+03  0.00000000000E+00 0. -1.
        -14    1    4    4    0    0 -0.29004404543E+02  0.38550539409E+02 -0.52995397919E+02  0.71665275917E+02  0.00000000000E+00 0.  1.
</event>
<event>
12    1  0.8684423E-002  0.2113081E+03  0.7818608E-02  0.1140698E+00
         21   -1    0    0  503  502  0.00000000000E+00  0.00000000000E+00  0.29929765743E+03  0.29929765743E+03  0.00000000000E+00 0. -1.
         21   -1    0    0  501  503 -0.00000000000E+00 -0.00000000000E+00 -0.20466269508E+03  0.20466269508E+03  0.00000000000E+00 0. -1.
          6    2    1    2  501    0  0.99652183918E+02 -0.69527663693E+02  0.17913023708E+03  0.27638499372E+03  0.17186148243E+03 0.  0.
         24    2    3    3    0    0  0.13410611697E+03 -0.50759009013E+02  0.10964388720E+03  0.19644890224E+03  0.77520717142E+02 0.  0.
         -6    2    1    2    0  502 -0.99652183918E+02  0.69527663693E+02 -0.84495274732E+02  0.22757535878E+03  0.17287694668E+03 0.  0.
        -24    2    5    5    0    0 -0.22795404474E+02  0.32158476880E+02  0.20967814574E+02  0.91752040181E+02  0.80156032393E+02 0.  0.
          5    1    3    3  501    0 -0.34453933056E+02 -0.18768654680E+02  0.69486349885E+02  0.79936091485E+02  0.47000000000E+01 0. -1.
        -13    1    4    4    0    0  0.98431008549E+02 -0.70385991812E+02  0.70926321248E+02  0.14026187769E+03  0.00000000000E+00 0.  1.
         14    1    4    4    0    0  0.35675108425E+02  0.19626982799E+02  0.38717565947E+02  0.56187024550E+02  0.00000000000E+00 0. -1.
         -5    1    5    5    0  502 -0.76856779444E+02  0.37369186813E+02 -0.10546308931E+03  0.13582331860E+03  0.47000000000E+01 0.  1.
         11    1    6    6    0    0 -0.27373986410E+02 -0.92777123622E+01 -0.18522331496E+02  0.34329110718E+02  0.00000000000E+00 0. -1.
        -12    1    6    6    0    0  0.45785819357E+01  0.41436189242E+02  0.39490146070E+02  0.57422929463E+02  0.00000000000E+00 0.  1.
</event>
<event>
12    1  0.8684423E-002  0.1873102E+03  0.7818608E-02  0.1162041E+00
         21   -1    0    0  501  502  0.00000000000E+00  0.00000000000E+00  0.94919847915E+02  0.94919847915E+02  0.00000000000E+00 0. -1.
         21   -1    0    0  502  503 -0.00000000000E+00 -0.00000000000E+00 -0.36158542661E+03  0.36158542661E+03  0.00000000000E+00 0. -1.
         -6    2    1    2    0  503  0.11180324987E+02 -0.57231537183E+02 -0.11702394361E+03  0.21676015388E+03  0.17288699320E+03 0.  0.
        -24    2    3    3    0    0 -0.15759177259E+02 -0.24734420763E+02  0.68469688574E+01  0.85810192782E+02  0.80351508787E+02 0.  0.
          6    2    1    2  501    0 -0.11180324987E+02  0.57231537183E+02 -0.14964163508E+03  0.23974512064E+03  0.17800184102E+03 0.  0.
         24    2    5    5    0    0 -0.59293178187E+01  0.72010445984E+02 -0.17780206055E+03  0.20717076287E+03  0.78009557841E+02 0.  0.
          5    1    5    5  501    0 -0.52510071681E+01 -0.14778908801E+02  0.28160425464E+02  0.32574357767E+02  0.47000000000E+01 0. -1.
        -11    1    6    6    0    0  0.76900763045E+01  0.67321403566E+02 -0.66497345332E+02  0.94937903853E+02  0.00000000000E+00 0.  1.
         12    1    6    6    0    0 -0.13619394123E+02  0.46890424176E+01 -0.11130471522E+03  0.11223285902E+03  0.00000000000E+00 0. -1.
         -5    1    3    3    0  503  0.26939502246E+02 -0.32497116420E+02 -0.12387091247E+03  0.13094996110E+03  0.47000000000E+01 0.  1.
         13    1    4    4    0    0 -0.68480766733E+01 -0.53943551179E+02 -0.58915280838E+00  0.54379683421E+02  0.00000000000E+00 0. -1.
        -14    1    4    4    0    0 -0.89111005859E+01  0.29209130416E+02  0.74361216658E+01  0.31430509361E+02  0.00000000000E+00 0.  1.
</event>
<event>
12    1  0.8684423E-002  0.1793877E+03  0.7818608E-02  0.1168617E+00
         21   -1    0    0  503  502  0.00000000000E+00  0.00000000000E+00  0.65853044421E+03  0.65853044421E+03  0.00000000000E+00 0. -1.
         21   -1    0    0  501  503 -0.00000000000E+00 -0.00000000000E+00 -0.53472714352E+02  0.53472714352E+02  0.00000000000E+00 0. -1.
          6    2    1    2  501    0 -0.47700965757E+02 -0.26354095075E+01  0.41046280268E+03  0.44795049269E+03  0.17290923630E+03 0.  0.
         24    2    3    3    0    0 -0.95235986561E+02  0.50136281532E+01  0.28420151416E+03  0.31273921742E+03  0.89108292879E+02 0.  0.
         -6    2    1    2    0  502  0.47700965757E+02  0.26354095075E+01  0.19459492718E+03  0.26405266587E+03  0.17197179174E+03 0.  0.
        -24    2    5    5    0    0  0.33190444582E+02  0.20616950615E+02  0.25275812425E+02  0.93099620665E+02  0.80635032151E+02 0.  0.
          5    1    3    3  501    0  0.47535020804E+02 -0.76490376607E+01  0.12626128852E+03  0.13521127526E+03  0.47000000000E+01 0. -1.
        -13    1    4    4    0    0  0.39422152743E+00 -0.14596714616E+02  0.27762656323E+01  0.14863617966E+02  0.00000000000E+00 0.  1.
         14    1    4    4    0    0 -0.95630208088E+02  0.19610342769E+02  0.28142524853E+03  0.29787559946E+03  0.00000000000E+00 0. -1.
         -5    1    5    5    0  502  0.14510521175E+02 -0.17981541108E+02  0.16931911475E+03  0.17095304521E+03  0.47000000000E+01 0.  1.
         13    1    6    6    0    0  0.24808739439E+02 -0.29560357151E+02  0.83407845228E+01  0.39482362568E+02  0.00000000000E+00 0. -1.
        -14    1    6    6    0    0  0.83817051430E+01  0.50177307767E+02  0.16935027902E+02  0.53617258097E+02  0.00000000000E+00 0.  1.
</event>
<event>
12    1  0.8684423E-002  0.2114304E+03  0.7818608E-02  0.1141026E+00
         21   -1    0    0  503  502  0.00000000000E+00  0.00000000000E+00  0.89999345308E+03  0.89999345308E+03  0.00000000000E+00 0. -1.
         21   -1    0    0  501  503 -0.00000000000E+00 -0.00000000000E+00 -0.81627363790E+02  0.81627363790E+02  0.00000000000E+00 0. -1.
          6    2    1    2  501    0  0.22092197121E+02  0.11846055892E+03  0.97026013526E+02  0.22993316933E+03  0.17010069331E+03 0.  0.
         24    2    3    3    0    0 -0.33259361593E+02  0.68633367736E+02  0.10849052246E+03  0.15443436803E+03  0.79139473492E+02 0.  0.
         -6    2    1    2    0  502 -0.22092197121E+02 -0.11846055892E+03  0.72134007576E+03  0.75168764753E+03  0.17372923001E+03 0.  0.
        -24    2    5    5    0    0 -0.25263789326E+02 -0.33568711381E+02  0.57714435441E+03  0.58426249759E+03  0.80634625515E+02 0.  0.
          5    1    3    3  501    0  0.55351558714E+02  0.49827191187E+02 -0.11464508932E+02  0.75498801306E+02  0.47000000000E+01 0. -1.
        -13    1    4    4    0    0 -0.25365121114E+02  0.48454823208E+02  0.11854055709E+03  0.13054931228E+03  0.00000000000E+00 0.  1.
         14    1    4    4    0    0 -0.78942404796E+01  0.20178544528E+02 -0.10050034632E+02  0.23885055749E+02  0.00000000000E+00 0. -1.
         -5    1    5    5    0  502  0.31715922050E+01 -0.84891847542E+02  0.14419572135E+03  0.16742514994E+03  0.47000000000E+01 0.  1.
         11    1    6    6    0    0 -0.34524257131E+02 -0.55394501229E+02  0.36425538638E+03  0.37005737609E+03  0.00000000000E+00 0. -1.
        -12    1    6    6    0    0  0.92604678048E+01  0.21825789848E+02  0.21288896803E+03  0.21420512150E+03  0.00000000000E+00 0.  1.
</event>
<event>
12    1  0.8684423E-002  0.1761568E+03  0.7818608E-02  0.1173748E+00
         21   -1    0    0  501  502  0.00000000000E+00  0.00000000000E+00  0.45489993321E+03  0.45489993321E+03  0.00000000000E+00 0. -1.
         21   -1    0    0  502  503 -0.00000000000E+00 -0.00000000000E+00 -0.15831786995E+03  0.15831786995E+03  0.00000000000E+00 0. -1.
         -6    2    1    2    0  503  0.34726856012E+02 -0.13470062275E+01 -0.88629994736E+02  0.18963836043E+03  0.16401116677E+03 0.  0.
        -24    2    3    3    0    0  0.22460944353E+02  0.61136454150E+02 -0.70572526373E+02  0.12328478047E+03  0.77307797601E+02 0.  0.
          6    2    1    2  501    0 -0.34726856012E+02  0.13470062275E+01  0.38521205800E+03  0.42357944274E+03  0.17269466038E+03 0.  0.
         24    2    5    5    0    0  0.41032698100E+02 -0.29415731669E+02  0.16650182377E+03  0.19003691419E+03  0.76434310704E+02 0.  0.
          5    1    5    5  501    0 -0.75759554112E+02  0.30762737896E+02  0.21871023423E+03  0.23354252855E+03  0.47000000000E+01 0. -1.
        -13    1    6    6    0    0  0.53533231766E+02  0.59228200392E+01  0.10511783267E+03  0.11811285047E+03  0.00000000000E+00 0.  1.
         14    1    6    6    0    0 -0.12500533666E+02 -0.35338551708E+02  0.61383991098E+02  0.71924063719E+02  0.00000000000E+00 0. -1.
         -5    1    3    3    0  503  0.12265911659E+02 -0.62483460377E+02 -0.18057468363E+02  0.66353579958E+02  0.47000000000E+01 0.  1.
         11    1    4    4    0    0 -0.28281629176E+02  0.16577186081E+02 -0.30404776622E+02  0.44711341835E+02  0.00000000000E+00 0. -1.
        -12    1    4    4    0    0  0.50742573529E+02  0.44559268068E+02 -0.40167749751E+02  0.78573438636E+02  0.00000000000E+00 0.  1.
</event>
<event>
12    1  0.8684423E-002  0.3798025E+03  0.7818608E-02  0.1051044E+00
         21   -1    0    0  503  502  0.00000000000E+00  0.00000000000E+00  0.47810432309E+03  0.47810432309E+03  0.00000000000E+00 0. -1.
         21   -1    0    0  501  503 -0.00000000000E+00 -0.00000000000E+00 -0.70682336264E+03  0.70682336264E+03  0.00000000000E+00 0.  1.
          6    2    1    2  501    0  0.32349845990E+03 -0.10073108649E+03 -0.56309452930E+03  0.67920937653E+03  0.17161562543E+03 0.  0.
         24    2    3    3    0    0  0.22043843951E+03 -0.54597442940E+01 -0.40970915156E+03  0.47124985991E+03  0.74779189437E+02 0.  0.
         -6    2    1    2    0  502 -0.32349845990E+03  0.10073108649E+03  0.33437548975E+03  0.50571830921E+03  0.17072209810E+03 0.  0.
        -24    2    5    5    0    0 -0.30645146238E+03  0.52473743670E+02  0.25013455108E+03  0.40703701915E+03  0.80286043256E+02 0.  0.
          5    1    3    3  501    0  0.10306002039E+03 -0.95271342194E+02 -0.15338537774E+03  0.20795951662E+03  0.47000000000E+01 0. -1.
        -13    1    4    4    0    0  0.15452519703E+03 -0.32105492138E+02 -0.31983216302E+03  0.35665306903E+03  0.00000000000E+00 0.  1.
         14    1    4    4    0    0  0.65913242480E+02  0.26645747844E+02 -0.89876988535E+02  0.11459679088E+03  0.00000000000E+00 0. -1.
         -5    1    5    5    0  502 -0.17046997518E+02  0.48257342818E+02  0.84240938665E+02  0.98681290058E+02  0.47000000000E+01 0.  1.
         11    1    6    6    0    0 -0.72826892800E+02  0.27824522688E+02  0.10543444403E+03  0.13112735171E+03  0.00000000000E+00 0. -1.
        -12    1    6    6    0    0 -0.23362456958E+03  0.24649220983E+02  0.14470010706E+03  0.27590966745E+03  0.00000000000E+00 0.  1.
</event>
<event>
12    1  0.8684423E-002  0.2456236E+03  0.7818608E-02  0.1116243E+00
         21   -1    0    0  501  502  0.00000000000E+00  0.00000000000E+00  0.39027220061E+03  0.39027220061E+03  0.00000000000E+00 0.  1.
         21   -1    0    0  502  503 -0.00000000000E+00 -0.00000000000E+00 -0.26099814670E+03  0.26099814670E+03  0.00000000000E+00 0.  1.
         -6    2    1    2    0  503  0.11403522016E+03 -0.13409737588E+03 -0.14388710921E+03  0.28391769752E+03  0.17005769935E+03 0.  0.
        -24    2    3    3    0    0  0.15049176902E+02 -0.85093586328E+01 -0.70989479156E+02  0.10811456528E+03  0.79689184739E+02 0.  0.
          6    2    1    2  501    0 -0.11403522016E+03  0.13409737588E+03  0.27316116312E+03  0.36735264979E+03  0.17130327088E+03 0.  0.
         24    2    5    5    0    0 -0.13596079896E+03  0.79335573799E+02  0.23521812253E+03  0.29705791100E+03  0.90201802604E+02 0.  0.
          5    1    5    5  501    0  0.21925578798E+02  0.54761802086E+02  0.37943040591E+02  0.70294738798E+02  0.47000000000E+01 0. -1.
        -11    1    6    6    0    0 -0.71653365576E+02  0.38233206464E+01  0.15005122764E+03  0.16632556476E+03  0.00000000000E+00 0.  1.
         12    1    6    6    0    0 -0.64307433387E+02  0.75512253152E+02  0.85166894897E+02  0.13073234623E+03  0.00000000000E+00 0. -1.
         -5    1    3    3    0  503  0.98986043263E+02 -0.12558801725E+03 -0.72897630056E+02  0.17580313224E+03  0.47000000000E+01 0.  1.
         11    1    4    4    0    0 -0.28487199962E+01 -0.31731901445E+02 -0.60238596913E+00  0.31865210556E+02  0.00000000000E+00 0. -1.
        -12    1    4    4    0    0  0.17897896898E+02  0.23222542812E+02 -0.70387093187E+02  0.76249354721E+02  0.00000000000E+00 0.  1.
</event>
<event>
12    1  0.8684423E-002  0.2071536E+03  0.7818608E-02  0.1144170E+00
         21   -1    0    0  503  502  0.00000000000E+00  0.00000000000E+00  0.42474679633E+03  0.42474679633E+03  0.00000000000E+00 0.  1.
         21   -1    0    0  501  503 -0.00000000000E+00 -0.00000000000E+00 -0.13343972422E+03  0.13343972422E+03  0.00000000000E+00 0.  1.
          6    2    1    2  501    0 -0.10778283691E+03 -0.35860136359E+02  0.60070143479E+01  0.20561205379E+03  0.17128088957E+03 0.  0.
         24    2    3    3    0    0 -0.12148763372E+03 -0.74738080226E+02 -0.41084126540E+01  0.16290692719E+03  0.78592379323E+02 0.  0.
         -6    2    1    2    0  502  0.10778283691E+03  0.35860136359E+02  0.28530005776E+03  0.35257446676E+03  0.17323262493E+03 0.  0.
        -24    2    5    5    0    0  0.84354238356E+02  0.91167712316E+02  0.20818498303E+03  0.25471409716E+03  0.78173491882E+02 0.  0.
          5    1    3    3  501    0  0.13704796814E+02  0.38877943866E+02  0.10115427002E+02  0.42705126606E+02  0.47000000000E+01 0. -1.
        -11    1    4    4    0    0 -0.82608837893E+02 -0.65005309962E+02  0.31033339906E+02  0.10960373446E+03  0.00000000000E+00 0.  1.
         12    1    4    4    0    0 -0.38878795828E+02 -0.97327702637E+01 -0.35141752560E+02  0.53303192728E+02  0.00000000000E+00 0. -1.
         -5    1    5    5    0  502  0.23428598550E+02 -0.55307575956E+02  0.77115074726E+02  0.97860369600E+02  0.47000000000E+01 0.  1.
         11    1    6    6    0    0  0.26684838572E+02  0.72798346075E+02  0.72536075225E+02  0.10617514780E+03  0.00000000000E+00 0. -1.
        -12    1    6    6    0    0  0.57669399784E+02  0.18369366241E+02  0.13564890781E+03  0.14853894936E+03  0.00000000000E+00 0.  1.
</event>
<event>
12    1  0.8684423E-002  0.1848388E+03  0.7818608E-02  0.1164184E+00
         21   -1    0    0  503  502  0.00000000000E+00  0.00000000000E+00  0.18072034963E+03  0.18072034963E+03  0.00000000000E+00 0. -1.
         21   -1    0    0  501  503 -0.00000000000E+00 -0.00000000000E+00 -0.21995179292E+03  0.21995179292E+03  0.00000000000E+00 0.  1.
          6    2    1    2  501    0  0.54682197778E+02 -0.42372404181E+02 -0.99861109739E+02  0.21008956493E+03  0.17140542775E+03 0.  0.
         24    2    3    3    0    0  0.80308979818E+02  0.80792199576E+01 -0.24842802868E+02  0.11600484405E+03  0.79530830215E+02 0.  0.
         -6    2    1    2    0  502 -0.54682197778E+02  0.42372404181E+02  0.60629666445E+02  0.19058257763E+03  0.16691374734E+03 0.  0.
        -24    2    5    5    0    0 -0.80617035564E+02 -0.17377080719E+02  0.29374343762E+02  0.11818366912E+03  0.79394321072E+02 0.  0.
          5    1    3    3  501    0 -0.25626782041E+02 -0.50451624139E+02 -0.75018306871E+02  0.94084720873E+02  0.47000000000E+01 0. -1.
        -11    1    4    4    0    0  0.60724502008E+01  0.32418639886E+02  0.28781287661E+01  0.33107801024E+02  0.00000000000E+00 0.  1.
         12    1    4    4    0    0  0.74236529618E+02 -0.24339419928E+02 -0.27720931634E+02  0.82897043028E+02  0.00000000000E+00 0. -1.
         -5    1    5    5    0  502  0.25934837786E+02  0.59749484900E+02  0.31255322683E+02  0.72398908506E+02  0.47000000000E+01 0.  1.
         11    1    6    6    0    0 -0.17530047146E+01 -0.13398061459E+02  0.36478236877E+02  0.38900422132E+02  0.00000000000E+00 0. -1.
        -12    1    6    6    0    0 -0.78864030849E+02 -0.39790192596E+01 -0.71038931147E+01  0.79283246991E+02  0.00000000000E+00 0.  1.
</event>
<event>
12    1  0.8684423E-002  0.1843161E+03  0.7818608E-02  0.1164294E+00
         21   -1    0    0  503  502  0.00000000000E+00  0.00000000000E+00  0.14780561163E+03  0.14780561163E+03  0.00000000000E+00 0.  1.
         21   -1    0    0  501  503 -0.00000000000E+00 -0.00000000000E+00 -0.28082727511E+03  0.28082727511E+03  0.00000000000E+00 0.  1.
          6    2    1    2  501    0  0.55558048518E+02 -0.34660485847E+02 -0.16099867092E+03  0.24473046989E+03  0.17229156920E+03 0.  0.
         24    2    3    3    0    0 -0.19588095045E+02 -0.55955228558E+02 -0.60142701180E+02  0.11708084947E+03  0.81093154692E+02 0.  0.
         -6    2    1    2    0  502 -0.55558048518E+02  0.34660485847E+02  0.27977007442E+02  0.18390241685E+03  0.16955630317E+03 0.  0.
        -24    2    5    5    0    0 -0.66310147115E+02 -0.24686794176E+02 -0.17407408227E+02  0.10827476016E+03  0.80087030226E+02 0.  0.
          5    1    3    3  501    0  0.75146143563E+02  0.21294742710E+02 -0.10085596974E+03  0.12764962041E+03  0.47000000000E+01 0. -1.
        -13    1    4    4    0    0 -0.27148413072E+02 -0.38731737418E+02 -0.77950781130E+02  0.91178440952E+02  0.00000000000E+00 0.  1.
         14    1    4    4    0    0  0.75603180267E+01 -0.17223491140E+02  0.17808079950E+02  0.25902408522E+02  0.00000000000E+00 0. -1.
         -5    1    5    5    0  502  0.10752098597E+02  0.59347280024E+02  0.45384415669E+02  0.75627656688E+02  0.47000000000E+01 0.  1.
         11    1    6    6    0    0 -0.30256778848E+02  0.25601473679E+02  0.95683646711E+01  0.40773296694E+02  0.00000000000E+00 0. -1.
        -12    1    6    6    0    0 -0.36053368267E+02 -0.50288267855E+02 -0.26975772898E+02  0.67501463471E+02  0.00000000000E+00 0.  1.
</event>
<event>
12    1  0.8684423E-002  0.1978985E+03  0.7818608E-02  0.1151668E+00
         21   -1    0    0  501  502  0.00000000000E+00  0.00000000000E+00  0.10211077513E+04  0.10211077513E+04  0.00000000000E+00 0. -1.
         21   -1    0    0  502  503 -0.00000000000E+00 -0.00000000000E+00 -0.72370080463E+02  0.72370080463E+02  0.00000000000E+00 0. -1.
         -6    2    1    2    0  503  0.94139826712E+02 -0.30129332120E+02  0.99243952271E+02  0.22138923915E+03  0.17144605425E+03 0.  0.
        -24    2    3    3    0    0  0.12478250759E+03 -0.50948684451E+02  0.96524954295E+02  0.18394725372E+03  0.79706227490E+02 0.  0.
          6    2    1    2  501    0 -0.94139826712E+02  0.30129332120E+02  0.84949371852E+03  0.87208859257E+03  0.17067176645E+03 0.  0.
         24    2    5    5    0    0 -0.12784712885E+02  0.20363634320E+02  0.66412466797E+03  0.66936267341E+03  0.80041785700E+02 0.  0.
          5    1    5    5  501    0 -0.81355113827E+02  0.97656978006E+01  0.18536905055E+03  0.20272591916E+03  0.47000000000E+01 0. -1.
        -13    1    6    6    0    0  0.12720124216E+02 -0.40929496703E+01  0.18765685892E+02  0.23037030279E+02  0.00000000000E+00 0.  1.
         14    1    6    6    0    0 -0.25504837101E+02  0.24456583990E+02  0.64535898208E+03  0.64632564313E+03  0.00000000000E+00 0. -1.
         -5    1    3    3    0  503 -0.30642680878E+02  0.20819352331E+02  0.27189979767E+01  0.37441985429E+02  0.47000000000E+01 0.  1.
         13    1    4    4    0    0 -0.10884874591E+02 -0.52084671201E+01  0.16136413381E+01  0.12174254103E+02  0.00000000000E+00 0. -1.
        -14    1    4    4    0    0  0.13566738218E+03 -0.45740217331E+02  0.94911312957E+02  0.17177299961E+03  0.00000000000E+00 0.  1.
</event>
<event>
12    1  0.8684423E-002  0.1784102E+03  0.7818608E-02  0.1169613E+00
         21   -1    0    0  501  502  0.00000000000E+00  0.00000000000E+00  0.23233249057E+03  0.23233249057E+03  0.00000000000E+00 0.  1.
         21   -1    0    0  502  503 -0.00000000000E+00 -0.00000000000E+00 -0.14235883201E+03  0.14235883201E+03  0.00000000000E+00 0.  1.
         -6    2    1    2    0  503  0.25222126074E+02  0.38864153806E+02  0.58429450122E+01  0.17743979394E+03  0.17118458567E+03 0.  0.
        -24    2    3    3    0    0 -0.47929515047E+02  0.28532482821E+02  0.26900588327E+02  0.10047603385E+03  0.79123010169E+02 0.  0.
          6    2    1    2  501    0 -0.25222126074E+02 -0.38864153806E+02  0.84130713543E+02  0.19725152864E+03  0.17228932206E+03 0.  0.
         24    2    5    5    0    0 -0.75504143421E+02 -0.64108209515E+01  0.27878396045E+02  0.11498420034E+03  0.81866886241E+02 0.  0.
          5    1    5    5  501    0  0.50282017347E+02 -0.32453332854E+02  0.56252317498E+02  0.82267328301E+02  0.47000000000E+01 0. -1.
        -11    1    6    6    0    0 -0.67507115604E+02  0.17477316011E+02  0.46362941209E+02  0.83738817460E+02  0.00000000000E+00 0.  1.
         12    1    6    6    0    0 -0.79970278167E+01 -0.23888136962E+02 -0.18484545163E+02  0.31245382880E+02  0.00000000000E+00 0. -1.
         -5    1    3    3    0  503  0.73151641121E+02  0.10331670984E+02 -0.21057643315E+02  0.76963760082E+02  0.47000000000E+01 0.  1.
         11    1    4    4    0    0  0.43252290920E+01  0.37842064072E+02 -0.52071103564E+01  0.38442729068E+02  0.00000000000E+00 0. -1.
        -12    1    4    4    0    0 -0.52254744139E+02 -0.93095812503E+01  0.32107698683E+02  0.62033304787E+02  0.00000000000E+00 0.  1.
</event>
<event>
12    1  0.8684423E-002  0.2497556E+03  0.7818608E-02  0.1113632E+00
         21   -1    0    0  503  502  0.00000000000E+00  0.00000000000E+00  0.62196842016E+03  0.62196842016E+03  0.00000000000E+00 0.  1.
         21   -1    0    0  501  503 -0.00000000000E+00 -0.00000000000E+00 -0.10463759165E+03  0.10463759165E+03  0.00000000000E+00 0. -1.
          6    2    1    2  501    0 -0.37738310635E+02 -0.17659263930E+03  0.18046103267E+03  0.30725038809E+03  0.17096045252E+03 0.  0.
         24    2    3    3    0    0 -0.25823692078E+02 -0.15677934026E+02  0.75451977861E+02  0.11467704596E+03  0.80902183029E+02 0.  0.
         -6    2    1    2    0  502  0.37738310635E+02  0.17659263930E+03  0.33686979584E+03  0.41935562372E+03  0.17253619751E+03 0.  0.
        -24    2    5    5    0    0  0.16834143824E+02  0.11374855383E+03  0.32155879490E+03  0.35121694147E+03  0.82043643886E+02 0.  0.
          5    1    3    3  501    0 -0.11914618557E+02 -0.16091470527E+03  0.10500905481E+03  0.19257334213E+03  0.47000000000E+01 0. -1.
        -13    1    4    4    0    0 -0.48408414455E+01 -0.31493793681E+02  0.81678372462E+02  0.87673538278E+02  0.00000000000E+00 0.  1.
         14    1    4    4    0    0 -0.20982850633E+02  0.15815859655E+02 -0.62263946008E+01  0.27003507680E+02  0.00000000000E+00 0. -1.
         -5    1    5    5    0  502  0.20904166811E+02  0.62844085468E+02  0.15311000940E+02  0.68138682246E+02  0.47000000000E+01 0.  1.
         11    1    6    6    0    0 -0.80901263713E+01  0.87004919385E+01 -0.14331895063E+00  0.11881466450E+02  0.00000000000E+00 0. -1.
        -12    1    6    6    0    0  0.24924270196E+02  0.10504806189E+03  0.32170211385E+03  0.33933547502E+03  0.00000000000E+00 0.  1.
</event>
<event>
12    1  0.8684423E-002  0.2353426E+03  0.7818608E-02  0.1123301E+00
         21   -1    0    0  503  502  0.00000000000E+00  0.00000000000E+00  0.43133916198E+03  0.43133916198E+03  0.00000000000E+00 0. -1.
         21   -1    0    0  501  503 -0.00000000000E+00 -0.00000000000E+00 -0.13385813614E+03  0.13385813614E+03  0.00000000000E+00 0.  1.
          6    2    1    2  501    0  0.28928684697E+02 -0.15633928987E+03  0.21090903577E+03  0.31443672510E+03  0.17061357028E+03 0.  0.
         24    2    3    3    0    0 -0.24100554583E+02 -0.24785142317E+02  0.50195771168E+02  0.10003188053E+03  0.79319743238E+02 0.  0.
         -6    2    1    2    0  502 -0.28928684697E+02  0.15633928987E+03  0.86571990070E+02  0.25076057303E+03  0.17351459064E+03 0.  0.
        -24    2    5    5    0    0  0.36925404715E+02  0.20062661675E+02  0.33440012369E+02  0.90282607131E+02  0.72572162820E+02 0.  0.
          5    1    3    3  501    0  0.53029239280E+02 -0.13155414755E+03  0.16071326460E+03  0.21440484457E+03  0.47000000000E+01 0. -1.
        -11    1    4    4    0    0  0.27218115697E+02 -0.69890586195E+01  0.33419653756E+01  0.28299143009E+02  0.00000000000E+00 0.  1.
         12    1    4    4    0    0 -0.51318670280E+02 -0.17796083698E+02  0.46853805793E+02  0.71732737516E+02  0.00000000000E+00 0. -1.
         -5    1    5    5    0  502 -0.65854089412E+02  0.13627662819E+03  0.53131977702E+02  0.16047796590E+03  0.47000000000E+01 0.  1.
         13    1    6    6    0    0  0.23514196739E+02 -0.17552263034E+02 -0.10259541799E+02  0.31084684071E+02  0.00000000000E+00 0. -1.
        -14    1    6    6    0    0  0.13411207976E+02  0.37614924709E+02  0.43699554168E+02  0.59197923060E+02  0.00000000000E+00 0.  1.
</event>
<event>
12    1  0.8684423E-002  0.1901732E+03  0.7818608E-02  0.1158876E+00
         21   -1    0    0  501  502  0.00000000000E+00  0.00000000000E+00  0.10762045035E+03  0.10762045035E+03  0.00000000000E+00 0. -1.
         21   -1    0    0  502  503 -0.00000000000E+00 -0.00000000000E+00 -0.51917654933E+03  0.51917654933E+03  0.00000000000E+00 0.  1.
         -6    2    1    2    0  503  0.90918061099E+00 -0.76155114045E+02 -0.39326940875E+03  0.43574659282E+03  0.17150462761E+03 0.  0.
        -24    2    3    3    0    0  0.22467804167E+02 -0.96253301619E+02 -0.38379200491E+03  0.40443169897E+03  0.80617589889E+02 0.  0.
          6    2    1    2  501    0 -0.90918061099E+00  0.76155114045E+02 -0.18286690226E+02  0.19105040685E+03  0.17425678441E+03 0.  0.
         24    2    5    5    0    0 -0.13164545695E+02  0.94667279186E+02  0.38023998631E+02  0.13033897538E+03  0.80045143639E+02 0.  0.
          5    1    5    5  501    0  0.12255365084E+02 -0.18512165141E+02 -0.56310688857E+02  0.60711431469E+02  0.47000000000E+01 0. -1.
        -11    1    6    6    0    0 -0.16739425541E+02 -0.37699980597E+00 -0.14092341289E+02  0.21884802473E+02  0.00000000000E+00 0.  1.
         12    1    6    6    0    0  0.35748798454E+01  0.95044278992E+02  0.52116339920E+02  0.10845417291E+03  0.00000000000E+00 0. -1.
         -5    1    3    3    0  503 -0.21558623556E+02  0.20098187574E+02 -0.94774038391E+01  0.31314893851E+02  0.47000000000E+01 0.  1.
         11    1    4    4    0    0  0.44931905607E+01 -0.14909773751E+02 -0.46587356050E+01  0.16254043564E+02  0.00000000000E+00 0. -1.
        -12    1    4    4    0    0  0.17974613606E+02 -0.81343527868E+02 -0.37913326931E+03  0.38817765541E+03  0.00000000000E+00 0.  1.
</event>
<event>
12    1  0.8684423E-002  0.2504201E+03  0.7818608E-02  0.1113068E+00
         21   -1    0    0  503  502  0.00000000000E+00  0.00000000000E+00  0.17848859843E+03  0.17848859843E+03  0.00000000000E+00 0. -1.
         21   -1    0    0  501  503 -0.00000000000E+00 -0.00000000000E+00 -0.55354077255E+03  0.55354077255E+03  0.00000000000E+00 0.  1.
          6    2    1    2  501    0 -0.12158350072E+03 -0.13485309216E+03 -0.40883710893E+03  0.47934051338E+03  0.17219652149E+03 0.  0.
         24    2    3    3    0    0 -0.14486016403E+03 -0.13513952586E+03 -0.40141571487E+03  0.45445975396E+03  0.78434260753E+02 0.  0.
         -6    2    1    2    0  502  0.12158350072E+03  0.13485309216E+03  0.33784934809E+02  0.25268885760E+03  0.17245965564E+03 0.  0.
        -24    2    5    5    0    0  0.12098316121E+02  0.23108659641E+02  0.14558297657E+02  0.95000629056E+02  0.90182016428E+02 0.  0.
          5    1    3    3  501    0  0.23276663308E+02  0.28643369927E+00 -0.74213940634E+01  0.24880759411E+02  0.47000000000E+01 0. -1.
        -13    1    4    4    0    0 -0.21039582718E+02 -0.48514628183E+02 -0.17034079206E+03  0.17836008137E+03  0.00000000000E+00 0.  1.
         14    1    4    4    0    0 -0.12382058131E+03 -0.86624897677E+02 -0.23107492281E+03  0.27609967259E+03  0.00000000000E+00 0. -1.
         -5    1    5    5    0  502  0.10948518460E+03  0.11174443252E+03  0.19226637152E+02  0.15768822855E+03  0.47000000000E+01 0.  1.
         11    1    6    6    0    0 -0.11443618858E+02  0.16115850839E+02  0.48921640659E+02  0.52763661601E+02  0.00000000000E+00 0. -1.
        -12    1    6    6    0    0  0.23541934979E+02  0.69928088020E+01 -0.34363343002E+02  0.42236967455E+02  0.00000000000E+00 0.  1.
</event>
<event>
12    1  0.8684423E-002  0.2137030E+03  0.7818608E-02  0.1138873E+00
         21   -1    0    0  501  502  0.00000000000E+00  0.00000000000E+00  0.19699745438E+03  0.19699745438E+03  0.00000000000E+00 0. -1.
         21   -1    0    0  502  503 -0.00000000000E+00 -0.00000000000E+00 -0.38930627350E+03  0.38930627350E+03  0.00000000000E+00 0.  1.
         -6    2    1    2    0  503  0.12311535092E+03 -0.17902684703E+02 -0.28342559698E+03  0.35496345352E+03  0.17375583029E+03 0.  0.
        -24    2    3    3    0    0 -0.47789284981E+01 -0.66712415739E+01 -0.14480812589E+03  0.16596613789E+03  0.80672312359E+02 0.  0.
          6    2    1    2  501    0 -0.12311535092E+03  0.17902684703E+02  0.91116777861E+02  0.23134027436E+03  0.17244755603E+03 0.  0.
         24    2    5    5    0    0 -0.62492576051E+02 -0.56866270008E+02  0.42276433939E+02  0.12329867767E+03  0.79222296874E+02 0.  0.
          5    1    5    5  501    0 -0.60622774870E+02  0.74768954711E+02  0.48840343922E+02  0.10804159669E+03  0.47000000000E+01 0. -1.
        -13    1    6    6    0    0  0.10708510968E+02 -0.20814371653E+02  0.34005736682E+02  0.41283173348E+02  0.00000000000E+00 0.  1.
         14    1    6    6    0    0 -0.73201087019E+02 -0.36051898355E+02  0.82706972570E+01  0.82015504320E+02  0.00000000000E+00 0. -1.
         -5    1    3    3    0  503  0.12789427942E+03 -0.11231443129E+02 -0.13861747109E+03  0.18899731563E+03  0.47000000000E+01 0.  1.
         13    1    4    4    0    0  0.74414828210E+01 -0.40525959406E+02 -0.51484667438E+02  0.65942399361E+02  0.00000000000E+00 0. -1.
        -14    1    4    4    0    0 -0.12220411319E+02  0.33854717832E+02 -0.93323458452E+02  0.10002373853E+03  0.00000000000E+00 0.  1.
</event>
<event>
12    1  0.8684423E-002  0.1732329E+03  0.7818608E-02  0.1174824E+00
         21   -1    0    0  503  502  0.00000000000E+00  0.00000000000E+00  0.11288878273E+03  0.11288878273E+03  0.00000000000E+00 0.  1.
         21   -1    0    0  501  503 -0.00000000000E+00 -0.00000000000E+00 -0.54678515191E+03  0.54678515191E+03  0.00000000000E+00 0.  1.
          6    2    1    2  501    0 -0.19653123262E+02 -0.15175102231E+02 -0.45378827779E+03  0.48530266318E+03  0.17023027007E+03 0.  0.
         24    2    3    3    0    0 -0.58933326297E+01  0.52740277184E+02 -0.33233813594E+03  0.34539534545E+03  0.77672645451E+02 0.  0.
         -6    2    1    2    0  502  0.19653123262E+02  0.15175102231E+02  0.19891908602E+02  0.17437127146E+03  0.17144422797E+03 0.  0.
        -24    2    5    5    0    0  0.45073985194E+02  0.59050736027E+02  0.45323944898E+02  0.11744878090E+03  0.78875234301E+02 0.  0.
          5    1    3    3  501    0 -0.13759790632E+02 -0.67915379415E+02 -0.12145014185E+03  0.13990731773E+03  0.47000000000E+01 0. -1.
        -11    1    4    4    0    0 -0.23769825814E+02 -0.31850559703E+01 -0.18874474831E+03  0.19026226430E+03  0.00000000000E+00 0.  1.
         12    1    4    4    0    0  0.17876493184E+02  0.55925333154E+02 -0.14359338763E+03  0.15513308115E+03  0.00000000000E+00 0. -1.
         -5    1    5    5    0  502 -0.25420861932E+02 -0.43875633796E+02 -0.25432036296E+02  0.56922490569E+02  0.47000000000E+01 0.  1.
         11    1    6    6    0    0  0.61967308932E+02  0.23219608641E+02  0.15777265041E+02  0.68029550152E+02  0.00000000000E+00 0. -1.
        -12    1    6    6    0    0 -0.16893323738E+02  0.35831127387E+02  0.29546679858E+02  0.49419230744E+02  0.00000000000E+00 0.  1.
</event>
<event>
12    1  0.8684423E-002  0.2072252E+03  0.7818608E-02  0.1144615E+00
         21   -1    0    0  503  502  0.00000000000E+00  0.00000000000E+00  0.51828226999E+03  0.51828226999E+03  0.00000000000E+00 0.  1.
         21   -1    0    0  501  503 -0.00000000000E+00 -0.00000000000E+00 -0.14393421970E+03  0.14393421970E+03  0.00000000000E+00 0.  1.
          6    2    1    2  501    0  0.45821533430E+02  0.96841324238E+02 -0.30314603781E+02  0.20943078619E+03  0.17738214114E+03 0.  0.
         24    2    3    3    0    0  0.37844232994E+02 -0.19258456863E+02 -0.12240301852E+02  0.91568294769E+02  0.80198837185E+02 0.  0.
         -6    2    1    2    0  502 -0.45821533430E+02 -0.96841324238E+02  0.40466265407E+03  0.45278570349E+03  0.17258381931E+03 0.  0.
        -24    2    5    5    0    0 -0.21230566306E+02 -0.53730350502E+02  0.38694909203E+03  0.39987887973E+03  0.82679085155E+02 0.  0.
          5    1    3    3  501    0  0.79773004357E+01  0.11609978110E+03 -0.18074301928E+02  0.11786249142E+03  0.47000000000E+01 0. -1.
        -13    1    4    4    0    0 -0.16477495114E+02 -0.25462318206E+02 -0.20023121442E+02  0.36342301605E+02  0.00000000000E+00 0.  1.
         14    1    4    4    0    0  0.54321728108E+02  0.62038613428E+01  0.77828195901E+01  0.55225993164E+02  0.00000000000E+00 0. -1.
         -5    1    5    5    0  502 -0.24590967124E+02 -0.43110973736E+02  0.17713562035E+02  0.52906823762E+02  0.47000000000E+01 0.  1.
         11    1    6    6    0    0  0.18414358913E+02 -0.54309659497E+02  0.17213070724E+03  0.18143210329E+03  0.00000000000E+00 0. -1.
        -12    1    6    6    0    0 -0.39644925219E+02  0.57930899561E+00  0.21481838479E+03  0.21844677644E+03  0.00000000000E+00 0.  1.
</event>
<event>
12    1  0.8684423E-002  0.1761938E+03  0.7818608E-02  0.1171769E+00
         21   -1    0    0  503  502  0.00000000000E+00  0.00000000000E+00  0.72324882075E+02  0.72324882075E+02  0.00000000000E+00 0.  1.
         21   -1    0    0  501  503 -0.00000000000E+00 -0.00000000000E+00 -0.56083959694E+03  0.56083959694E+03  0.00000000000E+00 0.  1.
          6    2    1    2  501    0 -0.70691958017E+01 -0.34425143296E+02 -0.39842892341E+03  0.43527638049E+03  0.17171154992E+03 0.  0.
         24    2    3    3    0    0 -0.18486128994E+02 -0.14721718361E+02 -0.75756214706E+02  0.11176697064E+03  0.78704419837E+02 0.  0.
         -6    2    1    2    0  502  0.70691958017E+01  0.34425143296E+02 -0.90085791453E+02  0.19788809853E+03  0.17265336863E+03 0.  0.
        -24    2    5    5    0    0 -0.36129827729E+02  0.60662020851E+02 -0.13826450117E+02  0.10627965722E+03  0.78223715017E+02 0.  0.
          5    1    3    3  501    0  0.11416933192E+02 -0.19703424935E+02 -0.32267270871E+03  0.32350940985E+03  0.47000000000E+01 0. -1.
        -11    1    4    4    0    0 -0.16422067959E+02  0.31352666983E+02 -0.25954653923E+02  0.43889840547E+02  0.00000000000E+00 0.  1.
         12    1    4    4    0    0 -0.20640610346E+01 -0.46074385343E+02 -0.49801560783E+02  0.67877130089E+02  0.00000000000E+00 0. -1.
         -5    1    5    5    0  502  0.43199023530E+02 -0.26236877555E+02 -0.76259341335E+02  0.91608441307E+02  0.47000000000E+01 0.  1.
         13    1    6    6    0    0 -0.26329022830E+02  0.10383544115E+02 -0.39807045608E+02  0.48842976072E+02  0.00000000000E+00 0. -1.
        -14    1    6    6    0    0 -0.98008048986E+01  0.50278476735E+02  0.25980595490E+02  0.57436681150E+02  0.00000000000E+00 0.  1.
</event>
<event>
12    1  0.8684423E-002  0.2694425E+03  0.7818608E-02  0.1101820E+00
         21   -1    0    0  503  502  0.00000000000E+00  0.00000000000E+00  0.36726814687E+03  0.36726814687E+03  0.00000000000E+00 0. -1.
         21   -1    0    0  501  503 -0.00000000000E+00 -0.00000000000E+00 -0.20034496834E+03  0.20034496834E+03  0.00000000000E+00 0. -1.
          6    2    1    2  501    0  0.20494538758E+03  0.86294306848E+01  0.44638746618E+02  0.27311509990E+03  0.17470592757E+03 0.  0.
         24    2    3    3    0    0  0.42796405047E+02  0.41622572895E+02 -0.61498076553E+01  0.99960812588E+02  0.79939808980E+02 0.  0.
         -6    2    1    2    0  502 -0.20494538758E+03 -0.86294306848E+01  0.12228443191E+03  0.29449801531E+03  0.17233258476E+03 0.  0.
        -24    2    5    5    0    0 -0.15149666068E+03 -0.71078012804E+02  0.80058554344E+02  0.20196852513E+03  0.79866081162E+02 0.  0.
          5    1    3    3  501    0  0.16214898253E+03 -0.32993142210E+02  0.50788554273E+02  0.17315428731E+03  0.47000000000E+01 0. -1.
        -13    1    4    4    0    0  0.64770921197E+02  0.42127804191E+02 -0.50643140627E+00  0.77267590822E+02  0.00000000000E+00 0.  1.
         14    1    4    4    0    0 -0.21974516149E+02 -0.50523129649E+00 -0.56433762490E+01  0.22693221767E+02  0.00000000000E+00 0. -1.
         -5    1    5    5    0  502 -0.53448726900E+02  0.62448582119E+02  0.42225877563E+02  0.92529490174E+02  0.47000000000E+01 0.  1.
         11    1    6    6    0    0 -0.95421598194E+02 -0.44149498256E+01  0.59247966355E+02  0.11240593713E+03  0.00000000000E+00 0. -1.
        -12    1    6    6    0    0 -0.56075062486E+02 -0.66663062979E+02  0.20810587989E+02  0.89562588009E+02  0.00000000000E+00 0.  1.
</event>
<event>
12    1  0.8684423E-002  0.1977848E+03  0.7818608E-02  0.1151818E+00
         21   -1    0    0  501  502  0.00000000000E+00  0.00000000000E+00  0.51434764660E+02  0.51434764660E+02  0.00000000000E+00 0. -1.
         21   -1    0    0  502  503 -0.00000000000E+00 -0.00000000000E+00 -0.14563711589E+04  0.14563711589E+04  0.00000000000E+00 0. -1.
         -6    2    1    2    0  503  0.59554999174E+02  0.77667552634E+02 -0.12257343196E+04  0.12415890861E+04  0.17187143347E+03 0.  0.
        -24    2    3    3    0    0  0.51566634984E+02  0.23519437486E+02 -0.11010107142E+04  0.11053029896E+04  0.79106410933E+02 0.  0.
          6    2    1    2  501    0 -0.59554999174E+02 -0.77667552634E+02 -0.17920207462E+03  0.26621683752E+03  0.17081854223E+03 0.  0.
         24    2    5    5    0    0 -0.49173796078E+02 -0.10307227899E+03 -0.74922805701E+02  0.15828433348E+03  0.79990915077E+02 0.  0.
          5    1    5    5  501    0 -0.10381203096E+02  0.25404726361E+02 -0.10427926892E+03  0.10793250403E+03  0.47000000000E+01 0. -1.
        -13    1    6    6    0    0  0.12257900852E+02  0.26186821116E+01 -0.21470994641E+02  0.24861963723E+02  0.00000000000E+00 0.  1.
         14    1    6    6    0    0 -0.61431696930E+02 -0.10569096111E+03 -0.53451811060E+02  0.13342236976E+03  0.00000000000E+00 0. -1.
         -5    1    3    3    0  503  0.79883641904E+01  0.54148115148E+02 -0.12472360543E+03  0.13628609646E+03  0.47000000000E+01 0.  1.
         11    1    4    4    0    0  0.43153627595E+02 -0.22901471574E+02 -0.47042225954E+03  0.47295223358E+03  0.00000000000E+00 0. -1.
        -12    1    4    4    0    0  0.84130073883E+01  0.46420909060E+02 -0.63058845467E+03  0.63235075604E+03  0.00000000000E+00 0.  1.
</event>
<event>
12    1  0.8684423E-002  0.1831645E+03  0.7818608E-02  0.1164818E+00
         21   -1    0    0  503  502  0.00000000000E+00  0.00000000000E+00  0.10477403910E+03  0.10477403910E+03  0.00000000000E+00 0. -1.
         21   -1    0    0  501  503 -0.00000000000E+00 -0.00000000000E+00 -0.67274568789E+03  0.67274568789E+03  0.00000000000E+00 0. -1.
          6    2    1    2  501    0  0.13806763291E+02 -0.61510611745E+02 -0.56560258693E+03  0.59452124643E+03  0.17197396328E+03 0.  0.
         24    2    3    3    0    0  0.13635587712E+02 -0.93036741888E+02 -0.53944489103E+03  0.55328726484E+03  0.79273213521E+02 0.  0.
         -6    2    1    2    0  502 -0.13806763291E+02  0.61510611745E+02 -0.23690618679E+01  0.18299848056E+03  0.17178081780E+03 0.  0.
        -24    2    5    5    0    0  0.63661584724E+01 -0.24986120198E+02 -0.28487771571E+02  0.90300538802E+02  0.81717807132E+02 0.  0.
          5    1    3    3  501    0  0.17117557946E+00  0.31526130144E+02 -0.26157695896E+02  0.41233981587E+02  0.47000000000E+01 0. -1.
        -13    1    4    4    0    0  0.43049367689E+02 -0.33073226932E+02 -0.19439656853E+03  0.20183436836E+03  0.00000000000E+00 0.  1.
         14    1    4    4    0    0 -0.29413779977E+02 -0.59963514957E+02 -0.34504832251E+03  0.35145289648E+03  0.00000000000E+00 0. -1.
         -5    1    5    5    0  502 -0.20172921763E+02  0.86496731943E+02  0.26118709703E+02  0.92697941756E+02  0.47000000000E+01 0.  1.
         11    1    6    6    0    0 -0.22669312297E+02 -0.33845732119E+01  0.19571254510E+02  0.30139460164E+02  0.00000000000E+00 0. -1.
        -12    1    6    6    0    0  0.29035470769E+02 -0.21601546986E+02 -0.48059026082E+02  0.60161078638E+02  0.00000000000E+00 0.  1.
</event>
<event>
12    1  0.8684423E-002  0.1734265E+03  0.7818608E-02  0.1174719E+00
         21   -1    0    0  503  502  0.00000000000E+00  0.00000000000E+00  0.52211608207E+03  0.52211608207E+03  0.00000000000E+00 0.  1.
         21   -1    0    0  501  503 -0.00000000000E+00 -0.00000000000E+00 -0.84527425123E+02  0.84527425123E+02  0.00000000000E+00 0.  1.
          6    2    1    2  501    0  0.94139452231E+01  0.56200861596E+01  0.45309106732E+02  0.17773791385E+03  0.17151572270E+03 0.  0.
         24    2    3    3    0    0 -0.46924474334E+02 -0.12448549999E+02  0.64269752660E+02  0.11543149986E+03  0.82685895795E+02 0.  0.
         -6    2    1    2    0  502 -0.94139452231E+01 -0.56200861596E+01  0.39227955021E+03  0.42890559334E+03  0.17307961969E+03 0.  0.
        -24    2    5    5    0    0 -0.52086936690E+02  0.47457646900E+02  0.22828781918E+03  0.25127224120E+03  0.77827588854E+02 0.  0.
          5    1    3    3  501    0  0.56338419557E+02  0.18068636159E+02 -0.18960645927E+02  0.62306413994E+02  0.47000000000E+01 0. -1.
        -11    1    4    4    0    0  0.18878598809E+01 -0.32210980269E+02  0.52259765080E+02  0.61418192020E+02  0.00000000000E+00 0.  1.
         12    1    4    4    0    0 -0.48812334215E+02  0.19762430270E+02  0.12009987580E+02  0.54013307835E+02  0.00000000000E+00 0. -1.
         -5    1    5    5    0  502  0.42672991467E+02 -0.53077733060E+02  0.16399173103E+03  0.17763335214E+03  0.47000000000E+01 0.  1.
         11    1    6    6    0    0 -0.44095261193E+02  0.70842771067E+01  0.18959195257E+03  0.19478112722E+03  0.00000000000E+00 0. -1.
        -12    1    6    6    0    0 -0.79916754968E+01  0.40373369794E+02  0.38695866616E+02  0.56491113982E+02  0.00000000000E+00 0.  1.
</event>
<event>
12    1  0.8684423E-002  0.2193096E+03  0.7818608E-02  0.1134488E+00
         21   -1    0    0  503  502  0.00000000000E+00  0.00000000000E+00  0.13286022749E+03  0.13286022749E+03  0.00000000000E+00 0. -1.
         21   -1    0    0  501  503 -0.00000000000E+00 -0.00000000000E+00 -0.55226554847E+03  0.55226554847E+03  0.00000000000E+00 0.  1.
          6    2    1    2  501    0 -0.13424421894E+03 -0.17961423106E+02 -0.41103372576E+03  0.46565645559E+03  0.17188102827E+03 0.  0.
         24    2    3    3    0    0 -0.13127088681E+03 -0.63211447023E+02 -0.35112400290E+03  0.39037252462E+03  0.88740688579E+02 0.  0.
         -6    2    1    2    0  502  0.13424421894E+03  0.17961423106E+02 -0.83715952296E+01  0.21946932037E+03  0.17248935022E+03 0.  0.
        -24    2    5    5    0    0  0.19916948014E+02  0.36754988309E+02  0.34231685677E+02  0.95933687800E+02  0.79270739664E+02 0.  0.
          5    1    3    3  501    0 -0.29733321332E+01  0.45250023916E+02 -0.59909722855E+02  0.75283930961E+02  0.47000000000E+01 0. -1.
        -11    1    4    4    0    0 -0.73582786576E+02 -0.47619648186E+02 -0.29729246404E+03  0.30994332796E+03  0.00000000000E+00 0.  1.
         12    1    4    4    0    0 -0.57688100233E+02 -0.15591798837E+02 -0.53831538863E+02  0.80429196663E+02  0.00000000000E+00 0. -1.
         -5    1    5    5    0  502  0.11432727093E+03 -0.18793565203E+02 -0.42603280907E+02  0.12353563257E+03  0.47000000000E+01 0.  1.
         13    1    6    6    0    0  0.50308755007E+02  0.18897172205E+02  0.15077647853E+02  0.55815852698E+02  0.00000000000E+00 0. -1.
        -14    1    6    6    0    0 -0.30391806992E+02  0.17857816105E+02  0.19154037824E+02  0.40117835102E+02  0.00000000000E+00 0.  1.
</event>
<event>
12    1  0.8684423E-002  0.2561332E+03  0.7818608E-02  0.1109533E+00
         21   -1    0    0  501  502  0.00000000000E+00  0.00000000000E+00  0.28576645389E+03  0.28576645389E+03  0.00000000000E+00 0. -1.
         21   -1    0    0  502  503 -0.00000000000E+00 -0.00000000000E+00 -0.27496075978E+03  0.27496075978E+03  0.00000000000E+00 0. -1.
         -6    2    1    2    0  503 -0.17720367014E+03 -0.68004395000E+02 -0.10883184806E+03  0.27803063933E+03  0.17155444267E+03 0.  0.
        -24    2    3    3    0    0 -0.94721646140E+02 -0.70413553518E+02 -0.12953764064E+03  0.19282554456E+03  0.80445208230E+02 0.  0.
          6    2    1    2  501    0  0.17720367014E+03  0.68004395000E+02  0.11963754217E+03  0.28269657434E+03  0.17198393296E+03 0.  0.
         24    2    5    5    0    0  0.44840989001E+02 -0.22999065023E+02  0.34654631951E+02  0.10091182766E+03  0.80265697281E+02 0.  0.
          5    1    5    5  501    0  0.13236268114E+03  0.91003460022E+02  0.84982910222E+02  0.18178474668E+03  0.47000000000E+01 0. -1.
        -13    1    6    6    0    0  0.65547452932E+02 -0.12188627697E+02  0.10826960998E+02  0.67544461768E+02  0.00000000000E+00 0.  1.
         14    1    6    6    0    0 -0.20706463931E+02 -0.10810437325E+02  0.23827670953E+02  0.33367365894E+02  0.00000000000E+00 0. -1.
         -5    1    3    3    0  503 -0.82482024000E+02  0.24091585183E+01  0.20705792572E+02  0.85205094765E+02  0.47000000000E+01 0.  1.
         11    1    4    4    0    0 -0.64314583525E+02 -0.32538517339E+02 -0.12467729492E+03  0.14401232112E+03  0.00000000000E+00 0. -1.
        -12    1    4    4    0    0 -0.30407062615E+02 -0.37875036179E+02 -0.48603457135E+01  0.48813223443E+02  0.00000000000E+00 0.  1.
</event>
<event>
12    1  0.8684423E-002  0.2316082E+03  0.7818608E-02  0.1126844E+00
         21   -1    0    0  501  502  0.00000000000E+00  0.00000000000E+00  0.75698296953E+02  0.75698296953E+02  0.00000000000E+00 0. -1.
         21   -1    0    0  502  503 -0.00000000000E+00 -0.00000000000E+00 -0.11892669925E+04  0.11892669925E+04  0.00000000000E+00 0.  1.
         -6    2    1    2    0  503  0.14178995740E+03  0.21990814515E+02 -0.97352777561E+03  0.10006991013E+04  0.18180861802E+03 0.  0.
        -24    2    3    3    0    0  0.17542609217E+03  0.40161047257E+01 -0.79954376561E+03  0.82252220752E+03  0.80511526018E+02 0.  0.
          6    2    1    2  501    0 -0.14178995740E+03 -0.21990814515E+02 -0.14004091988E+03  0.26426618806E+03  0.17215449739E+03 0.  0.
         24    2    5    5    0    0  0.31581054377E+01 -0.56147175815E+01  0.33284026706E+01  0.59681315407E+02  0.59239196997E+02 0.  0.
          5    1    5    5  501    0 -0.14494806284E+03 -0.16376096933E+02 -0.14336932255E+03  0.20458487266E+03  0.47000000000E+01 0. -1.
        -13    1    6    6    0    0 -0.14714875795E+02  0.10205519309E+02  0.22719500293E+02  0.28928461549E+02  0.00000000000E+00 0.  1.
         14    1    6    6    0    0  0.17872981232E+02 -0.15820236891E+02 -0.19391097622E+02  0.30752853858E+02  0.00000000000E+00 0. -1.
         -5    1    3    3    0  503 -0.33636134773E+02  0.17974709789E+02 -0.17398401000E+03  0.17817689382E+03  0.47000000000E+01 0.  1.
         13    1    4    4    0    0  0.22208270727E+02  0.30230056411E+02 -0.16649175880E+03  0.17066507947E+03  0.00000000000E+00 0. -1.
        -14    1    4    4    0    0  0.15321782145E+03 -0.26213951685E+02 -0.63305200681E+03  0.65185712806E+03  0.00000000000E+00 0.  1.
</event>
<event>
12    1  0.8684423E-002  0.2030850E+03  0.7818608E-02  0.1147263E+00
         21   -1    0    0  503  502  0.00000000000E+00  0.00000000000E+00  0.10045781444E+04  0.10045781444E+04  0.00000000000E+00 0. -1.
         21   -1    0    0  501  503 -0.00000000000E+00 -0.00000000000E+00 -0.41153429170E+02  0.41153429170E+02  0.00000000000E+00 0. -1.
          6    2    1    2  501    0 -0.32466681045E+02  0.10192907416E+03  0.44498587965E+03  0.48893508078E+03  0.17205074425E+03 0.  0.
         24    2    3    3    0    0 -0.38986540367E+02 -0.68644844273E+01  0.14678008984E+03  0.17140188563E+03  0.79165271079E+02 0.  0.
         -6    2    1    2    0  502  0.32466681045E+02 -0.10192907416E+03  0.51843883562E+03  0.55679649282E+03  0.17262643657E+03 0.  0.
        -24    2    5    5    0    0 -0.12585084005E+02  0.69209100163E+01  0.26522555463E+03  0.27748119381E+03  0.80280351013E+02 0.  0.
          5    1    3    3  501    0  0.65198593213E+01  0.10879355859E+03  0.29820578980E+03  0.31753319516E+03  0.47000000000E+01 0. -1.
        -13    1    4    4    0    0  0.15560301062E+02 -0.24430138251E+02  0.32332333944E+02  0.43408921230E+02  0.00000000000E+00 0.  1.
         14    1    4    4    0    0 -0.54546841428E+02  0.17565653824E+02  0.11444775590E+03  0.12799296439E+03  0.00000000000E+00 0. -1.
         -5    1    5    5    0  502  0.45051765050E+02 -0.10884998417E+03  0.25321328099E+03  0.27931529901E+03  0.47000000000E+01 0.  1.
         11    1    6    6    0    0  0.34114498772E+02  0.55432853775E+01  0.12412882263E+03  0.12885065637E+03  0.00000000000E+00 0. -1.
        -12    1    6    6    0    0 -0.46699582777E+02  0.13776246388E+01  0.14109673200E+03  0.14863053745E+03  0.00000000000E+00 0.  1.
</event>
<event>
12    1  0.8684423E-002  0.1803964E+03  0.7818608E-02  0.1167426E+00
         21   -1    0    0  501  502  0.00000000000E+00  0.00000000000E+00  0.82237037864E+02  0.82237037864E+02  0.00000000000E+00 0.  1.
         21   -1    0    0  502  503 -0.00000000000E+00 -0.00000000000E+00 -0.46500327580E+03  0.46500327580E+03  0.00000000000E+00 0.  1.
         -6    2    1    2    0  503 -0.31998538396E+02  0.41690634758E+02 -0.29703002295E+03  0.34750659604E+03  0.17254560057E+03 0.  0.
        -24    2    3    3    0    0 -0.77420980989E+02  0.42322949363E+02 -0.15057152897E+03  0.19409284643E+03  0.84941199421E+02 0.  0.
          6    2    1    2  501    0  0.31998538396E+02 -0.41690634758E+02 -0.85736214994E+02  0.19973371762E+03  0.17257127196E+03 0.  0.
         24    2    5    5    0    0  0.18617251057E+02 -0.67576685237E+02  0.36833817724E+01  0.10556843343E+03  0.78853765997E+02 0.  0.
          5    1    5    5  501    0  0.13381287339E+02  0.25886050479E+02 -0.89419596767E+02  0.94165284188E+02  0.47000000000E+01 0. -1.
        -11    1    6    6    0    0  0.29935013383E+02 -0.39575410538E+02 -0.31826923632E+02  0.58951430969E+02  0.00000000000E+00 0.  1.
         12    1    6    6    0    0 -0.11317762326E+02 -0.28001274700E+02  0.35510305405E+02  0.46617002465E+02  0.00000000000E+00 0. -1.
         -5    1    3    3    0  503  0.45422442594E+02 -0.63231460507E+00 -0.14645849398E+03  0.15341374962E+03  0.47000000000E+01 0.  1.
         13    1    4    4    0    0 -0.33041506413E+02  0.64411870260E+02 -0.80557571288E+02  0.10830582841E+03  0.00000000000E+00 0. -1.
        -14    1    4    4    0    0 -0.44379474576E+02 -0.22088920897E+02 -0.70013957680E+02  0.85787018016E+02  0.00000000000E+00 0.  1.
</event>
<event>
12    1  0.8684423E-002  0.2530188E+03  0.7818608E-02  0.1111576E+00
         21   -1    0    0  503  502  0.00000000000E+00  0.00000000000E+00  0.44687613349E+02  0.44687613349E+02  0.00000000000E+00 0.  1.
         21   -1    0    0  501  503 -0.00000000000E+00 -0.00000000000E+00 -0.15478517699E+04  0.15478517699E+04  0.00000000000E+00 0.  1.
          6    2    1    2  501    0 -0.17701621439E+03  0.49406145649E+02 -0.52728614298E+03  0.58439435001E+03  0.17236697004E+03 0.  0.
         24    2    3    3    0    0 -0.15184579911E+03 -0.19647542887E+02 -0.30684788361E+03  0.35197860635E+03  0.79310421797E+02 0.  0.
         -6    2    1    2    0  502  0.17701621439E+03 -0.49406145649E+02 -0.97587801358E+03  0.10081450333E+04  0.17390458099E+03 0.  0.
        -24    2    5    5    0    0  0.13487311774E+03 -0.44878578223E+02 -0.42267625141E+03  0.45330197514E+03  0.81379496734E+02 0.  0.
          5    1    3    3  501    0 -0.25170415285E+02  0.69053688536E+02 -0.22043825937E+03  0.23241574366E+03  0.47000000000E+01 0. -1.
        -11    1    4    4    0    0 -0.12344358829E+03 -0.30446190818E+02 -0.17282784152E+03  0.21455710855E+03  0.00000000000E+00 0.  1.
         12    1    4    4    0    0 -0.28402210818E+02  0.10798647931E+02 -0.13402004209E+03  0.13742149780E+03  0.00000000000E+00 0. -1.
         -5    1    5    5    0  502  0.42143096649E+02 -0.45275674265E+01 -0.55320176217E+03  0.55484305811E+03  0.47000000000E+01 0.  1.
         13    1    6    6    0    0  0.13742429433E+03 -0.20546694803E+02 -0.36966728957E+03  0.39491962260E+03  0.00000000000E+00 0. -1.
        -14    1    6    6    0    0 -0.25511765835E+01 -0.24331883420E+02 -0.53008961842E+02  0.58382352541E+02  0.00000000000E+00 0.  1.
</event>
<event>
12    1  0.8684423E-002  0.2743613E+03  0.7818608E-02  0.1098893E+00
         21   -1    0    0  501  502  0.00000000000E+00  0.00000000000E+00  0.44845454364E+03  0.44845454364E+03  0.00000000000E+00 0.  1.
         21   -1    0    0  502  503 -0.00000000000E+00 -0.00000000000E+00 -0.18952895602E+03  0.18952895602E+03  0.00000000000E+00 0.  1.
         -6    2    1    2    0  503  0.10400884357E+03 -0.18697121143E+03  0.20556347683E+02  0.27453607594E+03  0.17079642887E+03 0.  0.
        -24    2    3    3    0    0  0.73257313691E+02 -0.12107509201E+03  0.79563840521E+02  0.18077078728E+03  0.79510130819E+02 0.  0.
          6    2    1    2  501    0 -0.10400884357E+03  0.18697121143E+03  0.23836923994E+03  0.36344742372E+03  0.17174999800E+03 0.  0.
         24    2    5    5    0    0 -0.75486761975E+00  0.12363105329E+03  0.16423621609E+03  0.22135184178E+03  0.82084688099E+02 0.  0.
          5    1    5    5  501    0 -0.10325397595E+03  0.63340158146E+02  0.74133023849E+02  0.14209558194E+03  0.47000000000E+01 0. -1.
        -13    1    6    6    0    0 -0.54767644252E+01  0.89222556492E+02  0.51014513087E+02  0.10292298131E+03  0.00000000000E+00 0.  1.
         14    1    6    6    0    0  0.47218968055E+01  0.34408496796E+02  0.11322170301E+03  0.11842886047E+03  0.00000000000E+00 0. -1.
         -5    1    3    3    0  503  0.30751529875E+02 -0.65896119426E+02 -0.59007492838E+02  0.93765288653E+02  0.47000000000E+01 0.  1.
         11    1    4    4    0    0 -0.11179421298E+02 -0.24973974175E+02 -0.44535594465E+01  0.27722067715E+02  0.00000000000E+00 0. -1.
        -12    1    4    4    0    0  0.84436734989E+02 -0.96101117834E+02  0.84017399968E+02  0.15304871957E+03  0.00000000000E+00 0.  1.
</event>
<event>
12    1  0.8684423E-002  0.1894322E+03  0.7818608E-02  0.1159040E+00
         21   -1    0    0  501  502  0.00000000000E+00  0.00000000000E+00  0.17770334437E+03  0.17770334437E+03  0.00000000000E+00 0.  1.
         21   -1    0    0  502  503 -0.00000000000E+00 -0.00000000000E+00 -0.32416404889E+03  0.32416404889E+03  0.00000000000E+00 0.  1.
         -6    2    1    2    0  503  0.16644419927E+02  0.76451417083E+02 -0.22754493417E+03  0.29607640760E+03  0.17251865458E+03 0.  0.
        -24    2    3    3    0    0  0.70010776724E-01  0.65931588022E+02 -0.24727175929E+03  0.26785203034E+03  0.79084815308E+02 0.  0.
          6    2    1    2  501    0 -0.16644419927E+02 -0.76451417083E+02  0.81084229660E+02  0.20579098566E+03  0.17220168870E+03 0.  0.
         24    2    5    5    0    0 -0.18397212892E+02 -0.66353492996E+02 -0.17478033827E+02  0.10658589438E+03  0.79459598153E+02 0.  0.
          5    1    5    5  501    0  0.17527929646E+01 -0.10097924087E+02  0.98562263487E+02  0.99205091289E+02  0.47000000000E+01 0. -1.
        -13    1    6    6    0    0 -0.74953776230E+01  0.11258350480E+02  0.16353471692E+02  0.21221856131E+02  0.00000000000E+00 0.  1.
         14    1    6    6    0    0 -0.10901835269E+02 -0.77611843476E+02 -0.33831505519E+02  0.85364038246E+02  0.00000000000E+00 0. -1.
         -5    1    3    3    0  503  0.16574409150E+02  0.10519829061E+02  0.19726825122E+02  0.28224377257E+02  0.47000000000E+01 0.  1.
         11    1    4    4    0    0  0.19690514193E+02  0.76983355859E+02 -0.17598220540E+03  0.19309036757E+03  0.00000000000E+00 0. -1.
        -12    1    4    4    0    0 -0.19620503416E+02 -0.11051767838E+02 -0.71289553892E+02  0.74761662774E+02  0.00000000000E+00 0.  1.
</event>
<event>
12    1  0.8684423E-002  0.1802756E+03  0.7818608E-02  0.1167683E+00
         21   -1    0    0  501  502  0.00000000000E+00  0.00000000000E+00  0.27468534912E+03  0.27468534912E+03  0.00000000000E+00 0. -1.
         21   -1    0    0  502  503 -0.00000000000E+00 -0.00000000000E+00 -0.12438898399E+03  0.12438898399E+03  0.00000000000E+00 0. -1.
         -6    2    1    2    0  503  0.34491918182E+02 -0.37552835075E+02  0.29756530439E+02  0.18271491454E+03  0.17291437491E+03 0.  0.
        -24    2    3    3    0    0  0.95837515450E+01 -0.26782805036E+02  0.86180487749E+02  0.11992826572E+03  0.78399907588E+02 0.  0.
          6    2    1    2  501    0 -0.34491918182E+02  0.37552835075E+02  0.12053983469E+03  0.21635941856E+03  0.17228359879E+03 0.  0.
         24    2    5    5    0    0  0.38139513765E+02  0.11076269307E+02  0.42374195119E+01  0.76628694606E+02  0.65396443794E+02 0.  0.
          5    1    5    5  501    0 -0.72631431947E+02  0.26476565769E+02  0.11630241518E+03  0.13973072396E+03  0.47000000000E+01 0. -1.
        -13    1    6    6    0    0  0.30509205303E+01  0.15341847645E+02 -0.25847422840E+02  0.30212078259E+02  0.00000000000E+00 0.  1.
         14    1    6    6    0    0  0.35088593235E+02 -0.42655783379E+01  0.30084842352E+02  0.46416616347E+02  0.00000000000E+00 0. -1.
         -5    1    3    3    0  503  0.24908166637E+02 -0.10770030039E+02 -0.56423957310E+02  0.62786648826E+02  0.47000000000E+01 0.  1.
         13    1    4    4    0    0  0.22800834195E+02  0.46814765092E+01 -0.38989035151E+01  0.23600756575E+02  0.00000000000E+00 0. -1.
        -14    1    4    4    0    0 -0.13217082650E+02 -0.31464281545E+02  0.90079391264E+02  0.96327509141E+02  0.00000000000E+00 0.  1.
</event>
<event>
12    1  0.8684423E-002  0.1892495E+03  0.7818608E-02  0.1160380E+00
         21   -1    0    0  503  502  0.00000000000E+00  0.00000000000E+00  0.17452881164E+03  0.17452881164E+03  0.00000000000E+00 0.  1.
         21   -1    0    0  501  503 -0.00000000000E+00 -0.00000000000E+00 -0.22249392416E+03  0.22249392416E+03  0.00000000000E+00 0. -1.
          6    2    1    2  501    0  0.53795813811E+01 -0.76107487847E+02 -0.88227617788E+02  0.20880491015E+03  0.17318801448E+03 0.  0.
         24    2    3    3    0    0 -0.61148517335E+02 -0.46089037476E+02 -0.77603719701E+02  0.13489921015E+03  0.79448845432E+02 0.  0.
         -6    2    1    2    0  502 -0.53795813811E+01  0.76107487847E+02  0.40262505272E+02  0.18821782565E+03  0.16728296673E+03 0.  0.
        -24    2    5    5    0    0  0.55561599637E+02  0.73236342080E+02  0.35012702855E+02  0.12680348329E+03  0.80016128735E+02 0.  0.
          5    1    3    3  501    0  0.66528098716E+02 -0.30018450370E+02 -0.10623898087E+02  0.73905699996E+02  0.47000000000E+01 0. -1.
        -13    1    4    4    0    0 -0.15900330489E+02  0.21455099057E+02 -0.80075806559E+01  0.27879439255E+02  0.00000000000E+00 0.  1.
         14    1    4    4    0    0 -0.45248186846E+02 -0.67544136534E+02 -0.69596139045E+02  0.10701977090E+03  0.00000000000E+00 0. -1.
         -5    1    5    5    0  502 -0.60941181018E+02  0.28711457667E+01  0.52498024173E+01  0.61414342359E+02  0.47000000000E+01 0.  1.
         13    1    6    6    0    0  0.16314882628E+02  0.40926408668E+02 -0.22974107819E+02  0.49688589754E+02  0.00000000000E+00 0. -1.
        -14    1    6    6    0    0  0.39246717009E+02  0.32309933412E+02  0.57986810673E+02  0.77114893537E+02  0.00000000000E+00 0.  1.
</event>
<event>
12    1  0.8684423E-002  0.1924140E+03  0.7818608E-02  0.1156424E+00
         21   -1    0    0  503  502  0.00000000000E+00  0.00000000000E+00  0.86313797138E+03  0.86313797138E+03  0.00000000000E+00 0.  1.
         21   -1    0    0  501  503 -0.00000000000E+00 -0.00000000000E+00 -0.44786667161E+02  0.44786667161E+02  0.00000000000E+00 0.  1.
          6    2    1    2  501    0  0.46020499966E+02  0.71011704958E+02  0.31231066345E+03  0.36653726649E+03  0.17219485636E+03 0.  0.
         24    2    3    3    0    0  0.44461443953E+02 -0.22926376913E+02  0.19048123846E+03  0.21261750597E+03  0.80129038966E+02 0.  0.
         -6    2    1    2    0  502 -0.46020499966E+02 -0.71011704958E+02  0.50604064077E+03  0.54138737206E+03  0.17280800866E+03 0.  0.
        -24    2    5    5    0    0 -0.18167366294E+02 -0.93860066049E+01  0.98761363695E+02  0.12850479397E+03  0.79633691343E+02 0.  0.
          5    1    3    3  501    0  0.15590560134E+01  0.93938081871E+02  0.12182942500E+03  0.15391976051E+03  0.47000000000E+01 0. -1.
        -11    1    4    4    0    0  0.40970886429E+02  0.23789492700E+02  0.88211211688E+02  0.10012877391E+03  0.00000000000E+00 0.  1.
         12    1    4    4    0    0  0.34905575240E+01 -0.46715869613E+02  0.10227002677E+03  0.11248873206E+03  0.00000000000E+00 0. -1.
         -5    1    5    5    0  502 -0.27853133672E+02 -0.61625698353E+02  0.40727927707E+03  0.41288257809E+03  0.47000000000E+01 0.  1.
         13    1    6    6    0    0  0.27502955902E+02 -0.11314229533E+02  0.15537018926E+02  0.33553290902E+02  0.00000000000E+00 0. -1.
        -14    1    6    6    0    0 -0.45670322195E+02  0.19282229277E+01  0.83224344769E+02  0.94951503070E+02  0.00000000000E+00 0.  1.
</event>
<event>
12    1  0.8684423E-002  0.2267234E+03  0.7818608E-02  0.1129277E+00
         21   -1    0    0  501  502  0.00000000000E+00  0.00000000000E+00  0.93515967132E+03  0.93515967132E+03  0.00000000000E+00 0. -1.
         21   -1    0    0  502  503 -0.00000000000E+00 -0.00000000000E+00 -0.71194008802E+02  0.71194008802E+02  0.00000000000E+00 0. -1.
         -6    2    1    2    0  503  0.10163319620E+03 -0.10703840723E+03  0.18996180055E+03  0.29578534997E+03  0.17209578843E+03 0.  0.
        -24    2    3    3    0    0  0.13447894967E+03 -0.90892457066E+02  0.18610708785E+03  0.25868435217E+03  0.77043619168E+02 0.  0.
          6    2    1    2  501    0 -0.10163319620E+03  0.10703840723E+03  0.67400386197E+03  0.71056833015E+03  0.16982231502E+03 0.  0.
         24    2    5    5    0    0 -0.62771881601E+02  0.22702908873E+00  0.42543224172E+03  0.43720261784E+03  0.78823702622E+02 0.  0.
          5    1    5    5  501    0 -0.38861314596E+02  0.10681137814E+03  0.24857162025E+03  0.27336571231E+03  0.47000000000E+01 0. -1.
        -11    1    6    6    0    0 -0.29630140498E+02  0.10337861760E+02  0.43158358096E+02  0.53361601225E+02  0.00000000000E+00 0.  1.
         12    1    6    6    0    0 -0.33141741103E+02 -0.10110832671E+02  0.38227388362E+03  0.38384101662E+03  0.00000000000E+00 0. -1.
         -5    1    3    3    0  503 -0.32845753470E+02 -0.16145950167E+02  0.38547127021E+01  0.37100997801E+02  0.47000000000E+01 0.  1.
         11    1    4    4    0    0  0.55401653903E+02 -0.55892796734E+02  0.38498488508E+02  0.87609825929E+02  0.00000000000E+00 0. -1.
        -12    1    4    4    0    0  0.79077295764E+02 -0.34999660332E+02  0.14760859934E+03  0.17107452624E+03  0.00000000000E+00 0.  1.
</event>
<event>
12    1  0.8684423E-002  0.3034097E+03  0.7818608E-02  0.1083575E+00
         21   -1    0    0  501  502  0.00000000000E+00  0.00000000000E+00  0.15135370453E+03  0.15135370453E+03  0.00000000000E+00 0.  1.
         21   -1    0    0  502  503 -0.00000000000E+00 -0.00000000000E+00 -0.15983979673E+04  0.15983979673E+04  0.00000000000E+00 0. -1.
         -6    2    1    2    0  503  0.23412384092E+03  0.87938610469E+02 -0.14123542523E+04  0.14445767549E+04  0.17178560680E+03 0.  0.
        -24    2    3    3    0    0  0.69847186667E+02 -0.13406440822E+02 -0.59283387839E+03  0.60261869668E+03  0.81479592992E+02 0.  0.
          6    2    1    2  501    0 -0.23412384092E+03 -0.87938610469E+02 -0.34690010430E+02  0.30517491688E+03  0.17140933748E+03 0.  0.
         24    2    5    5    0    0 -0.14315924312E+03 -0.12330912728E+03 -0.18455000931E+02  0.20612292526E+03  0.80289248942E+02 0.  0.
          5    1    5    5  501    0 -0.90964597793E+02  0.35370516814E+02 -0.16235009499E+02  0.99051991625E+02  0.47000000000E+01 0. -1.
        -13    1    6    6    0    0 -0.11338524496E+03 -0.49505282623E+02  0.27895408124E+01  0.12375285177E+03  0.00000000000E+00 0.  1.
         14    1    6    6    0    0 -0.29773998159E+02 -0.73803844660E+02 -0.21244541743E+02  0.82370073491E+02  0.00000000000E+00 0. -1.
         -5    1    3    3    0  503  0.16427665425E+03  0.10134505129E+03 -0.81952037395E+03  0.84195805826E+03  0.47000000000E+01 0.  1.
         13    1    4    4    0    0  0.62552724859E+02  0.64037107141E+01 -0.56041983689E+03  0.56393638336E+03  0.00000000000E+00 0. -1.
        -14    1    4    4    0    0  0.72944618087E+01 -0.19810151536E+02 -0.32414041499E+02  0.38682313313E+02  0.00000000000E+00 0.  1.
</event>
<event>
12    1  0.8684423E-002  0.1921033E+03  0.7818608E-02  0.1156685E+00
         21   -1    0    0  501  502  0.00000000000E+00  0.00000000000E+00  0.49998022364E+03  0.49998022364E+03  0.00000000000E+00 0. -1.
         21   -1    0    0  502  503 -0.00000000000E+00 -0.00000000000E+00 -0.73681589812E+02  0.73681589812E+02  0.00000000000E+00 0. -1.
         -6    2    1    2    0  503 -0.25468079795E+02  0.79929318247E+02  0.22082927959E+03  0.29237668761E+03  0.17228243593E+03 0.  0.
        -24    2    3    3    0    0  0.22111613101E+02  0.91573382206E+02  0.90841656558E+02  0.15338645938E+03  0.80003697370E+02 0.  0.
          6    2    1    2  501    0  0.25468079795E+02 -0.79929318247E+02  0.20546935424E+03  0.28128512584E+03  0.17281882850E+03 0.  0.
         24    2    5    5    0    0 -0.17824589234E+02 -0.44163674295E+02  0.28136719671E+02  0.95214199146E+02  0.77497887821E+02 0.  0.
          5    1    5    5  501    0  0.43292669029E+02 -0.35765643952E+02  0.17733263457E+03  0.18607092669E+03  0.47000000000E+01 0. -1.
        -11    1    6    6    0    0  0.48840083610E+01 -0.52263317327E+02 -0.66274844140E+01  0.52907763375E+02  0.00000000000E+00 0.  1.
         12    1    6    6    0    0 -0.22708597595E+02  0.80996430328E+01  0.34764204085E+02  0.42306435771E+02  0.00000000000E+00 0. -1.
         -5    1    3    3    0  503 -0.47579692896E+02 -0.11644063959E+02  0.12998762304E+03  0.13899022823E+03  0.47000000000E+01 0.  1.
         11    1    4    4    0    0 -0.18456647041E+02 -0.32782645231E+01  0.56036275425E+01  0.19565159849E+02  0.00000000000E+00 0. -1.
        -12    1    4    4    0    0  0.40568260142E+02  0.94851646729E+02  0.85238029015E+02  0.13382129953E+03  0.00000000000E+00 0.  1.
</event>
<event>
12    1  0.8684423E-002  0.2189498E+03  0.7818608E-02  0.1137848E+00
         21   -1    0    0  501  502  0.00000000000E+00  0.00000000000E+00  0.37944709756E+03  0.37944709756E+03  0.00000000000E+00 0.  1.
         21   -1    0    0  502  503 -0.00000000000E+00 -0.00000000000E+00 -0.18470251384E+03  0.18470251384E+03  0.00000000000E+00 0.  1.
         -6    2    1    2    0  503 -0.65618896159E+02 -0.84247831409E+02 -0.70784012910E+02  0.23010730870E+03  0.19114251333E+03 0.  0.
        -24    2    3    3    0    0 -0.70360001578E+02 -0.13180978281E+03 -0.66008128141E+02  0.18184224496E+03  0.79907323855E+02 0.  0.
          6    2    1    2  501    0  0.65618896159E+02  0.84247831409E+02  0.26552859663E+03  0.33404230270E+03  0.17226516693E+03 0.  0.
         24    2    5    5    0    0 -0.29533035745E+02  0.42748086473E+02  0.15955083472E+03  0.18561893866E+03  0.79361970941E+02 0.  0.
          5    1    5    5  501    0  0.95151931905E+02  0.41499744936E+02  0.10597776191E+03  0.14842336404E+03  0.47000000000E+01 0. -1.
        -13    1    6    6    0    0 -0.63518935739E+01  0.60683738029E+02  0.78450307722E+02  0.99384673843E+02  0.00000000000E+00 0.  1.
         14    1    6    6    0    0 -0.23181142172E+02 -0.17935651556E+02  0.81100526994E+02  0.86234264813E+02  0.00000000000E+00 0. -1.
         -5    1    3    3    0  503  0.47411054193E+01  0.47561951403E+02 -0.47758847687E+01  0.48265063734E+02  0.47000000000E+01 0.  1.
         13    1    4    4    0    0  0.55443732611E+01 -0.46685809208E+01  0.12344156534E+02  0.14314814816E+02  0.00000000000E+00 0. -1.
        -14    1    4    4    0    0 -0.75904374840E+02 -0.12714120189E+03 -0.78352284675E+02  0.16752743015E+03  0.00000000000E+00 0.  1.
</event>
<event>
12    1  0.8684423E-002  0.2270365E+03  0.7818608E-02  0.1128912E+00
         21   -1    0    0  501  502  0.00000000000E+00  0.00000000000E+00  0.10182935379E+04  0.10182935379E+04  0.00000000000E+00 0.  1.
         21   -1    0    0  502  503 -0.00000000000E+00 -0.00000000000E+00 -0.99279740600E+02  0.99279740600E+02  0.00000000000E+00 0. -1.
         -6    2    1    2    0  503  0.14421395595E+03 -0.30978990289E+02  0.67946308018E+02  0.23698582352E+03  0.17259263265E+03 0.  0.
        -24    2    3    3    0    0  0.11115669052E+03 -0.35507375162E+02 -0.20322286270E+02  0.14250448248E+03  0.79233507236E+02 0.  0.
          6    2    1    2  501    0 -0.14421395595E+03  0.30978990289E+02  0.85106748930E+03  0.88058745499E+03  0.17135061023E+03 0.  0.
         24    2    5    5    0    0 -0.73600273374E+02  0.40352354214E+02  0.26407484895E+03  0.28926977224E+03  0.83043136692E+02 0.  0.
          5    1    5    5  501    0 -0.70613682578E+02 -0.93733639245E+01  0.58699264035E+03  0.59131768276E+03  0.47000000000E+01 0. -1.
        -13    1    6    6    0    0 -0.84079229490E+01  0.30579382056E+02  0.17825504864E+03  0.18105428506E+03  0.00000000000E+00 0.  1.
         14    1    6    6    0    0 -0.65192350425E+02  0.97729721579E+01  0.85819800310E+02  0.10821548717E+03  0.00000000000E+00 0. -1.
         -5    1    3    3    0  503  0.33057265427E+02  0.45283848729E+01  0.88268594288E+02  0.94481341039E+02  0.47000000000E+01 0.  1.
         11    1    4    4    0    0  0.62585672970E+02  0.20971288418E+02 -0.15831079063E+02  0.67877716987E+02  0.00000000000E+00 0. -1.
        -12    1    4    4    0    0  0.48571017554E+02 -0.56478663580E+02 -0.44912072063E+01  0.74626765495E+02  0.00000000000E+00 0.  1.
</event>
<event>
12    1  0.8684423E-002  0.2271754E+03  0.7818608E-02  0.1128688E+00
         21   -1    0    0  503  502  0.00000000000E+00  0.00000000000E+00  0.17689430075E+04  0.17689430075E+04  0.00000000000E+00 0.  1.
         21   -1    0    0  501  503 -0.00000000000E+00 -0.00000000000E+00 -0.29204548250E+02  0.29204548250E+02  0.00000000000E+00 0.  1.
          6    2    1    2  501    0 -0.14839144041E+03 -0.34044904579E+01  0.82821608419E+03  0.85874258347E+03  0.17165468946E+03 0.  0.
         24    2    3    3    0    0 -0.17805256913E+03 -0.12842490376E+02  0.70636353129E+03  0.73288952214E+03  0.79435296837E+02 0.  0.
         -6    2    1    2    0  502  0.14839144041E+03  0.34044904579E+01  0.91152237505E+03  0.93940497226E+03  0.17197979987E+03 0.  0.
        -24    2    5    5    0    0  0.27184664270E+02  0.47438804522E+02  0.32578792481E+03  0.33962414597E+03  0.78850126364E+02 0.  0.
          5    1    3    3  501    0  0.29661128724E+02  0.94379999179E+01  0.12185255289E+03  0.12585306133E+03  0.47000000000E+01 0. -1.
        -13    1    4    4    0    0 -0.10769486398E+03 -0.46072260804E+02  0.44830919774E+03  0.46335944333E+03  0.00000000000E+00 0.  1.
         14    1    4    4    0    0 -0.70357705152E+02  0.33229770428E+02  0.25805433355E+03  0.26953007881E+03  0.00000000000E+00 0. -1.
         -5    1    5    5    0  502  0.12120677614E+03 -0.44034314064E+02  0.58573445024E+03  0.59978082630E+03  0.47000000000E+01 0.  1.
         11    1    6    6    0    0  0.28008285100E+02  0.66505588070E+02  0.29233799132E+03  0.30111286663E+03  0.00000000000E+00 0. -1.
        -12    1    6    6    0    0 -0.82362083034E+00 -0.19066783548E+02  0.33449933484E+02  0.38511279338E+02  0.00000000000E+00 0.  1.
</event>
<event>
12    1  0.8684423E-002  0.1939909E+03  0.7818608E-02  0.1156275E+00
         21   -1    0    0  501  502  0.00000000000E+00  0.00000000000E+00  0.16037771066E+04  0.16037771066E+04  0.00000000000E+00 0.  1.
         21   -1    0    0  502  503 -0.00000000000E+00 -0.00000000000E+00 -0.22970597824E+02  0.22970597824E+02  0.00000000000E+00 0.  1.
         -6    2    1    2    0  503  0.73657680257E+02  0.14106146256E+02  0.71993004618E+03  0.74560830096E+03  0.17890788088E+03 0.  0.
        -24    2    3    3    0    0  0.10547131721E+03 -0.37382913243E+02  0.52896858083E+03  0.54522965441E+03  0.70327345925E+02 0.  0.
          6    2    1    2  501    0 -0.73657680257E+02 -0.14106146256E+02  0.86087646254E+03  0.88113940341E+03  0.17226121811E+03 0.  0.
         24    2    5    5    0    0 -0.78140081678E+02 -0.68982998994E+02  0.64843927845E+03  0.66163266531E+03  0.80123401379E+02 0.  0.
          5    1    5    5  501    0  0.44824014211E+01  0.54876852738E+02  0.21243718409E+03  0.21950673811E+03  0.47000000000E+01 0. -1.
        -13    1    6    6    0    0 -0.38854677599E+02 -0.31550624146E+02  0.51722026552E+03  0.51963634488E+03  0.00000000000E+00 0.  1.
         14    1    6    6    0    0 -0.39285404079E+02 -0.37432374847E+02  0.13121901293E+03  0.14199632043E+03  0.00000000000E+00 0. -1.
         -5    1    3    3    0  503 -0.31813636954E+02  0.51489059499E+02  0.19096146535E+03  0.20037864655E+03  0.47000000000E+01 0.  1.
         11    1    4    4    0    0  0.26219002603E+02 -0.39161398196E+02  0.28020908590E+03  0.28414465159E+03  0.00000000000E+00 0. -1.
        -12    1    4    4    0    0  0.79252314607E+02  0.17784849524E+01  0.24875949494E+03  0.26108500282E+03  0.00000000000E+00 0.  1.
</event>
<event>
12    1  0.8684423E-002  0.1922732E+03  0.7818608E-02  0.1156517E+00
         21   -1    0    0  501  502  0.00000000000E+00  0.00000000000E+00  0.87024377538E+03  0.87024377538E+03  0.00000000000E+00 0.  1.
         21   -1    0    0  502  503 -0.00000000000E+00 -0.00000000000E+00 -0.55298607233E+02  0.55298607233E+02  0.00000000000E+00 0.  1.
         -6    2    1    2    0  503  0.45270691166E+02  0.73936082748E+02  0.18357060042E+03  0.26554023045E+03  0.17116503393E+03 0.  0.
        -24    2    3    3    0    0  0.62807077782E+02  0.10585066835E+03  0.17432317379E+03  0.22767638848E+03  0.79365458127E+02 0.  0.
          6    2    1    2  501    0 -0.45270691166E+02 -0.73936082748E+02  0.63137456773E+03  0.66000215216E+03  0.17161881094E+03 0.  0.
         24    2    5    5    0    0 -0.67132963474E+02 -0.10054900602E+03  0.58130138568E+03  0.59904626487E+03  0.79549915511E+02 0.  0.
          5    1    5    5  501    0  0.21862272309E+02  0.26612923268E+02  0.50073182049E+02  0.60955887295E+02  0.47000000000E+01 0. -1.
        -13    1    6    6    0    0 -0.33376911411E+02 -0.58005538487E+02  0.47484121769E+03  0.47953398496E+03  0.00000000000E+00 0.  1.
         14    1    6    6    0    0 -0.33756052063E+02 -0.42543467529E+02  0.10646016799E+03  0.11951227991E+03  0.00000000000E+00 0. -1.
         -5    1    3    3    0  503 -0.17536386617E+02 -0.31914585598E+02  0.92474266240E+01  0.37863841969E+02  0.47000000000E+01 0.  1.
         13    1    4    4    0    0  0.52452025287E+01  0.42417453848E+02  0.11711934181E+03  0.12467434686E+03  0.00000000000E+00 0. -1.
        -14    1    4    4    0    0  0.57561875254E+02  0.63433214498E+02  0.57203831983E+02  0.10300204162E+03  0.00000000000E+00 0.  1.
</event>
<event>
12    1  0.8684423E-002  0.2613259E+03  0.7818608E-02  0.1106594E+00
         21   -1    0    0  501  502  0.00000000000E+00  0.00000000000E+00  0.39115329256E+03  0.39115329256E+03  0.00000000000E+00 0. -1.
         21   -1    0    0  502  503 -0.00000000000E+00 -0.00000000000E+00 -0.17944489428E+03  0.17944489428E+03  0.00000000000E+00 0.  1.
         -6    2    1    2    0  503 -0.17194185026E+03  0.95585703386E+02  0.53600845829E+02  0.26516530594E+03  0.16952569787E+03 0.  0.
        -24    2    3    3    0    0 -0.57017072967E+02  0.40759758547E+02  0.82514111270E+02  0.13450676017E+03  0.79819705882E+02 0.  0.
          6    2    1    2  501    0  0.17194185026E+03 -0.95585703386E+02  0.15810755245E+03  0.30543288090E+03  0.17201924321E+03 0.  0.
         24    2    5    5    0    0  0.62119479121E+02 -0.14071593286E+02  0.13375489440E+03  0.16643415680E+03  0.75849306853E+02 0.  0.
          5    1    5    5  501    0  0.10982237114E+03 -0.81514110100E+02  0.24352658046E+02  0.13899872410E+03  0.47000000000E+01 0. -1.
        -13    1    6    6    0    0  0.27516820045E+02 -0.40779229895E+02  0.41551702925E+02  0.64394603751E+02  0.00000000000E+00 0.  1.
         14    1    6    6    0    0  0.34602659076E+02  0.26707636609E+02  0.92203191477E+02  0.10203955305E+03  0.00000000000E+00 0. -1.
         -5    1    3    3    0  503 -0.11492477729E+03  0.54825944839E+02 -0.28913265441E+02  0.13065854577E+03  0.47000000000E+01 0.  1.
         13    1    4    4    0    0 -0.37019344435E+01 -0.21665667985E+02  0.72819116314E+01  0.23154518454E+02  0.00000000000E+00 0. -1.
        -14    1    4    4    0    0 -0.53315138524E+02  0.62425426531E+02  0.75232199639E+02  0.11135224172E+03  0.00000000000E+00 0.  1.
</event>
<event>
12    1  0.8684423E-002  0.2112533E+03  0.7818608E-02  0.1141702E+00
         21   -1    0    0  503  502  0.00000000000E+00  0.00000000000E+00  0.10696647121E+03  0.10696647121E+03  0.00000000000E+00 0. -1.
         21   -1    0    0  501  503 -0.00000000000E+00 -0.00000000000E+00 -0.41152069890E+03  0.41152069890E+03  0.00000000000E+00 0.  1.
          6    2    1    2  501    0  0.11817429861E+03  0.29103000458E+02 -0.17986010602E+03  0.27317800221E+03  0.16572390795E+03 0.  0.
         24    2    3    3    0    0  0.81225809666E+02 -0.44397197494E+02 -0.12099285434E+03  0.17191145662E+03  0.79658865269E+02 0.  0.
         -6    2    1    2    0  502 -0.11817429861E+03 -0.29103000458E+02 -0.12469412167E+03  0.24530916790E+03  0.17267256408E+03 0.  0.
        -24    2    5    5    0    0 -0.57204268199E+02  0.41188232613E+02 -0.10578454414E+03  0.15024148581E+03  0.80083303336E+02 0.  0.
          5    1    3    3  501    0  0.36948488943E+02  0.73500197953E+02 -0.58867251685E+02  0.10126654559E+03  0.47000000000E+01 0. -1.
        -13    1    4    4    0    0  0.35940333312E+01  0.80143650486E+01 -0.58855319958E+02  0.59507107223E+02  0.00000000000E+00 0.  1.
         14    1    4    4    0    0  0.77631776335E+02 -0.52411562543E+02 -0.62137534380E+02  0.11240434940E+03  0.00000000000E+00 0. -1.
         -5    1    5    5    0  502 -0.60970030409E+02 -0.70291233072E+02 -0.18909577531E+02  0.95067682087E+02  0.47000000000E+01 0.  1.
         13    1    6    6    0    0 -0.49154386729E+02  0.59865813667E+02 -0.53498466431E+02  0.94139021087E+02  0.00000000000E+00 0. -1.
        -14    1    6    6    0    0 -0.80498814704E+01 -0.18677581054E+02 -0.52286077710E+02  0.56102464723E+02  0.00000000000E+00 0.  1.
</event>
<event>
12    1  0.8684423E-002  0.2159170E+03  0.7818608E-02  0.1137458E+00
         21   -1    0    0  501  502  0.00000000000E+00  0.00000000000E+00  0.62350600599E+02  0.62350600599E+02  0.00000000000E+00 0. -1.
         21   -1    0    0  502  503 -0.00000000000E+00 -0.00000000000E+00 -0.80970911427E+03  0.80970911427E+03  0.00000000000E+00 0.  1.
         -6    2    1    2    0  503  0.12701835443E+03 -0.29582104127E+02 -0.50062994828E+03  0.54419523421E+03  0.16884710415E+03 0.  0.
        -24    2    3    3    0    0  0.17755581591E+01 -0.13342933797E+02 -0.13204834644E+03  0.15454929764E+03  0.79167753002E+02 0.  0.
          6    2    1    2  501    0 -0.12701835443E+03  0.29582104127E+02 -0.24672856539E+03  0.32786448066E+03  0.17207954395E+03 0.  0.
         24    2    5    5    0    0 -0.63728721765E+02 -0.47579115567E+02 -0.15708866175E+03  0.19363768097E+03  0.80582762587E+02 0.  0.
          5    1    5    5  501    0 -0.63289632669E+02  0.77161219694E+02 -0.89639903644E+02  0.13422679968E+03  0.47000000000E+01 0. -1.
        -11    1    6    6    0    0 -0.75225194699E+02 -0.52518778459E+02 -0.10219031399E+03  0.13733139584E+03  0.00000000000E+00 0.  1.
         12    1    6    6    0    0  0.11496472935E+02  0.49396628914E+01 -0.54898347757E+02  0.56306285137E+02  0.00000000000E+00 0. -1.
         -5    1    3    3    0  503  0.12524279627E+03 -0.16239170330E+02 -0.36858160184E+03  0.38964593657E+03  0.47000000000E+01 0.  1.
         13    1    4    4    0    0  0.12892803476E+02 -0.32282983792E+02 -0.19459027586E+02  0.39838036831E+02  0.00000000000E+00 0. -1.
        -14    1    4    4    0    0 -0.11117245316E+02  0.18940049995E+02 -0.11258931885E+03  0.11471126081E+03  0.00000000000E+00 0.  1.
</event>
<event>
12    1  0.8684423E-002  0.2039952E+03  0.7818608E-02  0.1146696E+00
         21   -1    0    0  503  502  0.00000000000E+00  0.00000000000E+00  0.58405277773E+03  0.58405277773E+03  0.00000000000E+00 0. -1.
         21   -1    0    0  501  503 -0.00000000000E+00 -0.00000000000E+00 -0.20990344615E+03  0.20990344615E+03  0.00000000000E+00 0.  1.
          6    2    1    2  501    0  0.12613452110E+00  0.10775478448E+03 -0.13591185617E+03  0.24512464897E+03  0.17321360050E+03 0.  0.
         24    2    3    3    0    0  0.18139811711E+02  0.13902994270E+03 -0.86080602991E+02  0.18341669260E+03  0.81076724016E+02 0.  0.
         -6    2    1    2    0  502 -0.12613452110E+00 -0.10775478448E+03  0.51006118776E+03  0.54883157491E+03  0.17158838210E+03 0.  0.
        -24    2    5    5    0    0  0.27910304645E+02 -0.68944819275E+02  0.14483812201E+03  0.18045373482E+03  0.77801642721E+02 0.  0.
          5    1    3    3  501    0 -0.18013677190E+02 -0.31275158213E+02 -0.49831253175E+02  0.61707956377E+02  0.47000000000E+01 0. -1.
        -11    1    4    4    0    0  0.26325368878E+02  0.13809580706E+03 -0.96215788192E+02  0.17035537817E+03  0.00000000000E+00 0.  1.
         12    1    4    4    0    0 -0.81855571672E+01  0.93413563719E+00  0.10135185201E+02  0.13061314428E+02  0.00000000000E+00 0. -1.
         -5    1    5    5    0  502 -0.28036439166E+02 -0.38809965206E+02  0.36522306574E+03  0.36837784009E+03  0.47000000000E+01 0.  1.
         13    1    6    6    0    0 -0.13196351583E+02 -0.61909911376E+02  0.10601771742E+03  0.12347767907E+03  0.00000000000E+00 0. -1.
        -14    1    6    6    0    0  0.41106656227E+02 -0.70349078998E+01  0.38820404589E+02  0.56976055741E+02  0.00000000000E+00 0.  1.
</event>
<event>
12    1  0.8684423E-002  0.1964505E+03  0.7818608E-02  0.1152945E+00
         21   -1    0    0  503  502  0.00000000000E+00  0.00000000000E+00  0.11759342428E+03  0.11759342428E+03  0.00000000000E+00 0. -1.
         21   -1    0    0  501  503 -0.00000000000E+00 -0.00000000000E+00 -0.70159331412E+03  0.70159331412E+03  0.00000000000E+00 0. -1.
          6    2    1    2  501    0 -0.64200549382E+02 -0.69716865737E+02 -0.59164077268E+03  0.62340323974E+03  0.17207743465E+03 0.  0.
         24    2    3    3    0    0 -0.54916118667E+02  0.10880176518E+02 -0.18929987526E+03  0.21293719778E+03  0.79835136951E+02 0.  0.
         -6    2    1    2    0  502  0.64200549382E+02  0.69716865737E+02  0.76408828390E+01  0.19578349866E+03  0.17114509444E+03 0.  0.
        -24    2    5    5    0    0  0.71305151232E+02 -0.11546502752E+02  0.36996050394E+02  0.10896169099E+03  0.72706231099E+02 0.  0.
          5    1    3    3  501    0 -0.92844307147E+01 -0.80597042256E+02 -0.40234089741E+03  0.41046604196E+03  0.47000000000E+01 0. -1.
        -13    1    4    4    0    0 -0.22693934871E+02 -0.50770184180E+01 -0.32931408466E+01  0.23486923438E+02  0.00000000000E+00 0.  1.
         14    1    4    4    0    0 -0.32222183796E+02  0.15957194936E+02 -0.18600673442E+03  0.18945027434E+03  0.00000000000E+00 0. -1.
         -5    1    5    5    0  502 -0.71046018508E+01  0.81263368489E+02 -0.29355167555E+02  0.86821807674E+02  0.47000000000E+01 0.  1.
         11    1    6    6    0    0  0.75331658134E+02 -0.31093046268E+02  0.23315407779E+02  0.84765821434E+02  0.00000000000E+00 0. -1.
        -12    1    6    6    0    0 -0.40265069016E+01  0.19546543516E+02  0.13680642614E+02  0.24195869556E+02  0.00000000000E+00 0.  1.
</event>
<event>
12    1  0.8684423E-002  0.1995554E+03  0.7818608E-02  0.1150599E+00
         21   -1    0    0  501  502  0.00000000000E+00  0.00000000000E+00  0.40916983716E+03  0.40916983716E+03  0.00000000000E+00 0.  1.
         21   -1    0    0  502  503 -0.00000000000E+00 -0.00000000000E+00 -0.96395173664E+02  0.96395173664E+02  0.00000000000E+00 0.  1.
         -6    2    1    2    0  503 -0.90348917602E+02  0.36171337576E+02  0.16813465949E+03  0.26094369500E+03  0.17421554370E+03 0.  0.
        -24    2    3    3    0    0 -0.10628361766E+03  0.23329849763E+02  0.53195754396E+02  0.14410251913E+03  0.78072136268E+02 0.  0.
          6    2    1    2  501    0  0.90348917602E+02 -0.36171337576E+02  0.14464000401E+03  0.24462131582E+03  0.17160292777E+03 0.  0.
         24    2    5    5    0    0  0.96890394510E+02 -0.56530031169E+02  0.44126016407E+02  0.14175043059E+03  0.74583418234E+02 0.  0.
          5    1    5    5  501    0 -0.65414769077E+01  0.20358693593E+02  0.10051398760E+03  0.10287088523E+03  0.47000000000E+01 0. -1.
        -11    1    6    6    0    0  0.16591521937E+02  0.15871112598E+02 -0.41677264153E+01  0.23335397120E+02  0.00000000000E+00 0.  1.
         12    1    6    6    0    0  0.80298872573E+02 -0.72401143767E+02  0.48293742822E+02  0.11841503347E+03  0.00000000000E+00 0. -1.
         -5    1    3    3    0  503  0.15934700059E+02  0.12841487813E+02  0.11493890509E+03  0.11684117587E+03  0.47000000000E+01 0.  1.
         11    1    4    4    0    0 -0.74067763227E+02 -0.17660232202E+01 -0.35689553585E+01  0.74174725007E+02  0.00000000000E+00 0. -1.
        -12    1    4    4    0    0 -0.32215854434E+02  0.25095872983E+02  0.56764709755E+02  0.69927794125E+02  0.00000000000E+00 0.  1.
</event>
<event>
12    1  0.8684423E-002  0.2717958E+03  0.7818608E-02  0.1100377E+00
         21   -1    0    0  501  502  0.00000000000E+00  0.00000000000E+00  0.20030492495E+03  0.20030492495E+03  0.00000000000E+00 0.  1.
         21   -1    0    0  502  503 -0.00000000000E+00 -0.00000000000E+00 -0.11121480589E+04  0.11121480589E+04  0.00000000000E+00 0.  1.
         -6    2    1    2    0  503 -0.20978082636E+03 -0.89441538358E+01 -0.99307076981E+03  0.10295933833E+04  0.17258327866E+03 0.  0.
        -24    2    3    3    0    0 -0.22533730467E+03 -0.31681203666E+02 -0.92587150005E+03  0.95681420146E+03  0.80466029848E+02 0.  0.
          6    2    1    2  501    0  0.20978082636E+03  0.89441538358E+01  0.81227635861E+02  0.28285960056E+03  0.17124144302E+03 0.  0.
         24    2    5    5    0    0  0.80284954666E+02  0.44116700760E+02 -0.86405372616E+01  0.12129021180E+03  0.79023410227E+02 0.  0.
          5    1    5    5  501    0  0.12949587169E+03 -0.35172546924E+02  0.89868173122E+02  0.16156938875E+03  0.47000000000E+01 0. -1.
        -13    1    6    6    0    0  0.92696464608E+02  0.29995575417E+02  0.57742551564E+01  0.97599749580E+02  0.00000000000E+00 0.  1.
         14    1    6    6    0    0 -0.12411509942E+02  0.14121125343E+02 -0.14414792418E+02  0.23690462225E+02  0.00000000000E+00 0. -1.
         -5    1    3    3    0  503  0.15556478314E+02  0.22737049831E+02 -0.67199269753E+02  0.72779181831E+02  0.47000000000E+01 0.  1.
         11    1    4    4    0    0 -0.22708550028E+03 -0.20670207082E+02 -0.84692658541E+03  0.87708592679E+03  0.00000000000E+00 0. -1.
        -12    1    4    4    0    0  0.17481956082E+01 -0.11010996584E+02 -0.78944914645E+02  0.79728274670E+02  0.00000000000E+00 0.  1.
</event>
<event>
12    1  0.8684423E-002  0.2135026E+03  0.7818608E-02  0.1138828E+00
         21   -1    0    0  503  502  0.00000000000E+00  0.00000000000E+00  0.12468613249E+03  0.12468613249E+03  0.00000000000E+00 0.  1.
         21   -1    0    0  501  503 -0.00000000000E+00 -0.00000000000E+00 -0.52890299676E+03  0.52890299676E+03  0.00000000000E+00 0.  1.
          6    2    1    2  501    0  0.11287591267E+03 -0.59133733361E+02 -0.38372307741E+03  0.43910521254E+03  0.17126651004E+03 0.  0.
         24    2    3    3    0    0  0.14408370560E+02 -0.71737869210E+02 -0.24988403538E+03  0.27240278226E+03  0.80045747074E+02 0.  0.
         -6    2    1    2    0  502 -0.11287591267E+03  0.59133733361E+02 -0.20493786863E+02  0.21448391671E+03  0.17130553157E+03 0.  0.
        -24    2    5    5    0    0 -0.15686626100E+02  0.76167552730E+02 -0.30680750509E+02  0.11517745844E+03  0.79227344736E+02 0.  0.
          5    1    3    3  501    0  0.98467542108E+02  0.12604135850E+02 -0.13383904203E+03  0.16670243028E+03  0.47000000000E+01 0. -1.
        -11    1    4    4    0    0  0.20354916519E+01 -0.51882146064E+02 -0.24231234347E+03  0.24781277632E+03  0.00000000000E+00 0.  1.
         12    1    4    4    0    0  0.12372878908E+02 -0.19855723147E+02 -0.75716919117E+01  0.24590005949E+02  0.00000000000E+00 0. -1.
         -5    1    5    5    0  502 -0.97189286568E+02 -0.17033819369E+02  0.10186963646E+02  0.99306458270E+02  0.47000000000E+01 0.  1.
         13    1    6    6    0    0 -0.15457088078E+02 -0.88259741603E+01 -0.24057034459E+02  0.29925913498E+02  0.00000000000E+00 0. -1.
        -14    1    6    6    0    0 -0.22953802234E+00  0.84993526890E+02 -0.66237160498E+01  0.85251544943E+02  0.00000000000E+00 0.  1.
</event>
<event>
12    1  0.8684423E-002  0.1992872E+03  0.7818608E-02  0.1150439E+00
         21   -1    0    0  503  502  0.00000000000E+00  0.00000000000E+00  0.13102298594E+03  0.13102298594E+03  0.00000000000E+00 0.  1.
         21   -1    0    0  501  503 -0.00000000000E+00 -0.00000000000E+00 -0.33331665612E+03  0.33331665612E+03  0.00000000000E+00 0.  1.
          6    2    1    2  501    0 -0.10029466868E+03  0.90199150510E+01 -0.17193583165E+03  0.26320583474E+03  0.17197384047E+03 0.  0.
         24    2    3    3    0    0  0.34406665837E+01 -0.99836723509E+01 -0.12244815053E+03  0.14661562632E+03  0.79944233151E+02 0.  0.
         -6    2    1    2    0  502  0.10029466868E+03 -0.90199150510E+01 -0.30357838537E+02  0.20113380732E+03  0.17144337447E+03 0.  0.
        -24    2    5    5    0    0  0.10906774058E+02 -0.10661174789E+02  0.36812246851E+02  0.89210620219E+02  0.79817133959E+02 0.  0.
          5    1    3    3  501    0 -0.10373533527E+03  0.19003587402E+02 -0.49487681125E+02  0.11659020842E+03  0.47000000000E+01 0. -1.
        -11    1    4    4    0    0  0.31517312497E+02  0.44361519620E+01 -0.16072103125E+02  0.35655755919E+02  0.00000000000E+00 0.  1.
         12    1    4    4    0    0 -0.28076645914E+02 -0.14419824313E+02 -0.10637604740E+03  0.11095987040E+03  0.00000000000E+00 0. -1.
         -5    1    5    5    0  502  0.89387894626E+02  0.16412597381E+01 -0.67170085388E+02  0.11192318710E+03  0.47000000000E+01 0.  1.
         13    1    6    6    0    0  0.35753825657E+02 -0.14145139173E+02  0.48199596175E+02  0.61657295454E+02  0.00000000000E+00 0. -1.
        -14    1    6    6    0    0 -0.24847051599E+02  0.34839643843E+01 -0.11387349324E+02  0.27553324765E+02  0.00000000000E+00 0.  1.
</event>
<event>
12    1  0.8684423E-002  0.1776488E+03  0.7818608E-02  0.1170361E+00
         21   -1    0    0  503  502  0.00000000000E+00  0.00000000000E+00  0.15548616718E+03  0.15548616718E+03  0.00000000000E+00 0. -1.
         21   -1    0    0  501  503 -0.00000000000E+00 -0.00000000000E+00 -0.36784495812E+03  0.36784495812E+03  0.00000000000E+00 0. -1.
          6    2    1    2  501    0 -0.34426849259E+02  0.23995951150E+02 -0.28218050687E+03  0.33344406545E+03  0.17262124061E+03 0.  0.
         24    2    3    3    0    0 -0.55654638100E+02 -0.10995642326E+02 -0.27476654308E+03  0.29158612126E+03  0.79419582114E+02 0.  0.
         -6    2    1    2    0  502  0.34426849259E+02 -0.23995951150E+02  0.69821715924E+02  0.18988705984E+03  0.17152553705E+03 0.  0.
        -24    2    5    5    0    0 -0.87098801474E+01  0.46901324611E+02  0.23660718924E+02  0.94807468038E+02  0.78441252624E+02 0.  0.
          5    1    3    3  501    0  0.21227788841E+02  0.34991593476E+02 -0.74139637870E+01  0.41857944194E+02  0.47000000000E+01 0. -1.
        -13    1    4    4    0    0  0.18799739448E+02 -0.57429754091E+01 -0.31534908160E+02  0.37159956977E+02  0.00000000000E+00 0.  1.
         14    1    4    4    0    0 -0.74454377548E+02 -0.52526669171E+01 -0.24323163492E+03  0.25442616428E+03  0.00000000000E+00 0. -1.
         -5    1    5    5    0  502  0.43136729406E+02 -0.70897275761E+02  0.46160997000E+02  0.95079591807E+02  0.47000000000E+01 0.  1.
         11    1    6    6    0    0  0.34852846334E+02  0.22356324017E+02  0.15123138723E+02  0.44082144299E+02  0.00000000000E+00 0. -1.
        -12    1    6    6    0    0 -0.43562726482E+02  0.24545000594E+02  0.85375802006E+01  0.50725323739E+02  0.00000000000E+00 0.  1.
</event>
<event>
12    1  0.8684423E-002  0.1761260E+03  0.7818608E-02  0.1171807E+00
         21   -1    0    0  501  502  0.00000000000E+00  0.00000000000E+00  0.27876891220E+02  0.27876891220E+02  0.00000000000E+00 0. -1.
         21   -1    0    0  502  503 -0.00000000000E+00 -0.00000000000E+00 -0.11166748020E+04  0.11166748020E+04  0.00000000000E+00 0. -1.
         -6    2    1    2    0  503  0.51271313385E+01  0.40179236401E+02 -0.49425976075E+03  0.52470285406E+03  0.17140512084E+03 0.  0.
        -24    2    3    3    0    0  0.60084541654E+02 -0.63294677074E+01 -0.33714606039E+03  0.35181508310E+03  0.80350310228E+02 0.  0.
          6    2    1    2  501    0 -0.51271313385E+01 -0.40179236401E+02 -0.59453815004E+03  0.61984883917E+03  0.17057641412E+03 0.  0.
         24    2    5    5    0    0  0.35458602420E+02 -0.91796569419E+01 -0.52772824960E+03  0.53562397047E+03  0.83990200172E+02 0.  0.
          5    1    5    5  501    0 -0.40585733758E+02 -0.30999579459E+02 -0.66809900438E+02  0.84224868702E+02  0.47000000000E+01 0. -1.
        -11    1    6    6    0    0  0.48449675997E+02 -0.32832111577E+02 -0.25829083100E+03  0.26483857731E+03  0.00000000000E+00 0.  1.
         12    1    6    6    0    0 -0.12991073578E+02  0.23652454635E+02 -0.26943741860E+03  0.27078539315E+03  0.00000000000E+00 0. -1.
         -5    1    3    3    0  503 -0.54957410316E+02  0.46508704108E+02 -0.15711370037E+03  0.17288777097E+03  0.47000000000E+01 0.  1.
         11    1    4    4    0    0  0.27636910975E+02  0.28676061594E+02 -0.24319731869E+03  0.24643670826E+03  0.00000000000E+00 0. -1.
        -12    1    4    4    0    0  0.32447630679E+02 -0.35005529302E+02 -0.93948741691E+02  0.10537837484E+03  0.00000000000E+00 0.  1.
</event>
<event>
12    1  0.8684423E-002  0.2260683E+03  0.7818608E-02  0.1129496E+00
         21   -1    0    0  501  502  0.00000000000E+00  0.00000000000E+00  0.13432629654E+03  0.13432629654E+03  0.00000000000E+00 0.  1.
         21   -1    0    0  502  503 -0.00000000000E+00 -0.00000000000E+00 -0.37996106676E+03  0.37996106676E+03  0.00000000000E+00 0.  1.
         -6    2    1    2    0  503 -0.10687996526E+03  0.98265093382E+02 -0.12517340569E+03  0.25812763853E+03  0.17286451553E+03 0.  0.
        -24    2    3    3    0    0 -0.53162932488E+02  0.11995245483E+01 -0.10980406097E+03  0.14603146990E+03  0.80252863790E+02 0.  0.
          6    2    1    2  501    0  0.10687996526E+03 -0.98265093382E+02 -0.12046136453E+03  0.25615972477E+03  0.17328447334E+03 0.  0.
         24    2    5    5    0    0  0.12532969990E+03 -0.85195561039E+02 -0.44482826601E+02  0.17674918637E+03  0.79345672359E+02 0.  0.
          5    1    5    5  501    0 -0.18449734639E+02 -0.13069532343E+02 -0.75978537925E+02  0.79410538401E+02  0.47000000000E+01 0. -1.
        -11    1    6    6    0    0  0.11491655489E+03 -0.35596692321E+02 -0.28878009160E+02  0.12372097035E+03  0.00000000000E+00 0.  1.
         12    1    6    6    0    0  0.10413145018E+02 -0.49598868717E+02 -0.15604817441E+02  0.53028216023E+02  0.00000000000E+00 0. -1.
         -5    1    3    3    0  503 -0.53717032777E+02  0.97065568834E+02 -0.15369344720E+02  0.11209616863E+03  0.47000000000E+01 0.  1.
         13    1    4    4    0    0 -0.59361600183E+02 -0.17800976165E+02 -0.40815725380E+02  0.74206453675E+02  0.00000000000E+00 0. -1.
        -14    1    4    4    0    0  0.61986676952E+01  0.19000500713E+02 -0.68988335592E+02  0.71825016229E+02  0.00000000000E+00 0.  1.
</event>
<event>
12    1  0.8684423E-002  0.1984399E+03  0.7818608E-02  0.1155017E+00
         21   -1    0    0  501  502  0.00000000000E+00  0.00000000000E+00  0.56826967032E+03  0.56826967032E+03  0.00000000000E+00 0.  1.
         21   -1    0    0  502  503 -0.00000000000E+00 -0.00000000000E+00 -0.11920871616E+03  0.11920871616E+03  0.00000000000E+00 0. -1.
         -6    2    1    2    0  503  0.86119769441E+02 -0.77403475684E+01 -0.52623138327E+01  0.19850966015E+03  0.17861093347E+03 0.  0.
        -24    2    3    3    0    0  0.81227726062E+02  0.47693880079E+02  0.35728918115E+02  0.12923299178E+03  0.80944183839E+02 0.  0.
          6    2    1    2  501    0 -0.86119769441E+02  0.77403475684E+01  0.45432326800E+03  0.48896872633E+03  0.15875848266E+03 0.  0.
         24    2    5    5    0    0 -0.52780604918E+02 -0.51429373810E+02  0.26598990998E+03  0.28870864653E+03  0.84683396395E+02 0.  0.
          5    1    5    5  501    0 -0.33339164523E+02  0.59169721379E+02  0.18833335802E+03  0.20026007980E+03  0.47000000000E+01 0. -1.
        -13    1    6    6    0    0 -0.74411908544E+02 -0.50492807038E+02  0.22599627218E+03  0.24323028334E+03  0.00000000000E+00 0.  1.
         14    1    6    6    0    0  0.21631303626E+02 -0.93656677218E+00  0.39993637802E+02  0.45478363191E+02  0.00000000000E+00 0. -1.
         -5    1    3    3    0  503  0.48920433794E+01 -0.55434227648E+02 -0.40991231948E+02  0.69276668366E+02  0.47000000000E+01 0.  1.
         11    1    4    4    0    0  0.58882341459E+02 -0.11756694526E+02  0.10819642533E+02  0.61011594525E+02  0.00000000000E+00 0. -1.
        -12    1    4    4    0    0  0.22345384602E+02  0.59450574605E+02  0.24909275582E+02  0.68221397258E+02  0.00000000000E+00 0.  1.
</event>
<event>
12    1  0.8684423E-002  0.2593016E+03  0.7818608E-02  0.1107665E+00
         21   -1    0    0  501  502  0.00000000000E+00  0.00000000000E+00  0.31201960121E+03  0.31201960121E+03  0.00000000000E+00 0. -1.
         21   -1    0    0  502  503 -0.00000000000E+00 -0.00000000000E+00 -0.28789271786E+03  0.28789271786E+03  0.00000000000E+00 0. -1.
         -6    2    1    2    0  503 -0.13641473897E+03  0.13670849673E+03 -0.13894880352E+03  0.29359387529E+03  0.17202441549E+03 0.  0.
        -24    2    3    3    0    0 -0.40007228771E+02  0.14135270010E+03 -0.10409933085E+03  0.19086825827E+03  0.63347116373E+02 0.  0.
          6    2    1    2  501    0  0.13641473897E+03 -0.13670849673E+03  0.16307568688E+03  0.30631844378E+03  0.17302923239E+03 0.  0.
         24    2    5    5    0    0  0.10775232188E+03 -0.15640918468E+03  0.89501057525E+02  0.22480177466E+03  0.80318134145E+02 0.  0.
          5    1    5    5  501    0  0.28662417091E+02  0.19700687943E+02  0.73574629352E+02  0.81516669112E+02  0.47000000000E+01 0. -1.
        -11    1    6    6    0    0  0.70469691303E+02 -0.41737277852E+02  0.15593516897E+02  0.83373470145E+02  0.00000000000E+00 0.  1.
         12    1    6    6    0    0  0.37282630575E+02 -0.11467190682E+03  0.73907540628E+02  0.14142830452E+03  0.00000000000E+00 0. -1.
         -5    1    3    3    0  503 -0.96407510197E+02 -0.46442033663E+01 -0.34849472664E+02  0.10272561702E+03  0.47000000000E+01 0.  1.
         13    1    4    4    0    0  0.47167949135E+01 -0.29039448248E+01 -0.13876269916E+02  0.14940947647E+02  0.00000000000E+00 0. -1.
        -14    1    4    4    0    0 -0.44724023685E+02  0.14425664492E+03 -0.90223060939E+02  0.17592731063E+03  0.00000000000E+00 0.  1.
</event>
<event>
12    1  0.8684423E-002  0.1809409E+03  0.7818608E-02  0.1167402E+00
         21   -1    0    0  501  502  0.00000000000E+00  0.00000000000E+00  0.27323097721E+02  0.27323097721E+02  0.00000000000E+00 0.  1.
         21   -1    0    0  502  503 -0.00000000000E+00 -0.00000000000E+00 -0.17543613012E+04  0.17543613012E+04  0.00000000000E+00 0.  1.
         -6    2    1    2    0  503  0.34754706534E+02 -0.33661798780E+02 -0.35236438473E+03  0.39515357565E+03  0.17217631197E+03 0.  0.
        -24    2    3    3    0    0  0.43775569733E+02 -0.43352722631E+02 -0.10149971095E+03  0.14389581054E+03  0.81289937283E+02 0.  0.
          6    2    1    2  501    0 -0.34754706534E+02  0.33661798780E+02 -0.13746738187E+04  0.13865308232E+04  0.17435197043E+03 0.  0.
         24    2    5    5    0    0 -0.29414798270E+02 -0.24309353511E+01 -0.32367582484E+03  0.33488921451E+03  0.80706917938E+02 0.  0.
          5    1    5    5  501    0 -0.53399082638E+01  0.36092734131E+02 -0.10509979939E+04  0.10516416087E+04  0.47000000000E+01 0. -1.
        -13    1    6    6    0    0  0.26153148039E+02  0.57778778291E+01 -0.14948901735E+03  0.15186947466E+03  0.00000000000E+00 0.  1.
         14    1    6    6    0    0 -0.55567946308E+02 -0.82088131802E+01 -0.17418680749E+03  0.18301973985E+03  0.00000000000E+00 0. -1.
         -5    1    3    3    0  503 -0.90208631994E+01  0.96909238503E+01 -0.25086467378E+03  0.25125776511E+03  0.47000000000E+01 0.  1.
         11    1    4    4    0    0  0.47260855886E+02  0.67859723191E+01 -0.69477826538E+02  0.84301876016E+02  0.00000000000E+00 0. -1.
        -12    1    4    4    0    0 -0.34852861530E+01 -0.50138694950E+02 -0.32021884407E+02  0.59593934522E+02  0.00000000000E+00 0.  1.
</event>
<event>
12    1  0.8684423E-002  0.2336846E+03  0.7818608E-02  0.1124592E+00
         21   -1    0    0  501  502  0.00000000000E+00  0.00000000000E+00  0.66092062624E+02  0.66092062624E+02  0.00000000000E+00 0. -1.
         21   -1    0    0  502  503 -0.00000000000E+00 -0.00000000000E+00 -0.15813197780E+04  0.15813197780E+04  0.00000000000E+00 0.  1.
         -6    2    1    2    0  503 -0.15458210855E+03  0.58719371664E+01 -0.13282385333E+04  0.13481236436E+04  0.17114218923E+03 0.  0.
        -24    2    3    3    0    0 -0.10335770815E+03 -0.64108310231E+02 -0.82574051763E+03  0.83817509712E+03  0.76794529075E+02 0.  0.
          6    2    1    2  501    0  0.15458210855E+03 -0.58719371664E+01 -0.18698918204E+03  0.29928819707E+03  0.17515239872E+03 0.  0.
         24    2    5    5    0    0  0.96959074546E+02  0.27000794652E+02 -0.19446422192E+03  0.23236288970E+03  0.77756503622E+02 0.  0.
          5    1    5    5  501    0  0.57623034002E+02 -0.32872731818E+02  0.74750398839E+01  0.66925307367E+02  0.47000000000E+01 0. -1.
        -13    1    6    6    0    0 -0.40474013818E+01 -0.80010318299E+01 -0.59598943680E+02  0.60269661158E+02  0.00000000000E+00 0.  1.
         14    1    6    6    0    0  0.10100647593E+03  0.35001826482E+02 -0.13486527824E+03  0.17209322855E+03  0.00000000000E+00 0. -1.
         -5    1    3    3    0  503 -0.51224400395E+02  0.69980247398E+02 -0.50249801571E+03  0.50994854644E+03  0.47000000000E+01 0.  1.
         11    1    4    4    0    0 -0.74520769591E+02 -0.12633307481E+01 -0.44829451232E+03  0.45444791878E+03  0.00000000000E+00 0. -1.
        -12    1    4    4    0    0 -0.28836938562E+02 -0.62844979483E+02 -0.37744600531E+03  0.38372717834E+03  0.00000000000E+00 0.  1.
</event>
<event>
12    1  0.8684423E-002  0.3004292E+03  0.7818608E-02  0.1085101E+00
         21   -1    0    0  501  502  0.00000000000E+00  0.00000000000E+00  0.32572074911E+03  0.32572074911E+03  0.00000000000E+00 0.  1.
         21   -1    0    0  502  503 -0.00000000000E+00 -0.00000000000E+00 -0.27757287332E+03  0.27757287332E+03  0.00000000000E+00 0. -1.
         -6    2    1    2    0  503  0.24396182966E+03 -0.36657487808E+02  0.57566735764E+01  0.29988841696E+03  0.17040768055E+03 0.  0.
        -24    2    3    3    0    0  0.87016597835E+02  0.18140758095E+01 -0.51504320037E+02  0.12838687647E+03  0.79090555041E+02 0.  0.
          6    2    1    2  501    0 -0.24396182966E+03  0.36657487808E+02  0.42391202215E+02  0.30340520547E+03  0.17145424735E+03 0.  0.
         24    2    5    5    0    0 -0.25467225326E+03  0.60890470885E+02  0.36957728105E+02  0.27595409833E+03  0.78861807558E+02 0.  0.
          5    1    5    5  501    0  0.10710423597E+02 -0.24232983077E+02  0.54334741101E+01  0.27451107143E+02  0.47000000000E+01 0. -1.
        -11    1    6    6    0    0 -0.99468194792E+01  0.23511066091E+02 -0.72532442641E+00  0.25538902521E+02  0.00000000000E+00 0.  1.
         12    1    6    6    0    0 -0.24472543378E+03  0.37379404794E+02  0.37683052531E+02  0.25041519580E+03  0.00000000000E+00 0. -1.
         -5    1    3    3    0  503  0.15694523183E+03 -0.38471563617E+02  0.57260993614E+02  0.17150154049E+03  0.47000000000E+01 0.  1.
         13    1    4    4    0    0  0.15332512947E+02 -0.30856795902E+02 -0.32463449832E+02  0.47340293425E+02  0.00000000000E+00 0. -1.
        -14    1    4    4    0    0  0.71684084888E+02  0.32670871711E+02 -0.19040870205E+02  0.81046583042E+02  0.00000000000E+00 0.  1.
</event>
<event>
12    1  0.8684423E-002  0.2264645E+03  0.7818608E-02  0.1129298E+00
         21   -1    0    0  503  502  0.00000000000E+00  0.00000000000E+00  0.12793736866E+03  0.12793736866E+03  0.00000000000E+00 0.  1.
         21   -1    0    0  501  503 -0.00000000000E+00 -0.00000000000E+00 -0.13824339359E+04  0.13824339359E+04  0.00000000000E+00 0. -1.
          6    2    1    2  501    0  0.38218705721E+02  0.14275336729E+03 -0.12637290701E+04  0.12837187235E+04  0.17053857426E+03 0.  0.
         24    2    3    3    0    0  0.87327717209E+02  0.69005148039E+02 -0.79493797580E+03  0.80660482214E+03  0.79354351360E+02 0.  0.
         -6    2    1    2    0  502 -0.38218705721E+02 -0.14275336729E+03  0.92325028272E+01  0.22665258101E+03  0.17160116558E+03 0.  0.
        -24    2    5    5    0    0 -0.66619998593E+02 -0.76447308039E+02 -0.45568935781E+02  0.13594197190E+03  0.78238588291E+02 0.  0.
          5    1    3    3  501    0 -0.49109011488E+02  0.73748219250E+02 -0.46879109426E+03  0.47711390140E+03  0.47000000000E+01 0. -1.
        -13    1    4    4    0    0  0.23969260881E+02  0.33739446050E+02 -0.10492756928E+03  0.11279481585E+03  0.00000000000E+00 0.  1.
         14    1    4    4    0    0  0.63358456328E+02  0.35265701990E+02 -0.69001040652E+03  0.69381000629E+03  0.00000000000E+00 0. -1.
         -5    1    5    5    0  502  0.28401292872E+02 -0.66306059251E+02  0.54801438608E+02  0.90710609102E+02  0.47000000000E+01 0.  1.
         13    1    6    6    0    0 -0.20748949310E+02  0.13060463226E+02 -0.21301517395E+02  0.32478442704E+02  0.00000000000E+00 0. -1.
        -14    1    6    6    0    0 -0.45871049283E+02 -0.89507771265E+02 -0.24267418386E+02  0.10346352920E+03  0.00000000000E+00 0.  1.
</event>
<event>
12    1  0.8684423E-002  0.2487106E+03  0.7818608E-02  0.1115939E+00
         21   -1    0    0  503  502  0.00000000000E+00  0.00000000000E+00  0.56879457868E+02  0.56879457868E+02  0.00000000000E+00 0.  1.
         21   -1    0    0  501  503 -0.00000000000E+00 -0.00000000000E+00 -0.10652500268E+04  0.10652500268E+04  0.00000000000E+00 0.  1.
          6    2    1    2  501    0  0.14303219921E+03  0.79408476428E+02 -0.40540832856E+03  0.46988687075E+03  0.17226097150E+03 0.  0.
         24    2    3    3    0    0  0.81781261353E+02 -0.23120086794E+02 -0.22463338492E+03  0.25317172612E+03  0.80081534481E+02 0.  0.
         -6    2    1    2    0  502 -0.14303219921E+03 -0.79408476428E+02 -0.60296224035E+03  0.65224261389E+03  0.18733138539E+03 0.  0.
        -24    2    5    5    0    0 -0.10414044488E+03 -0.61661478007E+02 -0.20017521291E+03  0.24716607300E+03  0.79834714558E+02 0.  0.
          5    1    3    3  501    0  0.61250937856E+02  0.10252856322E+03 -0.18077494364E+03  0.21671514463E+03  0.47000000000E+01 0. -1.
        -11    1    4    4    0    0 -0.77973322099E+01 -0.24452079366E+01  0.21609246548E+01  0.84526343118E+01  0.00000000000E+00 0.  1.
         12    1    4    4    0    0  0.89578593563E+02 -0.20674878857E+02 -0.22679430958E+03  0.24471909181E+03  0.00000000000E+00 0. -1.
         -5    1    5    5    0  502 -0.38891754326E+02 -0.17746998421E+02 -0.40278702744E+03  0.40507654089E+03  0.47000000000E+01 0.  1.
         13    1    6    6    0    0 -0.95439953300E+02 -0.80067884374E+02 -0.16977436683E+03  0.21057774438E+03  0.00000000000E+00 0. -1.
        -14    1    6    6    0    0 -0.87004915837E+01  0.18406406367E+02 -0.30400846078E+02  0.36588328623E+02  0.00000000000E+00 0.  1.
</event>
<event>
12    1  0.8684423E-002  0.2415411E+03  0.7818608E-02  0.1118798E+00
         21   -1    0    0  501  502  0.00000000000E+00  0.00000000000E+00  0.55851851421E+02  0.55851851421E+02  0.00000000000E+00 0.  1.
         21   -1    0    0  502  503 -0.00000000000E+00 -0.00000000000E+00 -0.13825918966E+04  0.13825918966E+04  0.00000000000E+00 0. -1.
         -6    2    1    2    0  503  0.16032734673E+03  0.53848768648E+02 -0.30755122185E+03  0.39106247863E+03  0.17244581796E+03 0.  0.
        -24    2    3    3    0    0  0.12838862818E+03 -0.10428605314E+02 -0.13613599874E+03  0.20516753178E+03  0.83476405588E+02 0.  0.
          6    2    1    2  501    0 -0.16032734673E+03 -0.53848768648E+02 -0.10191888233E+04  0.10473812694E+04  0.17221242084E+03 0.  0.
         24    2    5    5    0    0 -0.13729747565E+02 -0.46123256230E+02 -0.41506633777E+03  0.42566058679E+03  0.81185033496E+02 0.  0.
          5    1    5    5  501    0 -0.14659759917E+03 -0.77255124179E+01 -0.60412248554E+03  0.62172068259E+03  0.47000000000E+01 0. -1.
        -13    1    6    6    0    0  0.22817546179E+02 -0.48785626649E+02 -0.30317336397E+03  0.30792006495E+03  0.00000000000E+00 0.  1.
         14    1    6    6    0    0 -0.36547293744E+02  0.26623704185E+01 -0.11189297380E+03  0.11774052184E+03  0.00000000000E+00 0. -1.
         -5    1    3    3    0  503  0.31938718549E+02  0.64277373963E+02 -0.17141522311E+03  0.18589494684E+03  0.47000000000E+01 0.  1.
         11    1    4    4    0    0  0.21021629605E+02 -0.14027400640E+02 -0.80123587551E+02  0.84014678253E+02  0.00000000000E+00 0. -1.
        -12    1    4    4    0    0  0.10736699858E+03  0.35987953258E+01 -0.56012411188E+02  0.12115285353E+03  0.00000000000E+00 0.  1.
</event>
<event>
12    1  0.8684423E-002  0.1913636E+03  0.7818608E-02  0.1157496E+00
         21   -1    0    0  501  502  0.00000000000E+00  0.00000000000E+00  0.20832229310E+03  0.20832229310E+03  0.00000000000E+00 0. -1.
         21   -1    0    0  502  503 -0.00000000000E+00 -0.00000000000E+00 -0.19040346826E+03  0.19040346826E+03  0.00000000000E+00 0.  1.
         -6    2    1    2    0  503 -0.11965406468E+02 -0.81148841419E+02 -0.48272087444E+02  0.19623808068E+03  0.17161259996E+03 0.  0.
        -24    2    3    3    0    0  0.51784176090E+02 -0.26563887332E+02 -0.20970333732E+01  0.10033316888E+03  0.81701323270E+02 0.  0.
          6    2    1    2  501    0  0.11965406468E+02  0.81148841419E+02  0.66190912277E+02  0.20248768069E+03  0.17289221656E+03 0.  0.
         24    2    5    5    0    0  0.30591810812E+02 -0.17057826756E+02  0.11941270565E+02  0.88660591473E+02  0.80568468989E+02 0.  0.
          5    1    5    5  501    0 -0.18626404344E+02  0.98206668175E+02  0.54249641711E+02  0.11382708921E+03  0.47000000000E+01 0. -1.
        -11    1    6    6    0    0  0.35623932171E+02  0.10470131885E+02 -0.23166059495E+02  0.43764763424E+02  0.00000000000E+00 0.  1.
         12    1    6    6    0    0 -0.50321213590E+01 -0.27527958641E+02  0.35107330060E+02  0.44895828049E+02  0.00000000000E+00 0. -1.
         -5    1    3    3    0  503 -0.63749582558E+02 -0.54584954088E+02 -0.46175054070E+02  0.95904911801E+02  0.47000000000E+01 0.  1.
         13    1    4    4    0    0  0.43815712092E+02  0.17151047549E+02  0.19492592722E+02  0.50930700262E+02  0.00000000000E+00 0. -1.
        -14    1    4    4    0    0  0.79684639977E+01 -0.43714934880E+02 -0.21589626096E+02  0.49402468613E+02  0.00000000000E+00 0.  1.
</event>
<event>
12    1  0.8684423E-002  0.2415983E+03  0.7818608E-02  0.1118798E+00
         21   -1    0    0  501  502  0.00000000000E+00  0.00000000000E+00  0.98223220855E+03  0.98223220855E+03  0.00000000000E+00 0. -1.
         21   -1    0    0  502  503 -0.00000000000E+00 -0.00000000000E+00 -0.19433494076E+03  0.19433494076E+03  0.00000000000E+00 0.  1.
         -6    2    1    2    0  503 -0.16264454204E+03 -0.45854053743E+02 -0.96283664759E+02  0.26007742243E+03  0.17266696343E+03 0.  0.
        -24    2    3    3    0    0 -0.42004624610E+02 -0.64689518663E+02 -0.78895939490E+02  0.13665462306E+03  0.80627504126E+02 0.  0.
          6    2    1    2  501    0  0.16264454204E+03  0.45854053743E+02  0.88418093255E+03  0.91648972687E+03  0.17210943227E+03 0.  0.
         24    2    5    5    0    0  0.12916035564E+03  0.87409049769E+02  0.77944890537E+03  0.79885088996E+03  0.79368815360E+02 0.  0.
          5    1    5    5  501    0  0.33484186396E+02 -0.41554996025E+02  0.10473202717E+03  0.11763883691E+03  0.47000000000E+01 0. -1.
        -13    1    6    6    0    0  0.12625922749E+03  0.60910109340E+02  0.53909356564E+03  0.55702181866E+03  0.00000000000E+00 0.  1.
         14    1    6    6    0    0  0.29011281483E+01  0.26498940428E+02  0.24035533973E+03  0.24182907130E+03  0.00000000000E+00 0. -1.
         -5    1    3    3    0  503 -0.12063991743E+03  0.18835464920E+02 -0.17387725269E+02  0.12342279938E+03  0.47000000000E+01 0.  1.
         11    1    4    4    0    0  0.24453276835E+02 -0.17143989497E+02 -0.20930405865E+02  0.36468630541E+02  0.00000000000E+00 0. -1.
        -12    1    4    4    0    0 -0.66457901445E+02 -0.47545529166E+02 -0.57965533625E+02  0.10018599252E+03  0.00000000000E+00 0.  1.
</event>
<event>
12    1  0.8684423E-002  0.2225185E+03  0.7818608E-02  0.1132189E+00
         21   -1    0    0  503  502  0.00000000000E+00  0.00000000000E+00  0.50257893163E+03  0.50257893163E+03  0.00000000000E+00 0. -1.
         21   -1    0    0  501  503 -0.00000000000E+00 -0.00000000000E+00 -0.11071119036E+03  0.11071119036E+03  0.00000000000E+00 0.  1.
          6    2    1    2  501    0 -0.48146580690E+02 -0.13179568526E+03  0.92135366560E+02  0.23998868853E+03  0.17151515667E+03 0.  0.
         24    2    3    3    0    0 -0.58877290786E+01 -0.15323352798E+03  0.77356473976E+02  0.19012991492E+03  0.81548642111E+02 0.  0.
         -6    2    1    2    0  502  0.48146580690E+02  0.13179568526E+03  0.29973237471E+03  0.37330143345E+03  0.17270283113E+03 0.  0.
        -24    2    5    5    0    0  0.29021159088E+02  0.32596799917E+02  0.50551261265E+02  0.10437854877E+03  0.80216409725E+02 0.  0.
          5    1    3    3  501    0 -0.42258851611E+02  0.21437842725E+02  0.14778892584E+02  0.49858773613E+02  0.47000000000E+01 0. -1.
        -11    1    4    4    0    0 -0.20646910388E+02 -0.91002092026E+02  0.48426251149E+01  0.93440498071E+02  0.00000000000E+00 0.  1.
         12    1    4    4    0    0  0.14759181310E+02 -0.62231435956E+02  0.72513848861E+02  0.96689416849E+02  0.00000000000E+00 0. -1.
         -5    1    5    5    0  502  0.19125421601E+02  0.99198885340E+02  0.24918111345E+03  0.26892288468E+03  0.47000000000E+01 0.  1.
         11    1    6    6    0    0 -0.15342616366E+02  0.42316357271E+02  0.32444266287E+02  0.55486037744E+02  0.00000000000E+00 0. -1.
        -12    1    6    6    0    0  0.44363775454E+02 -0.97195573544E+01  0.18106994978E+02  0.48892511031E+02  0.00000000000E+00 0.  1.
</event>
<event>
12    1  0.8684423E-002  0.1837050E+03  0.7818608E-02  0.1164351E+00
         21   -1    0    0  503  502  0.00000000000E+00  0.00000000000E+00  0.38255039628E+03  0.38255039628E+03  0.00000000000E+00 0. -1.
         21   -1    0    0  501  503 -0.00000000000E+00 -0.00000000000E+00 -0.93632844875E+02  0.93632844875E+02  0.00000000000E+00 0. -1.
          6    2    1    2  501    0 -0.56019970053E+02 -0.28051204924E+02  0.86413594286E+02  0.20301436285E+03  0.17269167642E+03 0.  0.
         24    2    3    3    0    0  0.15629191359E+02  0.33215352898E+02  0.40787479284E+02  0.98176269542E+02  0.81409029869E+02 0.  0.
         -6    2    1    2    0  502  0.56019970053E+02  0.28051204924E+02  0.20250395712E+03  0.27316887830E+03  0.17230286208E+03 0.  0.
        -24    2    5    5    0    0 -0.79601870205E+01 -0.16556433569E+02  0.16896743657E+03  0.18813894168E+03  0.80677051797E+02 0.  0.
          5    1    3    3  501    0 -0.71649161412E+02 -0.61266557823E+02  0.45626115002E+02  0.10483809331E+03  0.47000000000E+01 0. -1.
        -11    1    4    4    0    0  0.86575476044E+01 -0.10777815749E+02 -0.19076648048E+02  0.23559137157E+02  0.00000000000E+00 0.  1.
         12    1    4    4    0    0  0.69716437549E+01  0.43993168648E+02  0.59864127331E+02  0.74617132385E+02  0.00000000000E+00 0. -1.
         -5    1    5    5    0  502  0.63980157074E+02  0.44607638494E+02  0.33536520551E+02  0.85029936621E+02  0.47000000000E+01 0.  1.
         11    1    6    6    0    0  0.13249903372E+02 -0.11177391084E+02 -0.42410233514E+00  0.17339950219E+02  0.00000000000E+00 0. -1.
        -12    1    6    6    0    0 -0.21210090392E+02 -0.53790424848E+01  0.16939153890E+03  0.17079899146E+03  0.00000000000E+00 0.  1.
</event>
<event>
12    1  0.8684423E-002  0.1799183E+03  0.7818608E-02  0.1168073E+00
         21   -1    0    0  503  502  0.00000000000E+00  0.00000000000E+00  0.47788667242E+03  0.47788667242E+03  0.00000000000E+00 0. -1.
         21   -1    0    0  501  503 -0.00000000000E+00 -0.00000000000E+00 -0.18079634233E+03  0.18079634233E+03  0.00000000000E+00 0. -1.
          6    2    1    2  501    0 -0.48456334453E+02 -0.17366967669E+02 -0.11235442878E+03  0.21145197559E+03  0.17157736564E+03 0.  0.
         24    2    3    3    0    0 -0.91648749400E+02 -0.42953677808E+02 -0.87020940905E+02  0.15502379068E+03  0.78836665434E+02 0.  0.
         -6    2    1    2    0  502  0.48456334453E+02  0.17366967669E+02  0.40944475887E+03  0.44723103916E+03  0.17239769112E+03 0.  0.
        -24    2    5    5    0    0  0.96897611320E+02  0.21233588527E+02  0.33383577118E+03  0.35722927761E+03  0.79538810037E+02 0.  0.
          5    1    3    3  501    0  0.43192414948E+02  0.25586710140E+02 -0.25333487874E+02  0.56428184914E+02  0.47000000000E+01 0. -1.
        -11    1    4    4    0    0 -0.72349659038E+02 -0.20125394531E+02 -0.14364315186E+02  0.76458081448E+02  0.00000000000E+00 0.  1.
         12    1    4    4    0    0 -0.19299090362E+02 -0.22828283278E+02 -0.72656625719E+02  0.78565709232E+02  0.00000000000E+00 0. -1.
         -5    1    5    5    0  502 -0.48441276868E+02 -0.38666208584E+01  0.75608987688E+02  0.90001761542E+02  0.47000000000E+01 0.  1.
         11    1    6    6    0    0  0.59323052363E+02  0.16893213692E+02  0.82212058302E+02  0.10277853735E+03  0.00000000000E+00 0. -1.
        -12    1    6    6    0    0  0.37574558957E+02  0.43403748353E+01  0.25162371288E+03  0.25445074026E+03  0.00000000000E+00 0.  1.
</event>
<event>
12    1  0.8684423E-002  0.2211666E+03  0.7818608E-02  0.1133161E+00
         21   -1    0    0  503  502  0.00000000000E+00  0.00000000000E+00  0.14296378347E+03  0.14296378347E+03  0.00000000000E+00 0.  1.
         21   -1    0    0  501  503 -0.00000000000E+00 -0.00000000000E+00 -0.35341047364E+03  0.35341047364E+03  0.00000000000E+00 0. -1.
          6    2    1    2  501    0  0.11101813947E+03  0.82093474004E+02 -0.15166623670E+03  0.26752971932E+03  0.17177059586E+03 0.  0.
         24    2    3    3    0    0  0.13888616656E+03  0.56231641517E+02 -0.15371260783E+03  0.22916646935E+03  0.80239267799E+02 0.  0.
         -6    2    1    2    0  502 -0.11101813947E+03 -0.82093474004E+02 -0.58780453467E+02  0.22884453779E+03  0.17277243704E+03 0.  0.
        -24    2    5    5    0    0 -0.99438557533E+02 -0.33889044741E+02 -0.98854915810E+02  0.16492422607E+03  0.79945055430E+02 0.  0.
          5    1    3    3  501    0 -0.27868027093E+02  0.25861832487E+02  0.20463711354E+01  0.38363249973E+02  0.47000000000E+01 0. -1.
        -13    1    4    4    0    0  0.13752715537E+03  0.70283447708E+02 -0.13148382903E+03  0.20283362340E+03  0.00000000000E+00 0.  1.
         14    1    4    4    0    0  0.13590111952E+01 -0.14051806191E+02 -0.22228778804E+02  0.26332845950E+02  0.00000000000E+00 0. -1.
         -5    1    5    5    0  502 -0.11579581938E+02 -0.48204429263E+02  0.40074462342E+02  0.63920311721E+02  0.47000000000E+01 0.  1.
         11    1    6    6    0    0 -0.11351753584E+02 -0.40045553020E+02 -0.18559458500E+02  0.45573699937E+02  0.00000000000E+00 0. -1.
        -12    1    6    6    0    0 -0.88086803948E+02  0.61565082788E+01 -0.80295457309E+02  0.11935052613E+03  0.00000000000E+00 0.  1.
</event>
<event>
12    1  0.8684423E-002  0.1793403E+03  0.7818608E-02  0.1169659E+00
         21   -1    0    0  501  502  0.00000000000E+00  0.00000000000E+00  0.33392056230E+02  0.33392056230E+02  0.00000000000E+00 0.  1.
         21   -1    0    0  502  503 -0.00000000000E+00 -0.00000000000E+00 -0.93699511825E+03  0.93699511825E+03  0.00000000000E+00 0.  1.
         -6    2    1    2    0  503  0.29127012857E+02 -0.27881599469E+02 -0.44071355253E+03  0.47397036251E+03  0.16968707284E+03 0.  0.
        -24    2    3    3    0    0  0.18143109008E+02 -0.29876310961E+02 -0.45031632299E+03  0.45851305943E+03  0.78915578663E+02 0.  0.
          6    2    1    2  501    0 -0.29127012857E+02  0.27881599469E+02 -0.46288950949E+03  0.49641681197E+03  0.17474892487E+03 0.  0.
         24    2    5    5    0    0 -0.33394247690E+02 -0.10864845537E+02 -0.10600721604E+03  0.13738121809E+03  0.80017801667E+02 0.  0.
          5    1    5    5  501    0  0.42672348333E+01  0.38746445006E+02 -0.35688229346E+03  0.35903559389E+03  0.47000000000E+01 0. -1.
        -13    1    6    6    0    0 -0.25791712858E+02 -0.42964044049E+02 -0.83717976047E+02  0.97569570290E+02  0.00000000000E+00 0.  1.
         14    1    6    6    0    0 -0.76025348318E+01  0.32099198511E+02 -0.22289239991E+02  0.39811647797E+02  0.00000000000E+00 0. -1.
         -5    1    3    3    0  503  0.10983903849E+02  0.19947114921E+01  0.96027704668E+01  0.15457303074E+02  0.47000000000E+01 0.  1.
         11    1    4    4    0    0 -0.13145772174E+00  0.21737861239E+02 -0.24694535276E+03  0.24790030081E+03  0.00000000000E+00 0. -1.
        -12    1    4    4    0    0  0.18274566730E+02 -0.51614172200E+02 -0.20337097023E+03  0.21061275862E+03  0.00000000000E+00 0.  1.
</event>
<event>
12    1  0.8684423E-002  0.2133299E+03  0.7818608E-02  0.1142858E+00
         21   -1    0    0  501  502  0.00000000000E+00  0.00000000000E+00  0.84602059203E+02  0.84602059203E+02  0.00000000000E+00 0.  1.
         21   -1    0    0  502  503 -0.00000000000E+00 -0.00000000000E+00 -0.54818102491E+03  0.54818102491E+03  0.00000000000E+00 0.  1.
         -6    2    1    2    0  503  0.82164634896E+02 -0.39982833976E+02 -0.32434587035E+03  0.37803714779E+03  0.17135398231E+03 0.  0.
        -24    2    3    3    0    0  0.10390678713E+02  0.32949548551E+02 -0.98847870611E+02  0.13036383252E+03  0.77654287403E+02 0.  0.
          6    2    1    2  501    0 -0.82164634896E+02  0.39982833976E+02 -0.13923309536E+03  0.25474593633E+03  0.19276924805E+03 0.  0.
         24    2    5    5    0    0 -0.39148812392E+02 -0.51198760543E+02 -0.36096016677E+02  0.11044142786E+03  0.82100206915E+02 0.  0.
          5    1    5    5  501    0 -0.43015822504E+02  0.91181594519E+02 -0.10313707868E+03  0.14430450847E+03  0.47000000000E+01 0. -1.
        -11    1    6    6    0    0 -0.19466342999E+02  0.20464889180E+02 -0.19418306087E+02  0.34275659150E+02  0.00000000000E+00 0.  1.
         12    1    6    6    0    0 -0.19682469393E+02 -0.71663649723E+02 -0.16677710590E+02  0.76165768712E+02  0.00000000000E+00 0. -1.
         -5    1    3    3    0  503  0.71773956183E+02 -0.72932382527E+02 -0.22549799974E+03  0.24767331526E+03  0.47000000000E+01 0.  1.
         11    1    4    4    0    0 -0.15194817374E+02  0.33170176099E+01  0.73335472782E+01  0.17194941016E+02  0.00000000000E+00 0. -1.
        -12    1    4    4    0    0  0.25585496088E+02  0.29632530941E+02 -0.10618141789E+03  0.11316889151E+03  0.00000000000E+00 0.  1.
</event>
<event>
12    1  0.8684423E-002  0.2238154E+03  0.7818608E-02  0.1131212E+00
         21   -1    0    0  501  502  0.00000000000E+00  0.00000000000E+00  0.58418451367E+03  0.58418451367E+03  0.00000000000E+00 0. -1.
         21   -1    0    0  502  503 -0.00000000000E+00 -0.00000000000E+00 -0.86226667132E+02  0.86226667132E+02  0.00000000000E+00 0. -1.
         -6    2    1    2    0  503  0.13836553222E+03 -0.36870940822E+02  0.21764115835E+03  0.31218742408E+03  0.17201403188E+03 0.  0.
        -24    2    3    3    0    0  0.10123679039E+03 -0.54912425597E+02  0.83596460968E+02  0.17185172107E+03  0.96334747293E+02 0.  0.
          6    2    1    2  501    0 -0.13836553222E+03  0.36870940822E+02  0.28031668819E+03  0.35822375672E+03  0.17100388129E+03 0.  0.
         24    2    5    5    0    0 -0.27106318330E+02  0.49486286686E+02  0.70187287510E+02  0.12007629262E+03  0.79425535301E+02 0.  0.
          5    1    5    5  501    0 -0.11125921389E+03 -0.12615345864E+02  0.21012940068E+03  0.23814746410E+03  0.47000000000E+01 0. -1.
        -11    1    6    6    0    0 -0.20931658258E+02  0.63037251936E+02  0.78652600839E+02  0.10294688469E+03  0.00000000000E+00 0.  1.
         12    1    6    6    0    0 -0.61746600727E+01 -0.13550965249E+02 -0.84653133291E+01  0.17129407928E+02  0.00000000000E+00 0. -1.
         -5    1    3    3    0  503  0.37128741835E+02  0.18041484775E+02  0.13404469738E+03  0.14033570301E+03  0.47000000000E+01 0.  1.
         11    1    4    4    0    0  0.69924374001E+02 -0.41100069320E+02  0.10409134488E+03  0.13196075878E+03  0.00000000000E+00 0. -1.
        -12    1    4    4    0    0  0.31312416390E+02 -0.13812356277E+02 -0.20494883916E+02  0.39890962295E+02  0.00000000000E+00 0.  1.
</event>
<event>
12    1  0.8684423E-002  0.2832364E+03  0.7818608E-02  0.1093972E+00
         21   -1    0    0  501  502  0.00000000000E+00  0.00000000000E+00  0.12320782189E+03  0.12320782189E+03  0.00000000000E+00 0.  1.
         21   -1    0    0  502  503 -0.00000000000E+00 -0.00000000000E+00 -0.72876203043E+03  0.72876203043E+03  0.00000000000E+00 0. -1.
         -6    2    1    2    0  503 -0.36581031413E+02  0.22162963886E+03 -0.44253006626E+03  0.52541005945E+03  0.17252536724E+03 0.  0.
        -24    2    3    3    0    0  0.49651552461E+01  0.18262497565E+03 -0.21408702369E+03  0.28991958602E+03  0.69595819889E+02 0.  0.
          6    2    1    2  501    0  0.36581031413E+02 -0.22162963886E+03 -0.16302414228E+03  0.32655979288E+03  0.17206556506E+03 0.  0.
         24    2    5    5    0    0  0.69500002265E+02 -0.14749628730E+03 -0.51548676966E+02  0.18861675455E+03  0.79583974013E+02 0.  0.
          5    1    5    5  501    0 -0.32918970851E+02 -0.74133351562E+02 -0.11147546531E+03  0.13794303833E+03  0.47000000000E+01 0. -1.
        -11    1    6    6    0    0  0.78041678983E+02 -0.74497866799E+02 -0.28514432814E+02  0.11159528975E+03  0.00000000000E+00 0.  1.
         12    1    6    6    0    0 -0.85416767183E+01 -0.72998420499E+02 -0.23034244151E+02  0.77021464801E+02  0.00000000000E+00 0. -1.
         -5    1    3    3    0  503 -0.41546186659E+02  0.39004663214E+02 -0.22844304257E+03  0.23549047343E+03  0.47000000000E+01 0.  1.
         11    1    4    4    0    0  0.16714412380E+02  0.18538579702E+02 -0.58019408993E+02  0.63160924142E+02  0.00000000000E+00 0. -1.
        -12    1    4    4    0    0 -0.11749257133E+02  0.16408639594E+03 -0.15606761470E+03  0.22675866187E+03  0.00000000000E+00 0.  1.
</event>
<event>
12    1  0.8684423E-002  0.1726710E+03  0.7818608E-02  0.1175156E+00
         21   -1    0    0  503  502  0.00000000000E+00  0.00000000000E+00  0.16224668962E+03  0.16224668962E+03  0.00000000000E+00 0.  1.
         21   -1    0    0  501  503 -0.00000000000E+00 -0.00000000000E+00 -0.23137209703E+03  0.23137209703E+03  0.00000000000E+00 0.  1.
          6    2    1    2  501    0 -0.14028727231E+02 -0.12264412802E+02 -0.12411302727E+03  0.21264830912E+03  0.17166257258E+03 0.  0.
         24    2    3    3    0    0 -0.13684806354E+02 -0.58155783335E+02 -0.13605889697E+03  0.16499403361E+03  0.71705220342E+02 0.  0.
         -6    2    1    2    0  502  0.14028727231E+02  0.12264412802E+02  0.54987619862E+02  0.18097047753E+03  0.17140435931E+03 0.  0.
        -24    2    5    5    0    0 -0.20518358081E+02 -0.37650371220E+02  0.73564506406E+02  0.11731376162E+03  0.80698380347E+02 0.  0.
          5    1    3    3  501    0 -0.34392087671E+00  0.45891370533E+02  0.11945869700E+02  0.47654275505E+02  0.47000000000E+01 0. -1.
        -13    1    4    4    0    0 -0.19237212624E+02 -0.55079581060E+01 -0.97418653827E+02  0.99452511610E+02  0.00000000000E+00 0.  1.
         14    1    4    4    0    0  0.55524062702E+01 -0.52647825229E+02 -0.38640243139E+02  0.65541522004E+02  0.00000000000E+00 0. -1.
         -5    1    5    5    0  502  0.34547085312E+02  0.49914784022E+02 -0.18576886544E+02  0.63656715916E+02  0.47000000000E+01 0.  1.
         13    1    6    6    0    0 -0.62678999876E+01 -0.31005692409E+02 -0.92992428567E+01  0.32971433844E+02  0.00000000000E+00 0. -1.
        -14    1    6    6    0    0 -0.14250458094E+02 -0.66446788116E+01  0.82863749263E+02  0.84342327773E+02  0.00000000000E+00 0.  1.
</event>
<event>
12    1  0.8684423E-002  0.2371807E+03  0.7818608E-02  0.1121687E+00
         21   -1    0    0  501  502  0.00000000000E+00  0.00000000000E+00  0.22978565171E+03  0.22978565171E+03  0.00000000000E+00 0.  1.
         21   -1    0    0  502  503 -0.00000000000E+00 -0.00000000000E+00 -0.25826163409E+03  0.25826163409E+03  0.00000000000E+00 0. -1.
         -6    2    1    2    0  503 -0.13002483439E+01 -0.16362199066E+03 -0.69949573277E+02  0.24728047161E+03  0.17169986128E+03 0.  0.
        -24    2    3    3    0    0 -0.14937713730E+02 -0.82665341571E+02 -0.11565095573E+03  0.15320249410E+03  0.55128637271E+02 0.  0.
          6    2    1    2  501    0  0.13002483439E+01  0.16362199066E+03  0.41473590898E+02  0.24076681420E+03  0.17168212954E+03 0.  0.
         24    2    5    5    0    0  0.58028593970E+02  0.69105719637E+02  0.44815221248E+02  0.13038254367E+03  0.82754368071E+02 0.  0.
          5    1    5    5  501    0 -0.56728345626E+02  0.94516271021E+02 -0.33416303505E+01  0.11038427052E+03  0.47000000000E+01 0. -1.
        -11    1    6    6    0    0  0.95551696952E+01  0.16779579672E+02  0.55036726333E+02  0.58325781669E+02  0.00000000000E+00 0.  1.
         12    1    6    6    0    0  0.48473424275E+02  0.52326139965E+02 -0.10221505084E+02  0.72056762005E+02  0.00000000000E+00 0. -1.
         -5    1    3    3    0  503  0.13637465386E+02 -0.80956649087E+02  0.45701382456E+02  0.94077977507E+02  0.47000000000E+01 0.  1.
         13    1    4    4    0    0  0.83916000825E+01 -0.74420262814E+02 -0.95023484973E+02  0.12098866544E+03  0.00000000000E+00 0. -1.
        -14    1    4    4    0    0 -0.23329313812E+02 -0.82450787568E+01 -0.20627470760E+02  0.32213828655E+02  0.00000000000E+00 0.  1.
</event>
<event>
12    1  0.8684423E-002  0.1971388E+03  0.7818608E-02  0.1152349E+00
         21   -1    0    0  503  502  0.00000000000E+00  0.00000000000E+00  0.12975342648E+03  0.12975342648E+03  0.00000000000E+00 0.  1.
         21   -1    0    0  501  503 -0.00000000000E+00 -0.00000000000E+00 -0.45229734557E+03  0.45229734557E+03  0.00000000000E+00 0.  1.
          6    2    1    2  501    0 -0.94929191647E+02  0.17348540421E+02 -0.33087079715E+03  0.38473624048E+03  0.17097943458E+03 0.  0.
         24    2    3    3    0    0 -0.36117505265E+02  0.36454775388E+00 -0.30890040475E+03  0.31952842956E+03  0.73309959520E+02 0.  0.
         -6    2    1    2    0  502  0.94929191647E+02 -0.17348540421E+02  0.83268780617E+01  0.19731453157E+03  0.17190452056E+03 0.  0.
        -24    2    5    5    0    0 -0.16920065830E+02  0.67318416371E+00  0.17119008995E+02  0.83584893738E+02  0.80041440439E+02 0.  0.
          5    1    3    3  501    0 -0.58811686381E+02  0.16983992667E+02 -0.21970392399E+02  0.65207810913E+02  0.47000000000E+01 0. -1.
        -13    1    4    4    0    0 -0.21659987578E+02  0.16944945986E+02 -0.33911049539E+02  0.43660571884E+02  0.00000000000E+00 0.  1.
         14    1    4    4    0    0 -0.14457517687E+02 -0.16580398232E+02 -0.27498935521E+03  0.27586785768E+03  0.00000000000E+00 0. -1.
         -5    1    5    5    0  502  0.11184925748E+03 -0.18021724584E+02 -0.87921309330E+01  0.11372963783E+03  0.47000000000E+01 0.  1.
         13    1    6    6    0    0  0.16899644720E+02  0.25935484701E+02 -0.11013311884E+02  0.32856360069E+02  0.00000000000E+00 0. -1.
        -14    1    6    6    0    0 -0.33819710550E+02 -0.25262300537E+02  0.28132320879E+02  0.50728533669E+02  0.00000000000E+00 0.  1.
</event>
<event>
12    1  0.8684423E-002  0.2254065E+03  0.7818608E-02  0.1129956E+00
         21   -1    0    0  503  502  0.00000000000E+00  0.00000000000E+00  0.10869662334E+04  0.10869662334E+04  0.00000000000E+00 0. -1.
         21   -1    0    0  501  503 -0.00000000000E+00 -0.00000000000E+00 -0.54360182628E+02  0.54360182628E+02  0.00000000000E+00 0. -1.
          6    2    1    2  501    0  0.46221725841E+02 -0.13796043770E+03  0.30224903275E+03  0.37704454198E+03  0.17215858541E+03 0.  0.
         24    2    3    3    0    0  0.76345902878E+01 -0.90190878701E+02  0.71252014153E+02  0.13797842059E+03  0.75950730461E+02 0.  0.
         -6    2    1    2    0  502 -0.46221725841E+02  0.13796043770E+03  0.73035701807E+03  0.76428187410E+03  0.17186005620E+03 0.  0.
        -24    2    5    5    0    0 -0.54249755209E+01  0.37878202773E+02  0.52198119092E+03  0.52949813547E+03  0.80247885835E+02 0.  0.
          5    1    3    3  501    0  0.38587135553E+02 -0.47769559001E+02  0.23099701860E+03  0.23906612139E+03  0.47000000000E+01 0. -1.
        -11    1    4    4    0    0 -0.30170674369E+02 -0.14399493809E+02  0.18776371590E+02  0.38342758690E+02  0.00000000000E+00 0.  1.
         12    1    4    4    0    0  0.37805264657E+02 -0.75791384892E+02  0.52475642562E+02  0.99635661898E+02  0.00000000000E+00 0. -1.
         -5    1    5    5    0  502 -0.40796750320E+02  0.10008223493E+03  0.20837582715E+03  0.23478373863E+03  0.47000000000E+01 0.  1.
         13    1    6    6    0    0  0.30201949740E+02  0.13595631340E+02  0.37117218271E+03  0.37264700211E+03  0.00000000000E+00 0. -1.
        -14    1    6    6    0    0 -0.35626925261E+02  0.24282571433E+02  0.15080900821E+03  0.15685113336E+03  0.00000000000E+00 0.  1.
</event>
<event>
12    1  0.8684423E-002  0.2575315E+03  0.7818608E-02  0.1108833E+00
         21   -1    0    0  503  502  0.00000000000E+00  0.00000000000E+00  0.21614080054E+03  0.21614080054E+03  0.00000000000E+00 0. -1.
         21   -1    0    0  501  503 -0.00000000000E+00 -0.00000000000E+00 -0.40497616849E+03  0.40497616849E+03  0.00000000000E+00 0.  1.
          6    2    1    2  501    0 -0.10999963686E+03  0.15533374836E+03 -0.24830402274E+03  0.35680848068E+03  0.17154856654E+03 0.  0.
         24    2    3    3    0    0 -0.10665493979E+03  0.10005051739E+03 -0.89235620037E+02  0.18830842322E+03  0.78177261138E+02 0.  0.
         -6    2    1    2    0  502  0.10999963686E+03 -0.15533374836E+03  0.59468654791E+02  0.26430848835E+03  0.17347611541E+03 0.  0.
        -24    2    5    5    0    0  0.62224864961E+02 -0.11687324506E+03  0.10478279987E+03  0.18790756630E+03  0.82453193349E+02 0.  0.
          5    1    3    3  501    0 -0.33446970725E+01  0.55283230969E+02 -0.15906840271E+03  0.16850005746E+03  0.47000000000E+01 0. -1.
        -11    1    4    4    0    0 -0.78063159727E+02  0.89271481803E+02 -0.10079687818E+03  0.15563825050E+03  0.00000000000E+00 0.  1.
         12    1    4    4    0    0 -0.28591780062E+02  0.10779035591E+02  0.11561258139E+02  0.32670172714E+02  0.00000000000E+00 0. -1.
         -5    1    5    5    0  502  0.47774771901E+02 -0.38460503306E+02 -0.45314145084E+02  0.76400922045E+02  0.47000000000E+01 0.  1.
         13    1    6    6    0    0  0.66518358044E+02 -0.44375861868E+02  0.35331490340E+02  0.87419810588E+02  0.00000000000E+00 0. -1.
        -14    1    6    6    0    0 -0.42934930830E+01 -0.72497383188E+02  0.69451309535E+02  0.10048775571E+03  0.00000000000E+00 0.  1.
</event>
<event>
12    1  0.8684423E-002  0.2261584E+03  0.7818608E-02  0.1130171E+00
         21   -1    0    0  503  502  0.00000000000E+00  0.00000000000E+00  0.74236907856E+02  0.74236907856E+02  0.00000000000E+00 0. -1.
         21   -1    0    0  501  503 -0.00000000000E+00 -0.00000000000E+00 -0.72751698176E+03  0.72751698176E+03  0.00000000000E+00 0.  1.
          6    2    1    2  501    0  0.65529848288E+02  0.12284729957E+03 -0.21665197948E+03  0.31003068683E+03  0.17261322816E+03 0.  0.
         24    2    3    3    0    0  0.93859444933E+02  0.79246485174E+02 -0.86883844933E+02  0.17015411336E+03  0.79460801453E+02 0.  0.
         -6    2    1    2    0  502 -0.65529848288E+02 -0.12284729957E+03 -0.43662809443E+03  0.49172320279E+03  0.17821895322E+03 0.  0.
        -24    2    5    5    0    0 -0.47693758566E+02 -0.12724842372E+03 -0.20565264928E+03  0.25997065750E+03  0.82612799590E+02 0.  0.
          5    1    3    3  501    0 -0.28329596645E+02  0.43600814400E+02 -0.12976813455E+03  0.13987657347E+03  0.47000000000E+01 0. -1.
        -13    1    4    4    0    0 -0.12167996879E+02  0.86375755197E+01  0.16645971522E+01  0.15014617630E+02  0.00000000000E+00 0.  1.
         14    1    4    4    0    0  0.10602744181E+03  0.70608909654E+02 -0.88548442085E+02  0.15513949573E+03  0.00000000000E+00 0. -1.
         -5    1    5    5    0  502 -0.17836089723E+02  0.44011241449E+01 -0.23097544514E+03  0.23175254529E+03  0.47000000000E+01 0.  1.
         13    1    6    6    0    0  0.19439101709E+02 -0.27665729877E+02 -0.21341968788E+02  0.39984383409E+02  0.00000000000E+00 0. -1.
        -14    1    6    6    0    0 -0.67132860275E+02 -0.99582693841E+02 -0.18431068050E+03  0.21998627409E+03  0.00000000000E+00 0.  1.
</event>
<event>
12    1  0.8684423E-002  0.1930843E+03  0.7818608E-02  0.1155724E+00
         21   -1    0    0  503  502  0.00000000000E+00  0.00000000000E+00  0.10061526228E+03  0.10061526228E+03  0.00000000000E+00 0.  1.
         21   -1    0    0  501  503 -0.00000000000E+00 -0.00000000000E+00 -0.12812618485E+04  0.12812618485E+04  0.00000000000E+00 0.  1.
          6    2    1    2  501    0  0.50273054874E+02  0.73308083455E+02 -0.11729239276E+04  0.11887102646E+04  0.17140623738E+03 0.  0.
         24    2    3    3    0    0  0.13124585245E+02  0.10135279744E+03 -0.10500070973E+04  0.10571916274E+04  0.68517066079E+02 0.  0.
         -6    2    1    2    0  502 -0.50273054874E+02 -0.73308083455E+02 -0.77226586631E+01  0.19316684616E+03  0.17132523414E+03 0.  0.
        -24    2    5    5    0    0 -0.57531731283E+02 -0.63808800894E+02 -0.64607082753E+02  0.13485001791E+03  0.81418603609E+02 0.  0.
          5    1    3    3  501    0  0.37148469628E+02 -0.28044713981E+02 -0.12291683025E+03  0.13151863723E+03  0.47000000000E+01 0. -1.
        -13    1    4    4    0    0  0.40066962721E+02  0.66870748071E+02 -0.74369949493E+03  0.74777402817E+03  0.00000000000E+00 0.  1.
         14    1    4    4    0    0 -0.26942377476E+02  0.34482049364E+02 -0.30630760240E+03  0.30941759924E+03  0.00000000000E+00 0. -1.
         -5    1    5    5    0  502  0.72586764089E+01 -0.94992825606E+01  0.56884424090E+02  0.58316828244E+02  0.47000000000E+01 0.  1.
         11    1    6    6    0    0 -0.77375907272E+02 -0.46096385107E+02 -0.39763516884E+02  0.98453263130E+02  0.00000000000E+00 0. -1.
        -12    1    6    6    0    0  0.19844175989E+02 -0.17712415787E+02 -0.24843565869E+02  0.36396754784E+02  0.00000000000E+00 0.  1.
</event>
<event>
12    1  0.8684423E-002  0.1857748E+03  0.7818608E-02  0.1162425E+00
         21   -1    0    0  501  502  0.00000000000E+00  0.00000000000E+00  0.14848971026E+03  0.14848971026E+03  0.00000000000E+00 0. -1.
         21   -1    0    0  502  503 -0.00000000000E+00 -0.00000000000E+00 -0.32582954534E+03  0.32582954534E+03  0.00000000000E+00 0. -1.
         -6    2    1    2    0  503 -0.63551449125E+02 -0.25505264371E+02  0.38733385969E+02  0.18936328109E+03  0.17224654377E+03 0.  0.
        -24    2    3    3    0    0  0.25611817548E+02  0.10373688456E+00  0.47012786980E+02  0.96107999471E+02  0.79815847194E+02 0.  0.
          6    2    1    2  501    0  0.63551449125E+02  0.25505264371E+02 -0.21607322105E+03  0.28495597452E+03  0.17269326959E+03 0.  0.
         24    2    5    5    0    0 -0.16587554820E+02  0.10408470538E+02 -0.44553059815E+02  0.94978531521E+02  0.81562632849E+02 0.  0.
          5    1    5    5  501    0  0.80139003945E+02  0.15096793832E+02 -0.17152016123E+03  0.18997744299E+03  0.47000000000E+01 0. -1.
        -13    1    6    6    0    0 -0.42591894377E+02 -0.10348896614E+02 -0.43404558898E+02  0.61685694135E+02  0.00000000000E+00 0.  1.
         14    1    6    6    0    0  0.26004339557E+02  0.20757367152E+02 -0.11485009169E+01  0.33292837387E+02  0.00000000000E+00 0. -1.
         -5    1    3    3    0  503 -0.89163266673E+02 -0.25609001255E+02 -0.82794010111E+01  0.93255281621E+02  0.47000000000E+01 0.  1.
         13    1    4    4    0    0  0.44395099895E+01  0.29862421450E+02  0.51106124196E+02  0.59357471258E+02  0.00000000000E+00 0. -1.
        -14    1    4    4    0    0  0.21172307559E+02 -0.29758684565E+02 -0.40933372151E+01  0.36750528214E+02  0.00000000000E+00 0.  1.
</event>
<event>
12    1  0.8684423E-002  0.1804670E+03  0.7818608E-02  0.1167380E+00
         21   -1    0    0  503  502  0.00000000000E+00  0.00000000000E+00  0.61043009979E+03  0.61043009979E+03  0.00000000000E+00 0.  1.
         21   -1    0    0  501  503 -0.00000000000E+00 -0.00000000000E+00 -0.10821113659E+03  0.10821113659E+03  0.00000000000E+00 0.  1.
          6    2    1    2  501    0 -0.84911799006E+01  0.57410799954E+02  0.50698872990E+03  0.53811117000E+03  0.17075701727E+03 0.  0.
         24    2    3    3    0    0 -0.11326749254E+02  0.11128166746E+02  0.47356749874E+03  0.48075969851E+03  0.81311625886E+02 0.  0.
         -6    2    1    2    0  502  0.84911799006E+01 -0.57410799954E+02 -0.47697666940E+01  0.18053006638E+03  0.17088081842E+03 0.  0.
        -24    2    5    5    0    0 -0.16856141134E+02  0.28652495523E+01 -0.54992237106E+02  0.97946318813E+02  0.79227495720E+02 0.  0.
          5    1    3    3  501    0  0.28355693531E+01  0.46282633208E+02  0.33421231160E+02  0.57351471494E+02  0.47000000000E+01 0. -1.
        -11    1    4    4    0    0 -0.32397806346E+02  0.36114268066E+02  0.32793496920E+03  0.33150445282E+03  0.00000000000E+00 0.  1.
         12    1    4    4    0    0  0.21071057093E+02 -0.24986101320E+02  0.14563252954E+03  0.14925524569E+03  0.00000000000E+00 0. -1.
         -5    1    5    5    0  502  0.25347321035E+02 -0.60276049507E+02  0.50222470412E+02  0.82583747566E+02  0.47000000000E+01 0.  1.
         11    1    6    6    0    0  0.30217451027E+02  0.40299341654E+00 -0.36311470950E+02  0.47241715389E+02  0.00000000000E+00 0. -1.
        -12    1    6    6    0    0 -0.47073592161E+02  0.24622561358E+01 -0.18680766155E+02  0.50704603424E+02  0.00000000000E+00 0.  1.
</event>
<event>
12    1  0.8684423E-002  0.2079864E+03  0.7818608E-02  0.1143215E+00
         21   -1    0    0  501  502  0.00000000000E+00  0.00000000000E+00  0.29659295094E+03  0.29659295094E+03  0.00000000000E+00 0. -1.
         21   -1    0    0  502  503 -0.00000000000E+00 -0.00000000000E+00 -0.15840039438E+03  0.15840039438E+03  0.00000000000E+00 0. -1.
         -6    2    1    2    0  503 -0.87788509830E+02 -0.78594674317E+02  0.47029173977E+01  0.20803955062E+03  0.17138959100E+03 0.  0.
        -24    2    3    3    0    0 -0.51871588950E+02 -0.93780027208E+01 -0.50695132551E+02  0.11226895612E+03  0.85180475284E+02 0.  0.
          6    2    1    2  501    0  0.87788509830E+02  0.78594674317E+02  0.13348963916E+03  0.24695379470E+03  0.17112202565E+03 0.  0.
         24    2    5    5    0    0  0.90511235451E+02 -0.57159413133E+01  0.99357583739E+02  0.15583420103E+03  0.78660110829E+02 0.  0.
          5    1    5    5  501    0 -0.27227256214E+01  0.84310615631E+02  0.34132055426E+02  0.91119593669E+02  0.47000000000E+01 0. -1.
        -13    1    6    6    0    0  0.17709450177E+02 -0.36661632964E+02  0.38398386074E+02  0.55965489457E+02  0.00000000000E+00 0.  1.
         14    1    6    6    0    0  0.72801785274E+02  0.30945691650E+02  0.60959197665E+02  0.99868711571E+02  0.00000000000E+00 0. -1.
         -5    1    3    3    0  503 -0.35916920880E+02 -0.69216671597E+02  0.55398049949E+02  0.95770594498E+02  0.47000000000E+01 0.  1.
         13    1    4    4    0    0 -0.43508418006E+02 -0.39508179940E+02 -0.55258588128E+02  0.80668397043E+02  0.00000000000E+00 0. -1.
        -14    1    4    4    0    0 -0.83631709444E+01  0.30130177219E+02  0.45634555767E+01  0.31600559082E+02  0.00000000000E+00 0.  1.
</event>
<event>
12    1  0.8684423E-002  0.2085784E+03  0.7818608E-02  0.1142710E+00
         21   -1    0    0  503  502  0.00000000000E+00  0.00000000000E+00  0.11120508881E+04  0.11120508881E+04  0.00000000000E+00 0. -1.
         21   -1    0    0  501  503 -0.00000000000E+00 -0.00000000000E+00 -0.15545031544E+03  0.15545031544E+03  0.00000000000E+00 0. -1.
          6    2    1    2  501    0 -0.39768202242E+02  0.11253809755E+03 -0.69984558206E+02  0.21994118634E+03  0.17096769798E+03 0.  0.
         24    2    3    3    0    0  0.14664517050E+02  0.42563477084E+02  0.21050413666E+02  0.92784493466E+02  0.78352694085E+02 0.  0.
         -6    2    1    2    0  502  0.39768202242E+02 -0.11253809755E+03  0.10265851309E+04  0.10475600172E+04  0.17105152853E+03 0.  0.
        -24    2    5    5    0    0  0.12421537959E+02 -0.86414890667E+02  0.97922613635E+03  0.98677164376E+03  0.84927162170E+02 0.  0.
          5    1    3    3  501    0 -0.54432719292E+02  0.69974620469E+02 -0.91034971872E+02  0.12715669288E+03  0.47000000000E+01 0. -1.
        -11    1    4    4    0    0  0.47099538977E+02  0.22430429798E+02  0.13157139809E+02  0.53801497012E+02  0.00000000000E+00 0.  1.
         12    1    4    4    0    0 -0.32435021926E+02  0.20133047286E+02  0.78932738570E+01  0.38982996455E+02  0.00000000000E+00 0. -1.
         -5    1    5    5    0  502  0.27346664282E+02 -0.26123206887E+02  0.47358994547E+02  0.60788373477E+02  0.47000000000E+01 0.  1.
         13    1    6    6    0    0  0.46522973063E+02 -0.68952971200E+02  0.63710602832E+03  0.64251302756E+03  0.00000000000E+00 0. -1.
        -14    1    6    6    0    0 -0.34101435104E+02 -0.17461919466E+02  0.34212010803E+03  0.34425861620E+03  0.00000000000E+00 0.  1.
</event>
<event>
12    1  0.8684423E-002  0.1880336E+03  0.7818608E-02  0.1161623E+00
         21   -1    0    0  501  502  0.00000000000E+00  0.00000000000E+00  0.52928448089E+03  0.52928448089E+03  0.00000000000E+00 0. -1.
         21   -1    0    0  502  503 -0.00000000000E+00 -0.00000000000E+00 -0.14775224064E+03  0.14775224064E+03  0.00000000000E+00 0.  1.
         -6    2    1    2    0  503  0.74707441380E+02  0.15840089849E+02 -0.61660999500E+02  0.19788561857E+03  0.17182703202E+03 0.  0.
        -24    2    3    3    0    0  0.17288188571E+02 -0.48281059819E+02  0.46396323498E+01  0.89136567028E+02  0.72758911425E+02 0.  0.
          6    2    1    2  501    0 -0.74707441380E+02 -0.15840089849E+02  0.44319323975E+03  0.47915110297E+03  0.16532822344E+03 0.  0.
         24    2    5    5    0    0  0.73917565493E+01 -0.26217713142E+02  0.31614173612E+03  0.32745354880E+03  0.80859277475E+02 0.  0.
          5    1    5    5  501    0 -0.82099197929E+02  0.10377623293E+02  0.12705150363E+03  0.15169755417E+03  0.47000000000E+01 0. -1.
        -13    1    6    6    0    0  0.27586051424E+02  0.16110454816E+02  0.70856450165E+02  0.77724986443E+02  0.00000000000E+00 0.  1.
         14    1    6    6    0    0 -0.20194294875E+02 -0.42328167958E+02  0.24528528596E+03  0.24972856236E+03  0.00000000000E+00 0. -1.
         -5    1    3    3    0  503  0.57419252808E+02  0.64121149669E+02 -0.66300631850E+02  0.10874905154E+03  0.47000000000E+01 0.  1.
         13    1    4    4    0    0 -0.45750245152E+01  0.17372718695E+02  0.84088279195E+01  0.19835589005E+02  0.00000000000E+00 0. -1.
        -14    1    4    4    0    0  0.21863213087E+02 -0.65653778515E+02 -0.37691955697E+01  0.69300978023E+02  0.00000000000E+00 0.  1.
</event>
<event>
12    1  0.8684423E-002  0.2108463E+03  0.7818608E-02  0.1140905E+00
         21   -1    0    0  503  502  0.00000000000E+00  0.00000000000E+00  0.25460051022E+03  0.25460051022E+03  0.00000000000E+00 0.  1.
         21   -1    0    0  501  503 -0.00000000000E+00 -0.00000000000E+00 -0.18174681060E+03  0.18174681060E+03  0.00000000000E+00 0. -1.
          6    2    1    2  501    0  0.12149340303E+03  0.80382760114E+01  0.79751626127E+02  0.22542507374E+03  0.17213622843E+03 0.  0.
         24    2    3    3    0    0  0.72157794864E+02  0.21447864004E+02 -0.22527472204E+02  0.11098328400E+03  0.78377573921E+02 0.  0.
         -6    2    1    2    0  502 -0.12149340303E+03 -0.80382760114E+01 -0.68979265081E+01  0.21092224708E+03  0.17209111558E+03 0.  0.
        -24    2    5    5    0    0 -0.84167100402E+02  0.37299084731E+02  0.47188410257E+02  0.13094630713E+03  0.80279927603E+02 0.  0.
          5    1    3    3  501    0  0.49335608170E+02 -0.13409587993E+02  0.10227909833E+03  0.11444178974E+03  0.47000000000E+01 0. -1.
        -11    1    4    4    0    0 -0.17009190897E+02  0.31501605424E+00 -0.43741674552E+01  0.17565453339E+02  0.00000000000E+00 0.  1.
         12    1    4    4    0    0  0.89166985761E+02  0.21132847950E+02 -0.18153304749E+02  0.93417830662E+02  0.00000000000E+00 0. -1.
         -5    1    5    5    0  502 -0.37326302632E+02 -0.45337360742E+02 -0.54086336765E+02  0.79975939957E+02  0.47000000000E+01 0.  1.
         13    1    6    6    0    0 -0.57325551266E+02  0.96677193829E+01 -0.12919748713E+02  0.59553367099E+02  0.00000000000E+00 0. -1.
        -14    1    6    6    0    0 -0.26841549135E+02  0.27631365348E+02  0.60108158971E+02  0.71392940028E+02  0.00000000000E+00 0.  1.
</event>
<event>
12    1  0.8684423E-002  0.1725478E+03  0.7818608E-02  0.1176402E+00
         21   -1    0    0  501  502  0.00000000000E+00  0.00000000000E+00  0.96951172538E+03  0.96951172538E+03  0.00000000000E+00 0. -1.
         21   -1    0    0  502  503 -0.00000000000E+00 -0.00000000000E+00 -0.47846251080E+02  0.47846251080E+02  0.00000000000E+00 0. -1.
         -6    2    1    2    0  503 -0.10787300687E+02 -0.83240676475E+00  0.14545817143E+03  0.22220357388E+03  0.16762842794E+03 0.  0.
        -24    2    3    3    0    0  0.49477211776E+02  0.31246335997E+02  0.64804949027E+02  0.11643075373E+03  0.77020198632E+02 0.  0.
          6    2    1    2  501    0  0.10787300687E+02  0.83240676475E+00  0.77620730287E+03  0.79515440258E+03  0.17220826969E+03 0.  0.
         24    2    5    5    0    0  0.52930190770E+02 -0.47783645416E+02  0.46380915153E+03  0.47616500044E+03  0.80804063858E+02 0.  0.
          5    1    5    5  501    0 -0.42142890083E+02  0.48616052181E+02  0.31239815134E+03  0.31898940213E+03  0.47000000000E+01 0. -1.
        -13    1    6    6    0    0  0.17093951455E+02  0.18738665576E+02  0.56865754741E+02  0.62266000564E+02  0.00000000000E+00 0.  1.
         14    1    6    6    0    0  0.35836239315E+02 -0.66522310992E+02  0.40694339679E+03  0.41389899988E+03  0.00000000000E+00 0. -1.
         -5    1    3    3    0  503 -0.60264512463E+02 -0.32078742761E+02  0.80653222401E+02  0.10577282015E+03  0.47000000000E+01 0.  1.
         13    1    4    4    0    0 -0.13486795765E+01 -0.61162442639E+01 -0.14089015146E+02  0.15418421718E+02  0.00000000000E+00 0. -1.
        -14    1    4    4    0    0  0.50825891352E+02  0.37362580261E+02  0.78893964173E+02  0.10101233201E+03  0.00000000000E+00 0.  1.
</event>
<event>
12    1  0.8684423E-002  0.1852028E+03  0.7818608E-02  0.1162995E+00
         21   -1    0    0  501  502  0.00000000000E+00  0.00000000000E+00  0.82061289058E+03  0.82061289058E+03  0.00000000000E+00 0. -1.
         21   -1    0    0  502  503 -0.00000000000E+00 -0.00000000000E+00 -0.26689241268E+03  0.26689241268E+03  0.00000000000E+00 0. -1.
         -6    2    1    2    0  503 -0.54764588583E+02 -0.39591248933E+02 -0.22271329902E+03  0.28928885745E+03  0.17181444157E+03 0.  0.
        -24    2    3    3    0    0 -0.81542364259E+02 -0.56141270184E+02 -0.98878658872E+02  0.16142932291E+03  0.80507376847E+02 0.  0.
          6    2    1    2  501    0  0.54764588583E+02  0.39591248933E+02  0.77643377692E+03  0.79821644580E+03  0.17243392143E+03 0.  0.
         24    2    5    5    0    0  0.10209790602E+03  0.25159730637E+02  0.61585949685E+03  0.63012450346E+03  0.81957156782E+02 0.  0.
          5    1    5    5  501    0 -0.47333317436E+02  0.14431518296E+02  0.16057428007E+03  0.16809194234E+03  0.47000000000E+01 0. -1.
        -11    1    6    6    0    0  0.19397818692E+01  0.24209373355E+02  0.51425499942E+02  0.56872124598E+02  0.00000000000E+00 0.  1.
         12    1    6    6    0    0  0.10015812415E+03  0.95035728157E+00  0.56443399690E+03  0.57325237886E+03  0.00000000000E+00 0. -1.
         -5    1    3    3    0  503  0.26777775676E+02  0.16550021252E+02 -0.12383464015E+03  0.12785953454E+03  0.47000000000E+01 0.  1.
         13    1    4    4    0    0 -0.31548467742E+01 -0.81366026925E+01 -0.61638673218E+02  0.62253380612E+02  0.00000000000E+00 0. -1.
        -14    1    4    4    0    0 -0.78387517485E+02 -0.48004667492E+02 -0.37239985654E+02  0.99175942294E+02  0.00000000000E+00 0.  1.
</event>
<event>
12    1  0.8684423E-002  0.1769838E+03  0.7818608E-02  0.1171034E+00
         21   -1    0    0  503  502  0.00000000000E+00  0.00000000000E+00  0.19931115868E+03  0.19931115868E+03  0.00000000000E+00 0.  1.
         21   -1    0    0  501  503 -0.00000000000E+00 -0.00000000000E+00 -0.17300322243E+03  0.17300322243E+03  0.00000000000E+00 0.  1.
          6    2    1    2  501    0  0.40315279177E+02  0.11378622033E+02 -0.44970578263E+02  0.18151631859E+03  0.17079527579E+03 0.  0.
         24    2    3    3    0    0  0.11880793473E+02  0.88269079080E+01  0.40918492687E+02  0.90884901685E+02  0.79791445367E+02 0.  0.
         -6    2    1    2    0  502 -0.40315279177E+02 -0.11378622033E+02  0.71278514515E+02  0.19079806252E+03  0.17195487563E+03 0.  0.
        -24    2    5    5    0    0 -0.40865993527E+02 -0.62288391003E+02  0.86315968560E+01  0.10993500448E+03  0.80382384046E+02 0.  0.
          5    1    3    3  501    0  0.28434485705E+02  0.25517141249E+01 -0.85889070950E+02  0.90631416909E+02  0.47000000000E+01 0. -1.
        -11    1    4    4    0    0  0.35821542997E+02  0.20443078920E+02  0.48061773562E+02  0.63332744266E+02  0.00000000000E+00 0.  1.
         12    1    4    4    0    0 -0.23940749524E+02 -0.11616171012E+02 -0.71432808750E+01  0.27552157418E+02  0.00000000000E+00 0. -1.
         -5    1    5    5    0  502  0.55071434953E+00  0.50909768970E+02  0.62646917659E+02  0.80863058036E+02  0.47000000000E+01 0.  1.
         11    1    6    6    0    0  0.18600014383E+02 -0.29358700170E+01 -0.13358563100E+02  0.23087465775E+02  0.00000000000E+00 0. -1.
        -12    1    6    6    0    0 -0.59466007910E+02 -0.59352520986E+02  0.21990159956E+02  0.86847538704E+02  0.00000000000E+00 0.  1.
</event>
<event>
12    1  0.8684423E-002  0.2199302E+03  0.7818608E-02  0.1133956E+00
         21   -1    0    0  501  502  0.00000000000E+00  0.00000000000E+00  0.13658382763E+03  0.13658382763E+03  0.00000000000E+00 0. -1.
         21   -1    0    0  502  503 -0.00000000000E+00 -0.00000000000E+00 -0.10201269418E+04  0.10201269418E+04  0.00000000000E+00 0. -1.
         -6    2    1    2    0  503  0.10972289672E+03 -0.83288906316E+02 -0.90917833167E+03  0.93540073038E+03  0.17144425228E+03 0.  0.
        -24    2    3    3    0    0  0.13505569932E+03 -0.34424181238E+02 -0.58873492281E+03  0.61023065100E+03  0.79671650610E+02 0.  0.
          6    2    1    2  501    0 -0.10972289672E+03  0.83288906316E+02  0.25635217517E+02  0.22131003903E+03  0.17130327789E+03 0.  0.
         24    2    5    5    0    0 -0.55237202113E+02  0.76251023680E+02 -0.45391378543E+02  0.13139291020E+03  0.79613770762E+02 0.  0.
          5    1    5    5  501    0 -0.54485694610E+02  0.70378826362E+01  0.71026596060E+02  0.89917128830E+02  0.47000000000E+01 0. -1.
        -13    1    6    6    0    0 -0.11952209042E+02  0.38816599493E+02  0.19346420010E+02  0.44987416734E+02  0.00000000000E+00 0.  1.
         14    1    6    6    0    0 -0.43284993071E+02  0.37434424187E+02 -0.64737798553E+02  0.86405493465E+02  0.00000000000E+00 0. -1.
         -5    1    3    3    0  503 -0.25332802592E+02 -0.48864725078E+02 -0.32044340886E+03  0.32517007938E+03  0.47000000000E+01 0.  1.
         13    1    4    4    0    0  0.89582598514E+02 -0.33074720453E+02 -0.23621187559E+03  0.25478427985E+03  0.00000000000E+00 0. -1.
        -14    1    4    4    0    0  0.45473100802E+02 -0.13494607846E+01 -0.35252304721E+03  0.35544637114E+03  0.00000000000E+00 0.  1.
</event>
<event>
12    1  0.8684423E-002  0.1992808E+03  0.7818608E-02  0.1150367E+00
         21   -1    0    0  503  502  0.00000000000E+00  0.00000000000E+00  0.17315102102E+03  0.17315102102E+03  0.00000000000E+00 0. -1.
         21   -1    0    0  501  503 -0.00000000000E+00 -0.00000000000E+00 -0.70541709755E+03  0.70541709755E+03  0.00000000000E+00 0. -1.
          6    2    1    2  501    0  0.78760640343E+02  0.58194484270E+02 -0.62702704844E+03  0.65790442991E+03  0.17345167325E+03 0.  0.
         24    2    3    3    0    0 -0.24840756532E+02  0.60448706574E+02 -0.29515429872E+03  0.31019773892E+03  0.69537528473E+02 0.  0.
         -6    2    1    2    0  502 -0.78760640343E+02 -0.58194484270E+02  0.94760971915E+02  0.22066368865E+03  0.17355974541E+03 0.  0.
        -24    2    5    5    0    0 -0.10349831929E+03 -0.85867307850E+02  0.95459561930E+02  0.18324289293E+03  0.79876987891E+02 0.  0.
          5    1    3    3  501    0  0.10360139688E+03 -0.22542223032E+01 -0.33187274972E+03  0.34770669100E+03  0.47000000000E+01 0. -1.
        -11    1    4    4    0    0 -0.21132053299E+02  0.31536145797E+01 -0.20512765311E+02  0.29618955118E+02  0.00000000000E+00 0.  1.
         12    1    4    4    0    0 -0.37087032332E+01  0.57295091994E+02 -0.27464153341E+03  0.28057878380E+03  0.00000000000E+00 0. -1.
         -5    1    5    5    0  502  0.24737678943E+02  0.27672823579E+02 -0.69859001434E+00  0.37420795720E+02  0.47000000000E+01 0.  1.
         13    1    6    6    0    0 -0.93266099860E+02 -0.30852783820E+02  0.75255694528E+02  0.12374925944E+03  0.00000000000E+00 0. -1.
        -14    1    6    6    0    0 -0.10232219427E+02 -0.55014524030E+02  0.20203867402E+02  0.59493633496E+02  0.00000000000E+00 0.  1.
</event>
<event>
12    1  0.8684423E-002  0.1944137E+03  0.7818608E-02  0.1154871E+00
         21   -1    0    0  503  502  0.00000000000E+00  0.00000000000E+00  0.44545364485E+03  0.44545364485E+03  0.00000000000E+00 0.  1.
         21   -1    0    0  501  503 -0.00000000000E+00 -0.00000000000E+00 -0.88352943223E+02  0.88352943223E+02  0.00000000000E+00 0.  1.
          6    2    1    2  501    0 -0.74889229598E+02 -0.45472329063E+02  0.12129727586E+03  0.22914999452E+03  0.17355276269E+03 0.  0.
         24    2    3    3    0    0 -0.31341398496E+02 -0.82302250034E+02  0.12455372773E+03  0.17183026710E+03  0.79095296827E+02 0.  0.
         -6    2    1    2    0  502  0.74889229598E+02  0.45472329063E+02  0.23580342576E+03  0.30465659355E+03  0.17186115027E+03 0.  0.
        -24    2    5    5    0    0 -0.21360941126E+02 -0.97441455164E+01  0.10161685755E+03  0.13046968383E+03  0.78390780597E+02 0.  0.
          5    1    3    3  501    0 -0.43547831102E+02  0.36829920971E+02 -0.32564518709E+01  0.57319727417E+02  0.47000000000E+01 0. -1.
        -13    1    4    4    0    0  0.71419061826E+00 -0.66932007750E+02  0.11802663586E+03  0.13568599965E+03  0.00000000000E+00 0.  1.
         14    1    4    4    0    0 -0.32055589115E+02 -0.15370242284E+02  0.65270918786E+01  0.36144267453E+02  0.00000000000E+00 0. -1.
         -5    1    5    5    0  502  0.96250170725E+02  0.55216474579E+02  0.13418656821E+03  0.17418690972E+03  0.47000000000E+01 0.  1.
         11    1    6    6    0    0 -0.10951879039E+02 -0.39640917621E+02  0.26420590221E+02  0.48881423792E+02  0.00000000000E+00 0. -1.
        -12    1    6    6    0    0 -0.10409062088E+02  0.29896772105E+02  0.75196267325E+02  0.81588260035E+02  0.00000000000E+00 0.  1.
</event>
<event>
12    1  0.8684423E-002  0.1854713E+03  0.7818608E-02  0.1162821E+00
         21   -1    0    0  501  502  0.00000000000E+00  0.00000000000E+00  0.93777675309E+02  0.93777675309E+02  0.00000000000E+00 0. -1.
         21   -1    0    0  502  503 -0.00000000000E+00 -0.00000000000E+00 -0.36504272579E+03  0.36504272579E+03  0.00000000000E+00 0. -1.
         -6    2    1    2    0  503  0.67049061869E+02 -0.68338902598E+01 -0.13503039244E+03  0.22869111552E+03  0.17182590224E+03 0.  0.
        -24    2    3    3    0    0  0.55569880904E+01 -0.25430910253E+01 -0.14488242250E+03  0.16609048779E+03  0.80980160256E+02 0.  0.
          6    2    1    2  501    0 -0.67049061869E+02  0.68338902598E+01 -0.13623465804E+03  0.23012928559E+03  0.17279272924E+03 0.  0.
         24    2    5    5    0    0  0.24723156527E+02  0.33308777515E+02 -0.76818579428E+02  0.11754411728E+03  0.78707154906E+02 0.  0.
          5    1    5    5  501    0 -0.91772218397E+02 -0.26474887255E+02 -0.59416078615E+02  0.11258516831E+03  0.47000000000E+01 0. -1.
        -13    1    6    6    0    0 -0.82481106779E+01  0.44209320567E+02 -0.16423680528E+02  0.47877266388E+02  0.00000000000E+00 0.  1.
         14    1    6    6    0    0  0.32971267205E+02 -0.10900543051E+02 -0.60394898900E+02  0.69666850891E+02  0.00000000000E+00 0. -1.
         -5    1    3    3    0  503  0.61492073779E+02 -0.42907992345E+01  0.98520300610E+01  0.62600627729E+02  0.47000000000E+01 0.  1.
         13    1    4    4    0    0  0.26296739876E+02  0.47813232197E+01 -0.86482883939E+01  0.28092213725E+02  0.00000000000E+00 0. -1.
        -14    1    4    4    0    0 -0.20739751786E+02 -0.73244142450E+01 -0.13623413411E+03  0.13799827406E+03  0.00000000000E+00 0.  1.
</event>
<event>
12    1  0.8684423E-002  0.1917708E+03  0.7818608E-02  0.1157009E+00
         21   -1    0    0  503  502  0.00000000000E+00  0.00000000000E+00  0.40704877862E+03  0.40704877862E+03  0.00000000000E+00 0.  1.
         21   -1    0    0  501  503 -0.00000000000E+00 -0.00000000000E+00 -0.90150539343E+02  0.90150539343E+02  0.00000000000E+00 0. -1.
          6    2    1    2  501    0 -0.78833495044E+02 -0.32007201223E+02  0.15040925227E+03  0.24324139720E+03  0.17118485118E+03 0.  0.
         24    2    3    3    0    0 -0.47727755067E+02 -0.55751575078E+02  0.26211136037E+02  0.11293934647E+03  0.81744086040E+02 0.  0.
         -6    2    1    2    0  502  0.78833495044E+02  0.32007201223E+02  0.16648898701E+03  0.25395792076E+03  0.17186291586E+03 0.  0.
        -24    2    5    5    0    0  0.10184901497E+03 -0.86334344692E+01  0.15241399017E+03  0.20495209495E+03  0.91255568509E+02 0.  0.
          5    1    3    3  501    0 -0.31105739977E+02  0.23744373854E+02  0.12419811623E+03  0.13030205073E+03  0.47000000000E+01 0. -1.
        -13    1    4    4    0    0 -0.44597300292E+02 -0.67822170163E+02  0.43132612479E+02  0.91919465937E+02  0.00000000000E+00 0.  1.
         14    1    4    4    0    0 -0.31304547748E+01  0.12070595085E+02 -0.16921476442E+02  0.21019880537E+02  0.00000000000E+00 0. -1.
         -5    1    5    5    0  502 -0.23015519927E+02  0.40640635693E+02  0.14074996842E+02  0.49005825808E+02  0.47000000000E+01 0.  1.
         11    1    6    6    0    0  0.98880950284E+02 -0.35973335567E+02  0.97095362254E+02  0.14317483219E+03  0.00000000000E+00 0. -1.
        -12    1    6    6    0    0  0.29680646871E+01  0.27339901098E+02  0.55318627912E+02  0.61777262760E+02  0.00000000000E+00 0.  1.
</event>
<event>
12    1  0.8684423E-002  0.2156143E+03  0.7818608E-02  0.1137293E+00
         21   -1    0    0  501  502  0.00000000000E+00  0.00000000000E+00  0.97111694413E+03  0.97111694413E+03  0.00000000000E+00 0. -1.
         21   -1    0    0  502  503 -0.00000000000E+00 -0.00000000000E+00 -0.61489054952E+02  0.61489054952E+02  0.00000000000E+00 0. -1.
         -6    2    1    2    0  503  0.81159887087E+02  0.99049861490E+02  0.69920212347E+03  0.73169197412E+03  0.17346968959E+03 0.  0.
        -24    2    3    3    0    0  0.11915298271E+03  0.70932987283E+02  0.41669050991E+03  0.44521521115E+03  0.73189351791E+02 0.  0.
          6    2    1    2  501    0 -0.81159887087E+02 -0.99049861490E+02  0.21042576571E+03  0.30091402495E+03  0.17283646955E+03 0.  0.
         24    2    5    5    0    0 -0.12336326345E+03 -0.63974035421E+02  0.15287441200E+03  0.22125420532E+03  0.79193847930E+02 0.  0.
          5    1    5    5  501    0  0.42203376362E+02 -0.35075826069E+02  0.57551353706E+02  0.79659819634E+02  0.47000000000E+01 0. -1.
        -13    1    6    6    0    0 -0.21484067049E+02 -0.82288450686E+01 -0.66379735549E+01  0.23944555144E+02  0.00000000000E+00 0.  1.
         14    1    6    6    0    0 -0.10187919640E+03 -0.55745190353E+02  0.15951238556E+03  0.19730965018E+03  0.00000000000E+00 0. -1.
         -5    1    3    3    0  503 -0.37993095627E+02  0.28116874208E+02  0.28251161356E+03  0.28647676298E+03  0.47000000000E+01 0.  1.
         11    1    4    4    0    0  0.16586052659E+02  0.19575797551E+02  0.20762576670E+02  0.33005962833E+02  0.00000000000E+00 0. -1.
        -12    1    4    4    0    0  0.10256693006E+03  0.51357189732E+02  0.39592793324E+03  0.41220924831E+03  0.00000000000E+00 0.  1.
</event>
<event>
12    1  0.8684423E-002  0.1739865E+03  0.7818608E-02  0.1175883E+00
         21   -1    0    0  501  502  0.00000000000E+00  0.00000000000E+00  0.21530803170E+03  0.21530803170E+03  0.00000000000E+00 0.  1.
         21   -1    0    0  502  503 -0.00000000000E+00 -0.00000000000E+00 -0.13822618182E+03  0.13822618182E+03  0.00000000000E+00 0.  1.
         -6    2    1    2    0  503 -0.23181603603E+02 -0.12547283291E+02  0.87004457630E+01  0.17420393460E+03  0.17197817306E+03 0.  0.
        -24    2    3    3    0    0  0.16516999468E+02 -0.30155422504E+02 -0.51818048243E+02  0.99567457126E+02  0.77758649789E+02 0.  0.
          6    2    1    2  501    0  0.23181603603E+02  0.12547283291E+02  0.68381404109E+02  0.17933027893E+03  0.16367196293E+03 0.  0.
         24    2    5    5    0    0  0.75441343264E+02 -0.11226000322E+02  0.30477090246E+02  0.11037321683E+03  0.73729062162E+02 0.  0.
          5    1    5    5  501    0 -0.52259739661E+02  0.23773283613E+02  0.37904313863E+02  0.68957062094E+02  0.47000000000E+01 0. -1.
        -13    1    6    6    0    0  0.14329561778E+02  0.45444747961E+01  0.43417554820E+02  0.45946410725E+02  0.00000000000E+00 0.  1.
         14    1    6    6    0    0  0.61111781486E+02 -0.15770475118E+02 -0.12940464574E+02  0.64426806107E+02  0.00000000000E+00 0. -1.
         -5    1    3    3    0  503 -0.39698603071E+02  0.17608139213E+02  0.60518494006E+02  0.74636477470E+02  0.47000000000E+01 0.  1.
         11    1    4    4    0    0  0.96548611300E+01 -0.65966737006E+01  0.20279211490E+02  0.23408948417E+02  0.00000000000E+00 0. -1.
        -12    1    4    4    0    0  0.68621383378E+01 -0.23558748803E+02 -0.72097259733E+02  0.76158508709E+02  0.00000000000E+00 0.  1.
</event>
<event>
12    1  0.8684423E-002  0.2291326E+03  0.7818608E-02  0.1127933E+00
         21   -1    0    0  503  502  0.00000000000E+00  0.00000000000E+00  0.19825858941E+03  0.19825858941E+03  0.00000000000E+00 0.  1.
         21   -1    0    0  501  503 -0.00000000000E+00 -0.00000000000E+00 -0.26209956990E+03  0.26209956990E+03  0.00000000000E+00 0.  1.
          6    2    1    2  501    0 -0.16333270225E+02 -0.15050233856E+03 -0.50607243408E+02  0.23465474573E+03  0.17200007843E+03 0.  0.
         24    2    3    3    0    0 -0.13190692920E+02 -0.18057060378E+03 -0.51932910912E+02  0.20403083743E+03  0.78433526340E+02 0.  0.
         -6    2    1    2    0  502  0.16333270225E+02  0.15050233856E+03 -0.13233737086E+02  0.22570341358E+03  0.16688070433E+03 0.  0.
        -24    2    5    5    0    0 -0.37841600890E+02  0.14317288589E+03  0.42881200822E+01  0.16810356102E+03  0.79435239290E+02 0.  0.
          5    1    3    3  501    0 -0.31425773057E+01  0.30068265220E+02  0.13256675039E+01  0.30623908304E+02  0.47000000000E+01 0. -1.
        -13    1    4    4    0    0 -0.40901529762E+02 -0.54537867188E+02 -0.14926165733E+02  0.69786134137E+02  0.00000000000E+00 0.  1.
         14    1    4    4    0    0  0.27710836842E+02 -0.12603273660E+03 -0.37006745179E+02  0.13424470329E+03  0.00000000000E+00 0. -1.
         -5    1    5    5    0  502  0.54174871115E+02  0.73294526728E+01 -0.17521857168E+02  0.57599852565E+02  0.47000000000E+01 0.  1.
         13    1    6    6    0    0 -0.30321639116E+02  0.12649047895E+02  0.16554165186E+02  0.36789136934E+02  0.00000000000E+00 0. -1.
        -14    1    6    6    0    0 -0.75199617739E+01  0.13052383800E+03 -0.12266045104E+02  0.13131442408E+03  0.00000000000E+00 0.  1.
</event>
<event>
12    1  0.8684423E-002  0.1786963E+03  0.7818608E-02  0.1169521E+00
         21   -1    0    0  501  502  0.00000000000E+00  0.00000000000E+00  0.47926450714E+02  0.47926450714E+02  0.00000000000E+00 0. -1.
         21   -1    0    0  502  503 -0.00000000000E+00 -0.00000000000E+00 -0.65947787576E+03  0.65947787576E+03  0.00000000000E+00 0. -1.
         -6    2    1    2    0  503  0.14668636004E+02 -0.41070267487E+02 -0.30214190948E+03  0.35009965626E+03  0.17140040868E+03 0.  0.
        -24    2    3    3    0    0  0.30780985682E+02 -0.52628613904E+02 -0.31167879534E+03  0.32759975901E+03  0.80378420959E+02 0.  0.
          6    2    1    2  501    0 -0.14668636004E+02  0.41070267487E+02 -0.30940951557E+03  0.35730467022E+03  0.17329294065E+03 0.  0.
         24    2    5    5    0    0 -0.54836234750E+02  0.28088919412E+02 -0.94717500744E+02  0.13845151713E+03  0.80008859588E+02 0.  0.
          5    1    5    5  501    0  0.40167598746E+02  0.12981348076E+02 -0.21469201483E+03  0.21885315309E+03  0.47000000000E+01 0. -1.
        -13    1    6    6    0    0 -0.26206540566E+01  0.38705422050E+02 -0.69291277970E+02  0.79411955815E+02  0.00000000000E+00 0.  1.
         14    1    6    6    0    0 -0.52215580693E+02 -0.10616502638E+02 -0.25426222775E+02  0.59039561312E+02  0.00000000000E+00 0. -1.
         -5    1    3    3    0  503 -0.16112349678E+02  0.11558346416E+02  0.95368858676E+01  0.22499897246E+02  0.47000000000E+01 0.  1.
         13    1    4    4    0    0  0.27170761970E+02 -0.55788326258E+01 -0.25894943580E+02  0.37946301302E+02  0.00000000000E+00 0. -1.
        -14    1    4    4    0    0  0.36102237119E+01 -0.47049781278E+02 -0.28578385176E+03  0.28965345771E+03  0.00000000000E+00 0.  1.
</event>
<event>
12    1  0.8684423E-002  0.1713870E+03  0.7818608E-02  0.1176528E+00
         21   -1    0    0  501  502  0.00000000000E+00  0.00000000000E+00  0.52503784148E+03  0.52503784148E+03  0.00000000000E+00 0.  1.
         21   -1    0    0  502  503 -0.00000000000E+00 -0.00000000000E+00 -0.16823709568E+03  0.16823709568E+03  0.00000000000E+00 0.  1.
         -6    2    1    2    0  503  0.32829987260E+01  0.41985306424E+01 -0.10490615183E+03  0.20094474494E+03  0.17130406909E+03 0.  0.
        -24    2    3    3    0    0 -0.25961812222E+02 -0.55829315214E+02 -0.81374619012E+02  0.12999106793E+03  0.80529007134E+02 0.  0.
          6    2    1    2  501    0 -0.32829987260E+01 -0.41985306424E+01  0.46170689763E+03  0.49233019221E+03  0.17084306572E+03 0.  0.
         24    2    5    5    0    0  0.21277266930E+02  0.56626107399E+02  0.23110906801E+03  0.25253800663E+03  0.81882875792E+02 0.  0.
          5    1    5    5  501    0 -0.24560265656E+02 -0.60824638041E+02  0.23059782962E+03  0.23979218558E+03  0.47000000000E+01 0. -1.
        -13    1    6    6    0    0 -0.40489042227E+01  0.71679525784E+02  0.17524398008E+03  0.18938004276E+03  0.00000000000E+00 0.  1.
         14    1    6    6    0    0  0.25326171153E+02 -0.15053418385E+02  0.55865087930E+02  0.63157963866E+02  0.00000000000E+00 0. -1.
         -5    1    3    3    0  503  0.29244810948E+02  0.60027845857E+02 -0.23531532822E+02  0.70953677019E+02  0.47000000000E+01 0.  1.
         13    1    4    4    0    0  0.61747336063E+01 -0.27598466035E+02  0.92692574818E+01  0.29761078557E+02  0.00000000000E+00 0. -1.
        -14    1    4    4    0    0 -0.32136545828E+02 -0.28230849179E+02 -0.90643876494E+02  0.10022998937E+03  0.00000000000E+00 0.  1.
</event>
<event>
12    1  0.8684423E-002  0.1994146E+03  0.7818608E-02  0.1150818E+00
         21   -1    0    0  503  502  0.00000000000E+00  0.00000000000E+00  0.13750382862E+04  0.13750382862E+04  0.00000000000E+00 0.  1.
         21   -1    0    0  501  503 -0.00000000000E+00 -0.00000000000E+00 -0.43308069169E+02  0.43308069169E+02  0.00000000000E+00 0.  1.
          6    2    1    2  501    0 -0.90673173849E+02  0.39530216946E+02  0.25455901005E+03  0.32336740757E+03  0.17315290402E+03 0.  0.
         24    2    3    3    0    0 -0.10713294773E+03  0.73099961117E+02  0.16374695321E+03  0.22504766617E+03  0.83739563884E+02 0.  0.
         -6    2    1    2    0  502  0.90673173849E+02 -0.39530216946E+02  0.10771712070E+04  0.10949789478E+04  0.16999065996E+03 0.  0.
        -24    2    5    5    0    0  0.49073684959E+02  0.35860015060E+02  0.39301792919E+03  0.40541241579E+03  0.78752568069E+02 0.  0.
          5    1    3    3  501    0  0.16459773885E+02 -0.33569744171E+02  0.90812056846E+02  0.98319741398E+02  0.47000000000E+01 0. -1.
        -11    1    4    4    0    0 -0.10112835684E+02 -0.98472379772E+01  0.56783062653E+02  0.58511142064E+02  0.00000000000E+00 0.  1.
         12    1    4    4    0    0 -0.97020112050E+02  0.82947199094E+02  0.10696389056E+03  0.16653652411E+03  0.00000000000E+00 0. -1.
         -5    1    5    5    0  502  0.41599488891E+02 -0.75390232006E+02  0.68415327778E+03  0.68956653201E+03  0.47000000000E+01 0.  1.
         11    1    6    6    0    0 -0.60554841539E+01  0.35083076211E+02  0.79836311336E+02  0.87414688311E+02  0.00000000000E+00 0. -1.
        -12    1    6    6    0    0  0.55129169113E+02  0.77693884878E+00  0.31318161785E+03  0.31799772748E+03  0.00000000000E+00 0.  1.
</event>
<event>
12    1  0.8684423E-002  0.2761979E+03  0.7818608E-02  0.1098578E+00
         21   -1    0    0  501  502  0.00000000000E+00  0.00000000000E+00  0.14151464274E+03  0.14151464274E+03  0.00000000000E+00 0.  1.
         21   -1    0    0  502  503 -0.00000000000E+00 -0.00000000000E+00 -0.59335288965E+03  0.59335288965E+03  0.00000000000E+00 0. -1.
         -6    2    1    2    0  503  0.19953110828E+02 -0.21241325709E+03 -0.34984825498E+03  0.44573433918E+03  0.17540747189E+03 0.  0.
        -24    2    3    3    0    0  0.77124076520E+02 -0.17586124115E+03 -0.25835483138E+03  0.33172685807E+03  0.80126089082E+02 0.  0.
          6    2    1    2  501    0 -0.19953110828E+02  0.21241325709E+03 -0.10198999193E+03  0.28913319320E+03  0.16636864650E+03 0.  0.
         24    2    5    5    0    0 -0.25069241013E+02  0.22771774081E+03 -0.69116604533E+02  0.25221231010E+03  0.79687565009E+02 0.  0.
          5    1    5    5  501    0  0.51161301841E+01 -0.15304483721E+02 -0.32873387402E+02  0.36920883105E+02  0.47000000000E+01 0. -1.
        -13    1    6    6    0    0  0.17031320100E+02  0.21309609677E+02  0.71039635666E+01  0.28189211186E+02  0.00000000000E+00 0.  1.
         14    1    6    6    0    0 -0.42100561112E+02  0.20640813114E+03 -0.76220568100E+02  0.22402309891E+03  0.00000000000E+00 0. -1.
         -5    1    3    3    0  503 -0.57170965691E+02 -0.36552015947E+02 -0.91493423596E+02  0.11400748111E+03  0.47000000000E+01 0.  1.
         11    1    4    4    0    0  0.64743627010E+02 -0.11989888611E+03 -0.23105420913E+03  0.26824154728E+03  0.00000000000E+00 0. -1.
        -12    1    4    4    0    0  0.12380449510E+02 -0.55962355040E+02 -0.27300622252E+02  0.63485310797E+02  0.00000000000E+00 0.  1.
</event>
<event>
12    1  0.8684423E-002  0.1847711E+03  0.7818608E-02  0.1163544E+00
         21   -1    0    0  501  502  0.00000000000E+00  0.00000000000E+00  0.20410858633E+03  0.20410858633E+03  0.00000000000E+00 0. -1.
         21   -1    0    0  502  503 -0.00000000000E+00 -0.00000000000E+00 -0.42223476323E+03  0.42223476323E+03  0.00000000000E+00 0. -1.
         -6    2    1    2    0  503  0.55694434775E+02  0.32216804008E+02 -0.35307701342E+03  0.39850186095E+03  0.17320670671E+03 0.  0.
        -24    2    3    3    0    0 -0.19173949421E+02  0.53240975607E+02 -0.13436613242E+03  0.16632987683E+03  0.80057033194E+02 0.  0.
          6    2    1    2  501    0 -0.55694434775E+02 -0.32216804008E+02  0.13495083652E+03  0.22784148860E+03  0.17193086729E+03 0.  0.
         24    2    5    5    0    0 -0.74545709597E+02  0.34444630241E+02  0.70018298230E+02  0.13277602744E+03  0.77352543609E+02 0.  0.
          5    1    5    5  501    0  0.18851274822E+02 -0.66661434249E+02  0.64932538289E+02  0.95065461168E+02  0.47000000000E+01 0. -1.
        -11    1    6    6    0    0  0.72890998805E+01 -0.12627825090E+02 -0.10360829146E+01  0.14617332567E+02  0.00000000000E+00 0.  1.
         12    1    6    6    0    0 -0.81834809477E+02  0.47072455331E+02  0.71054381145E+02  0.11815869487E+03  0.00000000000E+00 0. -1.
         -5    1    3    3    0  503  0.74868384196E+02 -0.21024171599E+02 -0.21871088100E+03  0.23217198412E+03  0.47000000000E+01 0.  1.
         13    1    4    4    0    0 -0.47706045763E+01  0.19966038643E+02 -0.12785368023E+03  0.12949117698E+03  0.00000000000E+00 0. -1.
        -14    1    4    4    0    0 -0.14403344845E+02  0.33274936964E+02 -0.65124521857E+01  0.36838699843E+02  0.00000000000E+00 0.  1.
</event>
<event>
12    1  0.8684423E-002  0.2287645E+03  0.7818608E-02  0.1127596E+00
         21   -1    0    0  501  502  0.00000000000E+00  0.00000000000E+00  0.64710871995E+02  0.64710871995E+02  0.00000000000E+00 0.  1.
         21   -1    0    0  502  503 -0.00000000000E+00 -0.00000000000E+00 -0.85574140236E+03  0.85574140236E+03  0.00000000000E+00 0. -1.
         -6    2    1    2    0  503  0.12067883674E+03 -0.89821089652E+02 -0.50489937915E+03  0.55411330799E+03  0.17171769053E+03 0.  0.
        -24    2    3    3    0    0  0.13475161816E+03 -0.94396302216E+02 -0.31999522495E+03  0.36855843204E+03  0.79810484093E+02 0.  0.
          6    2    1    2  501    0 -0.12067883674E+03  0.89821089652E+02 -0.28613115121E+03  0.36633896636E+03  0.17234266099E+03 0.  0.
         24    2    5    5    0    0  0.11814022662E+02  0.17607048929E+02 -0.85312040934E+02  0.11510276172E+03  0.74302907907E+02 0.  0.
          5    1    5    5  501    0 -0.13249285940E+03  0.72214040723E+02 -0.20081911027E+03  0.25123620464E+03  0.47000000000E+01 0. -1.
        -13    1    6    6    0    0 -0.21596477434E+02 -0.18221634502E+02 -0.32568604399E+02  0.43117859339E+02  0.00000000000E+00 0.  1.
         14    1    6    6    0    0  0.33410500096E+02  0.35828683431E+02 -0.52743436535E+02  0.71984902380E+02  0.00000000000E+00 0. -1.
         -5    1    3    3    0  503 -0.14072781418E+02  0.45752125635E+01 -0.18490415420E+03  0.18555487595E+03  0.47000000000E+01 0.  1.
         11    1    4    4    0    0  0.73337750442E+02 -0.55059498646E+02 -0.25455924931E+03  0.27057417733E+03  0.00000000000E+00 0. -1.
        -12    1    4    4    0    0  0.61413867717E+02 -0.39336803570E+02 -0.65435975643E+02  0.97984254711E+02  0.00000000000E+00 0.  1.
</event>
<event>
12    1  0.8684423E-002  0.2393821E+03  0.7818608E-02  0.1120442E+00
         21   -1    0    0  501  502  0.00000000000E+00  0.00000000000E+00  0.22504768849E+03  0.22504768849E+03  0.00000000000E+00 0.  1.
         21   -1    0    0  502  503 -0.00000000000E+00 -0.00000000000E+00 -0.56491650935E+03  0.56491650935E+03  0.00000000000E+00 0.  1.
         -6    2    1    2    0  503 -0.14346379683E+03  0.78900278486E+02 -0.46314618069E+03  0.52070389866E+03  0.17268772524E+03 0.  0.
        -24    2    3    3    0    0 -0.97380259994E+02 -0.90644571473E+01 -0.33809907946E+03  0.36095298439E+03  0.80068658001E+02 0.  0.
          6    2    1    2  501    0  0.14346379683E+03 -0.78900278486E+02  0.12327735984E+03  0.26926029918E+03  0.17463300467E+03 0.  0.
         24    2    5    5    0    0  0.82245229573E+02  0.11926287515E+02  0.14550082796E+02  0.11485534835E+03  0.77932868631E+02 0.  0.
          5    1    5    5  501    0  0.61218567262E+02 -0.90826566000E+02  0.10872727704E+03  0.15440495083E+03  0.47000000000E+01 0. -1.
        -13    1    6    6    0    0  0.44735617225E+02 -0.12537132367E+02  0.41748263727E+02  0.62460969099E+02  0.00000000000E+00 0.  1.
         14    1    6    6    0    0  0.37509612347E+02  0.24463419882E+02 -0.27198180932E+02  0.52394379248E+02  0.00000000000E+00 0. -1.
         -5    1    3    3    0  503 -0.46083536841E+02  0.87964735633E+02 -0.12504710123E+03  0.15975091427E+03  0.47000000000E+01 0.  1.
         13    1    4    4    0    0 -0.10676696058E+02  0.28336701095E+02 -0.10973949748E+03  0.11384075621E+03  0.00000000000E+00 0. -1.
        -14    1    4    4    0    0 -0.86703563937E+02 -0.37401158242E+02 -0.22835958198E+03  0.24711222819E+03  0.00000000000E+00 0.  1.
</event>
<event>
12    1  0.8684423E-002  0.2083546E+03  0.7818608E-02  0.1143074E+00
         21   -1    0    0  501  502  0.00000000000E+00  0.00000000000E+00  0.63911788132E+03  0.63911788132E+03  0.00000000000E+00 0. -1.
         21   -1    0    0  502  503 -0.00000000000E+00 -0.00000000000E+00 -0.10248299816E+03  0.10248299816E+03  0.00000000000E+00 0. -1.
         -6    2    1    2    0  503  0.27392350328E+02  0.11220948133E+03  0.52412401839E+02  0.21484578075E+03  0.17340801909E+03 0.  0.
        -24    2    3    3    0    0  0.25059540949E+02  0.10496352301E+03 -0.25335063636E+02  0.13658529073E+03  0.79801970137E+02 0.  0.
          6    2    1    2  501    0 -0.27392350328E+02 -0.11220948133E+03  0.48422248132E+03  0.52675509873E+03  0.17221560345E+03 0.  0.
         24    2    5    5    0    0 -0.63619266599E+02 -0.13028358047E+03  0.39538822478E+03  0.42901729818E+03  0.81870455103E+02 0.  0.
          5    1    5    5  501    0  0.36226916270E+02  0.18074099146E+02  0.88834256538E+02  0.97737800554E+02  0.47000000000E+01 0. -1.
        -13    1    6    6    0    0 -0.27767346863E+02 -0.11507339542E+03  0.22505438498E+03  0.25428800224E+03  0.00000000000E+00 0.  1.
         14    1    6    6    0    0 -0.35851919735E+02 -0.15210185055E+02  0.17033383980E+03  0.17472929594E+03  0.00000000000E+00 0. -1.
         -5    1    3    3    0  503  0.23328093796E+01  0.72459583162E+01  0.77747465475E+02  0.78260490027E+02  0.47000000000E+01 0.  1.
         11    1    4    4    0    0  0.22408739861E+02  0.41116537245E+02 -0.49617915018E+02  0.68225059530E+02  0.00000000000E+00 0. -1.
        -12    1    4    4    0    0  0.26508010883E+01  0.63846985767E+02  0.24282851383E+02  0.68360231196E+02  0.00000000000E+00 0.  1.
</event>
<event>
12    1  0.8684423E-002  0.2242036E+03  0.7818608E-02  0.1131206E+00
         21   -1    0    0  503  502  0.00000000000E+00  0.00000000000E+00  0.17614385910E+04  0.17614385910E+04  0.00000000000E+00 0. -1.
         21   -1    0    0  501  503 -0.00000000000E+00 -0.00000000000E+00 -0.40214175903E+02  0.40214175903E+02  0.00000000000E+00 0. -1.
          6    2    1    2  501    0 -0.13310375369E+03  0.42832303028E+02  0.36609564497E+03  0.42810217907E+03  0.17232016433E+03 0.  0.
         24    2    3    3    0    0 -0.14143455631E+03  0.81905986883E+02  0.29680871903E+03  0.34798399670E+03  0.79278760432E+02 0.  0.
         -6    2    1    2    0  502  0.13310375369E+03 -0.42832303028E+02  0.13551287701E+04  0.13735505878E+04  0.17525985923E+03 0.  0.
        -24    2    5    5    0    0  0.14491335547E+03 -0.81665096411E+02  0.11068598752E+04  0.11219417908E+04  0.77107263715E+02 0.  0.
          5    1    3    3  501    0  0.83308026237E+01 -0.39073683855E+02  0.69286925933E+02  0.80118182378E+02  0.47000000000E+01 0. -1.
        -11    1    4    4    0    0 -0.27131863737E+02  0.58565100589E+02  0.11760202967E+03  0.13415008915E+03  0.00000000000E+00 0.  1.
         12    1    4    4    0    0 -0.11430269258E+03  0.23340886294E+02  0.17920668936E+03  0.21383390754E+03  0.00000000000E+00 0. -1.
         -5    1    5    5    0  502 -0.11809601782E+02  0.38832793383E+02  0.24826889494E+03  0.25160879701E+03  0.47000000000E+01 0.  1.
         11    1    6    6    0    0  0.12079244018E+03 -0.80113556359E+02  0.10527174362E+04  0.10626490465E+04  0.00000000000E+00 0. -1.
        -12    1    6    6    0    0  0.24120915291E+02 -0.15515400525E+01  0.54142438996E+02  0.59292744341E+02  0.00000000000E+00 0.  1.
</event>
<event>
12    1  0.8684423E-002  0.1799229E+03  0.7818608E-02  0.1168409E+00
         21   -1    0    0  501  502  0.00000000000E+00  0.00000000000E+00  0.15925559843E+03  0.15925559843E+03  0.00000000000E+00 0. -1.
         21   -1    0    0  502  503 -0.00000000000E+00 -0.00000000000E+00 -0.41934841010E+03  0.41934841010E+03  0.00000000000E+00 0. -1.
         -6    2    1    2    0  503 -0.33771100888E+02 -0.30122092166E+02 -0.33926730118E+03  0.38402415214E+03  0.17413908260E+03 0.  0.
        -24    2    3    3    0    0 -0.88469348972E+02 -0.23571861318E+02 -0.24088848140E+03  0.27117342752E+03  0.84411545221E+02 0.  0.
          6    2    1    2  501    0  0.33771100888E+02  0.30122092166E+02  0.79174489507E+02  0.19457985639E+03  0.17188627936E+03 0.  0.
         24    2    5    5    0    0  0.74879428334E+01 -0.22893490481E+02 -0.15634578197E+02  0.82721438201E+02  0.77577155841E+02 0.  0.
          5    1    5    5  501    0  0.26283158055E+02  0.53015582647E+02  0.94809067705E+02  0.11185841819E+03  0.47000000000E+01 0. -1.
        -13    1    6    6    0    0 -0.18000725848E+02 -0.17228929843E+02  0.24432737030E+02  0.34897289198E+02  0.00000000000E+00 0.  1.
         14    1    6    6    0    0  0.25488668682E+02 -0.56645606385E+01 -0.40067315227E+02  0.47824149003E+02  0.00000000000E+00 0. -1.
         -5    1    3    3    0  503  0.54698248084E+02 -0.65502308473E+01 -0.98378819777E+02  0.11285072462E+03  0.47000000000E+01 0.  1.
         13    1    4    4    0    0 -0.29849165428E+02 -0.36376070830E+02 -0.17856327122E+03  0.18465923490E+03  0.00000000000E+00 0. -1.
        -14    1    4    4    0    0 -0.58620183544E+02  0.12804209511E+02 -0.62325210184E+02  0.86514192619E+02  0.00000000000E+00 0.  1.
</event>
<event>
12    1  0.8684423E-002  0.2019979E+03  0.7818608E-02  0.1148235E+00
         21   -1    0    0  501  502  0.00000000000E+00  0.00000000000E+00  0.61731295223E+02  0.61731295223E+02  0.00000000000E+00 0. -1.
         21   -1    0    0  502  503 -0.00000000000E+00 -0.00000000000E+00 -0.11247110611E+04  0.11247110611E+04  0.00000000000E+00 0. -1.
         -6    2    1    2    0  503 -0.87469580933E+02 -0.59687387097E+02 -0.91413686331E+03  0.93618874406E+03  0.17201641747E+03 0.  0.
        -24    2    3    3    0    0 -0.41662869714E+02 -0.30821987698E+02 -0.83437762947E+03  0.83967402261E+03  0.78617084914E+02 0.  0.
          6    2    1    2  501    0  0.87469580933E+02  0.59687387097E+02 -0.14884290261E+03  0.25025361230E+03  0.17105305915E+03 0.  0.
         24    2    5    5    0    0  0.60816264382E+02  0.96101137629E+02 -0.15250563205E+03  0.20473585645E+03  0.75662120249E+02 0.  0.
          5    1    5    5  501    0  0.26653316552E+02 -0.36413750532E+02  0.36627294439E+01  0.45517755854E+02  0.47000000000E+01 0. -1.
        -11    1    6    6    0    0  0.40543523187E+02  0.41228437759E+02 -0.12959795979E+03  0.14191262289E+03  0.00000000000E+00 0.  1.
         12    1    6    6    0    0  0.20272741195E+02  0.54872699870E+02 -0.22907672260E+02  0.62823233560E+02  0.00000000000E+00 0. -1.
         -5    1    3    3    0  503 -0.45806711219E+02 -0.28865399399E+02 -0.79759233841E+02  0.96514721458E+02  0.47000000000E+01 0.  1.
         11    1    4    4    0    0 -0.53382547040E+02 -0.48810986400E+02 -0.67246360446E+03  0.67634274451E+03  0.00000000000E+00 0. -1.
        -12    1    4    4    0    0  0.11719677325E+02  0.17988998702E+02 -0.16191402501E+03  0.16333127810E+03  0.00000000000E+00 0.  1.
</event>
<event>
12    1  0.8684423E-002  0.2359868E+03  0.7818608E-02  0.1122535E+00
         21   -1    0    0  501  502  0.00000000000E+00  0.00000000000E+00  0.63016033878E+03  0.63016033878E+03  0.00000000000E+00 0.  1.
         21   -1    0    0  502  503 -0.00000000000E+00 -0.00000000000E+00 -0.17483074986E+03  0.17483074986E+03  0.00000000000E+00 0. -1.
         -6    2    1    2    0  503 -0.16086919702E+03 -0.66192791743E+01 -0.55575081124E+02  0.24221817054E+03  0.17221596641E+03 0.  0.
        -24    2    3    3    0    0 -0.17382407640E+03 -0.34802844297E+02 -0.21379461556E+02  0.19581156928E+03  0.80368163958E+02 0.  0.
          6    2    1    2  501    0  0.16086919702E+03  0.66192791743E+01  0.51090467004E+03  0.56277291810E+03  0.17253133651E+03 0.  0.
         24    2    5    5    0    0  0.91585806772E+02  0.32017153427E+02  0.44868621101E+03  0.46613717510E+03  0.80941287054E+02 0.  0.
          5    1    5    5  501    0  0.69283390251E+02 -0.25397874252E+02  0.62218459033E+02  0.96635743003E+02  0.47000000000E+01 0. -1.
        -11    1    6    6    0    0  0.38285155977E+02 -0.42030407888E+01  0.31905663955E+03  0.32137292662E+03  0.00000000000E+00 0.  1.
         12    1    6    6    0    0  0.53300650795E+02  0.36220194215E+02  0.12962957145E+03  0.14476424848E+03  0.00000000000E+00 0. -1.
         -5    1    3    3    0  503  0.12954879379E+02  0.28183565123E+02 -0.34195619568E+02  0.46406601259E+02  0.47000000000E+01 0.  1.
         11    1    4    4    0    0 -0.16051474371E+03 -0.76538371839E+01 -0.36035763082E+01  0.16073751875E+03  0.00000000000E+00 0. -1.
        -12    1    4    4    0    0 -0.13309332692E+02 -0.27149007113E+02 -0.17775885248E+02  0.35074050526E+02  0.00000000000E+00 0.  1.
</event>
<event>
12    1  0.8684423E-002  0.2958063E+03  0.7818608E-02  0.1087663E+00
         21   -1    0    0  501  502  0.00000000000E+00  0.00000000000E+00  0.88797242054E+02  0.88797242054E+02  0.00000000000E+00 0. -1.
         21   -1    0    0  502  503 -0.00000000000E+00 -0.00000000000E+00 -0.10373023987E+04  0.10373023987E+04  0.00000000000E+00 0.  1.
         -6    2    1    2    0  503  0.21251034686E+03  0.11197595555E+03 -0.61135803894E+03  0.67916124118E+03  0.17263278253E+03 0.  0.
        -24    2    3    3    0    0  0.11851797163E+03  0.49155164440E+02 -0.19473056832E+03  0.24744193692E+03  0.82733174230E+02 0.  0.
          6    2    1    2  501    0 -0.21251034686E+03 -0.11197595555E+03 -0.33714711771E+03  0.44693839958E+03  0.16848291276E+03 0.  0.
         24    2    5    5    0    0 -0.26271603225E+02 -0.35888053371E+02 -0.11613645849E+03  0.14803701120E+03  0.80306476585E+02 0.  0.
          5    1    5    5  501    0 -0.18623874363E+03 -0.76087902183E+02 -0.22101065922E+03  0.29890138838E+03  0.47000000000E+01 0. -1.
        -11    1    6    6    0    0 -0.23646452213E+02 -0.35221976999E+02 -0.12853036283E+03  0.13535064291E+03  0.00000000000E+00 0.  1.
         12    1    6    6    0    0 -0.26251510120E+01 -0.66607637262E+00  0.12393904339E+02  0.12686368288E+02  0.00000000000E+00 0. -1.
         -5    1    3    3    0  503  0.93992375231E+02  0.62820791114E+02 -0.41662747063E+03  0.43171930427E+03  0.47000000000E+01 0.  1.
         11    1    4    4    0    0  0.12229146714E+03  0.26181545228E+02 -0.18222969976E+03  0.22101660508E+03  0.00000000000E+00 0. -1.
        -12    1    4    4    0    0 -0.37734955133E+01  0.22973619212E+02 -0.12500868559E+02  0.26425331839E+02  0.00000000000E+00 0.  1.
</event>
<event>
12    1  0.8684423E-002  0.1759823E+03  0.7818608E-02  0.1172118E+00
         21   -1    0    0  503  502  0.00000000000E+00  0.00000000000E+00  0.22285141805E+02  0.22285141805E+02  0.00000000000E+00 0.  1.
         21   -1    0    0  501  503 -0.00000000000E+00 -0.00000000000E+00 -0.14315843809E+04  0.14315843809E+04  0.00000000000E+00 0.  1.
          6    2    1    2  501    0 -0.82582025309E+01  0.31302148786E+02 -0.84231962455E+03  0.86020661767E+03  0.17147901551E+03 0.  0.
         24    2    3    3    0    0  0.57195214393E+02  0.29676966687E+02 -0.61684495153E+03  0.62537112381E+03  0.80245456992E+02 0.  0.
         -6    2    1    2    0  502  0.82582025309E+01 -0.31302148786E+02 -0.56697961454E+03  0.59366290502E+03  0.17297901339E+03 0.  0.
        -24    2    5    5    0    0  0.28937737896E+02 -0.74535663863E+02 -0.26479985054E+03  0.28767029109E+03  0.79008086112E+02 0.  0.
          5    1    3    3  501    0 -0.65453416924E+02  0.16251820990E+01 -0.22547467302E+03  0.23483549386E+03  0.47000000000E+01 0. -1.
        -13    1    4    4    0    0  0.12120497598E+02  0.38108826482E+02 -0.46593154923E+03  0.46764452065E+03  0.00000000000E+00 0.  1.
         14    1    4    4    0    0  0.45074716795E+02 -0.84318597943E+01 -0.15091340229E+03  0.15772660316E+03  0.00000000000E+00 0. -1.
         -5    1    5    5    0  502 -0.20679535365E+02  0.43233515077E+02 -0.30217976400E+03  0.30599261393E+03  0.47000000000E+01 0.  1.
         11    1    6    6    0    0  0.23054050440E+02 -0.40927237010E+02 -0.24227358917E+03  0.24678537230E+03  0.00000000000E+00 0. -1.
        -12    1    6    6    0    0  0.58836874562E+01 -0.33608426854E+02 -0.22526261366E+02  0.40884918794E+02  0.00000000000E+00 0.  1.
</event>
<event>
12    1  0.8684423E-002  0.1783192E+03  0.7818608E-02  0.1169449E+00
         21   -1    0    0  501  502  0.00000000000E+00  0.00000000000E+00  0.10058258286E+03  0.10058258286E+03  0.00000000000E+00 0. -1.
         21   -1    0    0  502  503 -0.00000000000E+00 -0.00000000000E+00 -0.31697311947E+03  0.31697311947E+03  0.00000000000E+00 0. -1.
         -6    2    1    2    0  503 -0.10871447177E+02 -0.46227228000E+02 -0.97071965969E+02  0.20302878449E+03  0.17187953858E+03 0.  0.
        -24    2    3    3    0    0 -0.12612071020E+02 -0.32053468936E+00  0.14995058212E+02  0.81820029979E+02  0.79438645866E+02 0.  0.
          6    2    1    2  501    0  0.10871447177E+02  0.46227228000E+02 -0.11931857064E+03  0.21452691784E+03  0.17184217237E+03 0.  0.
         24    2    5    5    0    0 -0.17933902222E+02 -0.57729337043E+01  0.45859668992E+01  0.77019865675E+02  0.74539097148E+02 0.  0.
          5    1    5    5  501    0  0.28805349399E+02  0.52000161704E+02 -0.12390453754E+03  0.13750705216E+03  0.47000000000E+01 0. -1.
        -11    1    6    6    0    0 -0.29840877101E+02  0.10003251572E+02 -0.25850854358E+02  0.40728487072E+02  0.00000000000E+00 0.  1.
         12    1    6    6    0    0  0.11906974878E+02 -0.15776185276E+02  0.30436821257E+02  0.36291378603E+02  0.00000000000E+00 0. -1.
         -5    1    3    3    0  503  0.17406238422E+01 -0.45906693311E+02 -0.11206702418E+03  0.12120875451E+03  0.47000000000E+01 0.  1.
         13    1    4    4    0    0  0.64659888619E+01  0.19880043137E+02  0.39552724289E+02  0.44737491277E+02  0.00000000000E+00 0. -1.
        -14    1    4    4    0    0 -0.19078059881E+02 -0.20200577827E+02 -0.24557666078E+02  0.37082538701E+02  0.00000000000E+00 0.  1.
</event>
<event>
12    1  0.8684423E-002  0.2252054E+03  0.7818608E-02  0.1130399E+00
         21   -1    0    0  501  502  0.00000000000E+00  0.00000000000E+00  0.46080123663E+02  0.46080123663E+02  0.00000000000E+00 0.  1.
         21   -1    0    0  502  503 -0.00000000000E+00 -0.00000000000E+00 -0.17548691383E+04  0.17548691383E+04  0.00000000000E+00 0.  1.
         -6    2    1    2    0  503 -0.80251503877E+02  0.11779690953E+03 -0.14058001871E+04  0.14234314261E+04  0.17194895482E+03 0.  0.
        -24    2    3    3    0    0 -0.97091405905E+02  0.91182550819E+02 -0.75034447119E+03  0.76720266121E+03  0.88555627956E+02 0.  0.
          6    2    1    2  501    0  0.80251503877E+02 -0.11779690953E+03 -0.30298882757E+03  0.37751783587E+03  0.17435902901E+03 0.  0.
         24    2    5    5    0    0  0.87831355603E+02 -0.27014082000E+02 -0.22369717686E+03  0.25665331750E+03  0.85944114393E+02 0.  0.
          5    1    5    5  501    0 -0.75798517255E+01 -0.90782827533E+02 -0.79291650718E+02  0.12086451837E+03  0.47000000000E+01 0. -1.
        -13    1    6    6    0    0  0.13000462558E+02 -0.37755376006E+02 -0.33991533172E+02  0.52439534432E+02  0.00000000000E+00 0.  1.
         14    1    6    6    0    0  0.74830893045E+02  0.10741294005E+02 -0.18970564368E+03  0.20421378307E+03  0.00000000000E+00 0. -1.
         -5    1    3    3    0  503  0.16839902028E+02  0.26614358714E+02 -0.65545571588E+03  0.65622876489E+03  0.47000000000E+01 0.  1.
         11    1    4    4    0    0 -0.28160188853E+01 -0.16534954603E+02 -0.74427805420E+02  0.76294383186E+02  0.00000000000E+00 0. -1.
        -12    1    4    4    0    0 -0.94275387019E+02  0.10771750542E+03 -0.67591666577E+03  0.69090827802E+03  0.00000000000E+00 0.  1.
</event>
<event>
12    1  0.8684423E-002  0.2290279E+03  0.7818608E-02  0.1127347E+00
         21   -1    0    0  503  502  0.00000000000E+00  0.00000000000E+00  0.57595362082E+03  0.57595362082E+03  0.00000000000E+00 0. -1.
         21   -1    0    0  501  503 -0.00000000000E+00 -0.00000000000E+00 -0.99915229059E+02  0.99915229059E+02  0.00000000000E+00 0. -1.
          6    2    1    2  501    0  0.14734490091E+03  0.36649301434E+02  0.13716135274E+03  0.26685608069E+03  0.17130452416E+03 0.  0.
         24    2    3    3    0    0  0.72286590680E+02  0.66553707064E+02  0.26395227534E+02  0.12967281676E+03  0.80396419401E+02 0.  0.
         -6    2    1    2    0  502 -0.14734490091E+03 -0.36649301434E+02  0.33887703902E+03  0.40901276919E+03  0.17146459303E+03 0.  0.
        -24    2    5    5    0    0 -0.12366204912E+03 -0.88018287937E+02  0.24571043348E+03  0.29991759683E+03  0.80854352787E+02 0.  0.
          5    1    3    3  501    0  0.75058310232E+02 -0.29904405630E+02  0.11076612521E+03  0.13718326394E+03  0.47000000000E+01 0. -1.
        -13    1    4    4    0    0 -0.15048959938E+02  0.26836728324E+02  0.29635658217E+01  0.30910579172E+02  0.00000000000E+00 0.  1.
         14    1    4    4    0    0  0.87335550617E+02  0.39716978740E+02  0.23431661713E+02  0.98762237584E+02  0.00000000000E+00 0. -1.
         -5    1    5    5    0  502 -0.23682851792E+02  0.51368986503E+02  0.93166605540E+02  0.10909517236E+03  0.47000000000E+01 0.  1.
         13    1    6    6    0    0 -0.97481025576E+02 -0.23144177744E+02  0.16570575476E+03  0.19364038957E+03  0.00000000000E+00 0. -1.
        -14    1    6    6    0    0 -0.26181023544E+02 -0.64874110193E+02  0.80004678720E+02  0.10627720727E+03  0.00000000000E+00 0.  1.
</event>
<event>
12    1  0.8684423E-002  0.1877121E+03  0.7818608E-02  0.1160805E+00
         21   -1    0    0  501  502  0.00000000000E+00  0.00000000000E+00  0.61512462686E+03  0.61512462686E+03  0.00000000000E+00 0. -1.
         21   -1    0    0  502  503 -0.00000000000E+00 -0.00000000000E+00 -0.64883932001E+02  0.64883932001E+02  0.00000000000E+00 0.  1.
         -6    2    1    2    0  503 -0.54976320822E+02  0.44134357051E+02  0.15683907214E+03  0.24461056747E+03  0.17397010618E+03 0.  0.
        -24    2    3    3    0    0  0.22396503990E+02 -0.27763780749E+01  0.28548488074E+02  0.87550913040E+02  0.79629357254E+02 0.  0.
          6    2    1    2  501    0  0.54976320822E+02 -0.44134357051E+02  0.39340162272E+03  0.43539799139E+03  0.17273197974E+03 0.  0.
         24    2    5    5    0    0 -0.23882180392E+02 -0.15873708448E+02  0.28045326069E+03  0.29469706759E+03  0.85848686975E+02 0.  0.
          5    1    5    5  501    0  0.78858501214E+02 -0.28260648603E+02  0.11294836203E+03  0.14070092380E+03  0.47000000000E+01 0. -1.
        -13    1    6    6    0    0  0.28746884438E+02  0.49373437357E+01  0.55076237254E+02  0.62322970389E+02  0.00000000000E+00 0.  1.
         14    1    6    6    0    0 -0.52629064830E+02 -0.20811052184E+02  0.22537702343E+03  0.23237409720E+03  0.00000000000E+00 0. -1.
         -5    1    3    3    0  503 -0.77372824812E+02  0.46910735126E+02  0.12829058406E+03  0.15705965443E+03  0.47000000000E+01 0.  1.
         13    1    4    4    0    0 -0.26966547675E+02 -0.16358161983E+02  0.11991029552E+02  0.33742687307E+02  0.00000000000E+00 0. -1.
        -14    1    4    4    0    0  0.49363051666E+02  0.13581783908E+02  0.16557458522E+02  0.53808225733E+02  0.00000000000E+00 0.  1.
</event>
<event>
12    1  0.8684423E-002  0.1829552E+03  0.7818608E-02  0.1166467E+00
         21   -1    0    0  501  502  0.00000000000E+00  0.00000000000E+00  0.83256765771E+03  0.83256765771E+03  0.00000000000E+00 0.  1.
         21   -1    0    0  502  503 -0.00000000000E+00 -0.00000000000E+00 -0.39003331549E+02  0.39003331549E+02  0.00000000000E+00 0. -1.
         -6    2    1    2    0  503  0.56850666979E+02  0.13382054553E+02  0.41684849480E+03  0.45277816891E+03  0.16683622180E+03 0.  0.
        -24    2    3    3    0    0 -0.27666303961E+02 -0.89404734528E+01  0.14314262670E+03  0.16541358190E+03  0.77630438994E+02 0.  0.
          6    2    1    2  501    0 -0.56850666979E+02 -0.13382054553E+02  0.37671583136E+03  0.41879282035E+03  0.17338261464E+03 0.  0.
         24    2    5    5    0    0 -0.35399848168E+02 -0.12655015039E+02  0.38564248519E+03  0.39507697412E+03  0.77151736462E+02 0.  0.
          5    1    5    5  501    0 -0.21450818811E+02 -0.72703951360E+00 -0.89266538258E+01  0.23715846235E+02  0.47000000000E+01 0. -1.
        -11    1    6    6    0    0 -0.10077917599E+02  0.32410655458E+02  0.16587197676E+03  0.16930897107E+03  0.00000000000E+00 0.  1.
         12    1    6    6    0    0 -0.25321930569E+02 -0.45065670497E+02  0.21977050843E+03  0.22576800305E+03  0.00000000000E+00 0. -1.
         -5    1    3    3    0  503  0.84516970940E+02  0.22322528006E+02  0.27370586810E+03  0.28736458701E+03  0.47000000000E+01 0.  1.
         11    1    4    4    0    0 -0.35262113969E+02  0.16263561357E+02  0.29512088227E+02  0.48773798920E+02  0.00000000000E+00 0. -1.
        -12    1    4    4    0    0  0.75958100078E+01 -0.25204034810E+02  0.11363053847E+03  0.11663978298E+03  0.00000000000E+00 0.  1.
</event>
<event>
12    1  0.8684423E-002  0.2006395E+03  0.7818608E-02  0.1149384E+00
         21   -1    0    0  503  502  0.00000000000E+00  0.00000000000E+00  0.13364428933E+03  0.13364428933E+03  0.00000000000E+00 0. -1.
         21   -1    0    0  501  503 -0.00000000000E+00 -0.00000000000E+00 -0.43782166489E+03  0.43782166489E+03  0.00000000000E+00 0.  1.
          6    2    1    2  501    0  0.57007797922E+02  0.84169031134E+02 -0.31222556285E+03  0.37066513751E+03  0.17196955324E+03 0.  0.
         24    2    3    3    0    0 -0.30487036067E+02  0.70579273938E+02 -0.16812125779E+03  0.20146653168E+03  0.80081913004E+02 0.  0.
         -6    2    1    2    0  502 -0.57007797922E+02 -0.84169031134E+02  0.80481872948E+01  0.20080081672E+03  0.17297942031E+03 0.  0.
        -24    2    5    5    0    0 -0.44974098766E+02 -0.12268347746E+03 -0.71188086457E+01  0.15743838762E+03  0.87534354723E+02 0.  0.
          5    1    3    3  501    0  0.87494833989E+02  0.13589757196E+02 -0.14410430507E+03  0.16919860583E+03  0.47000000000E+01 0. -1.
        -11    1    4    4    0    0  0.19341597366E+01  0.73937657020E+02 -0.14034599121E+03  0.15864272863E+03  0.00000000000E+00 0.  1.
         12    1    4    4    0    0 -0.32421195803E+02 -0.33583830817E+01 -0.27775266581E+02  0.42823803053E+02  0.00000000000E+00 0. -1.
         -5    1    5    5    0  502 -0.12033699156E+02  0.38514446330E+02  0.15166995941E+02  0.43362429099E+02  0.47000000000E+01 0.  1.
         13    1    6    6    0    0 -0.25244524115E+02 -0.93515660553E+02  0.34588498291E+02  0.10285343446E+03  0.00000000000E+00 0. -1.
        -14    1    6    6    0    0 -0.19729574651E+02 -0.29167816911E+02 -0.41707306936E+02  0.54584953157E+02  0.00000000000E+00 0.  1.
</event>
<event>
12    1  0.8684423E-002  0.2064008E+03  0.7818608E-02  0.1145362E+00
         21   -1    0    0  503  502  0.00000000000E+00  0.00000000000E+00  0.23053802921E+04  0.23053802921E+04  0.00000000000E+00 0. -1.
         21   -1    0    0  501  503 -0.00000000000E+00 -0.00000000000E+00 -0.20360546919E+02  0.20360546919E+02  0.00000000000E+00 0. -1.
          6    2    1    2  501    0 -0.10089356821E+03  0.31218734492E+02  0.76457799824E+03  0.79194747570E+03  0.17733349199E+03 0.  0.
         24    2    3    3    0    0 -0.10811060452E+03  0.48205598462E+02  0.35868994706E+03  0.38561283620E+03  0.77634391799E+02 0.  0.
         -6    2    1    2    0  502  0.10089356821E+03 -0.31218734492E+02  0.15204417469E+04  0.15337933633E+04  0.17211872077E+03 0.  0.
        -24    2    5    5    0    0  0.48869127341E+02  0.46494390460E+02  0.92471081883E+03  0.93074833934E+03  0.81562569710E+02 0.  0.
          5    1    3    3  501    0  0.72170363165E+01 -0.16986863970E+02  0.40588805119E+03  0.40633463950E+03  0.47000000000E+01 0. -1.
        -13    1    4    4    0    0 -0.31448628035E+02  0.47661073518E+02  0.21840937952E+03  0.22575041793E+03  0.00000000000E+00 0.  1.
         14    1    4    4    0    0 -0.76661976488E+02  0.54452494381E+00  0.14028056754E+03  0.15986241827E+03  0.00000000000E+00 0. -1.
         -5    1    5    5    0  502  0.52024440866E+02 -0.77713124952E+02  0.59573092809E+03  0.60304502396E+03  0.47000000000E+01 0.  1.
         11    1    6    6    0    0  0.14881968056E+02  0.63053800000E+02  0.68722685964E+03  0.69027386687E+03  0.00000000000E+00 0. -1.
        -12    1    6    6    0    0  0.33987159285E+02 -0.16559409540E+02  0.23748395919E+03  0.24047447247E+03  0.00000000000E+00 0.  1.
</event>
<event>
12    1  0.8684423E-002  0.2618727E+03  0.7818608E-02  0.1106060E+00
         21   -1    0    0  501  502  0.00000000000E+00  0.00000000000E+00  0.18715933365E+03  0.18715933365E+03  0.00000000000E+00 0.  1.
         21   -1    0    0  502  503 -0.00000000000E+00 -0.00000000000E+00 -0.66509910638E+03  0.66509910638E+03  0.00000000000E+00 0. -1.
         -6    2    1    2    0  503 -0.18176960500E+03  0.77042229583E+02 -0.52476171755E+03  0.58647433726E+03  0.17205113664E+03 0.  0.
        -24    2    3    3    0    0 -0.44126836067E+02  0.58017472205E+02 -0.12608959967E+03  0.16425517521E+03  0.75947157248E+02 0.  0.
          6    2    1    2  501    0  0.18176960500E+03 -0.77042229583E+02  0.46821944824E+02  0.26578410277E+03  0.17167760579E+03 0.  0.
         24    2    5    5    0    0  0.15275221476E+03 -0.11097834064E+03  0.67815745143E+02  0.21622102961E+03  0.80641968916E+02 0.  0.
          5    1    5    5  501    0  0.29017390236E+02  0.33936111055E+02 -0.20993800319E+02  0.49563073164E+02  0.47000000000E+01 0. -1.
        -13    1    6    6    0    0  0.10367140882E+03 -0.25598525046E+02  0.37519585628E+02  0.11318464912E+03  0.00000000000E+00 0.  1.
         14    1    6    6    0    0  0.49080805941E+02 -0.85379815592E+02  0.30296159515E+02  0.10303638049E+03  0.00000000000E+00 0. -1.
         -5    1    3    3    0  503 -0.13764276893E+03  0.19024757378E+02 -0.39867211788E+03  0.42221916205E+03  0.47000000000E+01 0.  1.
         11    1    4    4    0    0 -0.23336133911E+02  0.43301488707E+02 -0.12952682584E+03  0.13855249071E+03  0.00000000000E+00 0. -1.
        -12    1    4    4    0    0 -0.20790702157E+02  0.14715983498E+02  0.34372261682E+01  0.25702684494E+02  0.00000000000E+00 0.  1.
</event>
<event>
12    1  0.8684423E-002  0.2262813E+03  0.7818608E-02  0.1129463E+00
         21   -1    0    0  501  502  0.00000000000E+00  0.00000000000E+00  0.47246903551E+03  0.47246903551E+03  0.00000000000E+00 0.  1.
         21   -1    0    0  502  503 -0.00000000000E+00 -0.00000000000E+00 -0.24186933653E+03  0.24186933653E+03  0.00000000000E+00 0. -1.
         -6    2    1    2    0  503  0.13735914601E+02 -0.14471981331E+03 -0.15040670167E+03  0.27170832395E+03  0.17340916261E+03 0.  0.
        -24    2    3    3    0    0 -0.17255327011E+02 -0.15572461828E+03 -0.79054764815E+02  0.19300157911E+03  0.80324657794E+02 0.  0.
          6    2    1    2  501    0 -0.13735914601E+02  0.14471981331E+03  0.38100640066E+03  0.44263004810E+03  0.17211328370E+03 0.  0.
         24    2    5    5    0    0 -0.63076685543E+02  0.48276174146E+02  0.15314856701E+03  0.19028669161E+03  0.80282527217E+02 0.  0.
          5    1    5    5  501    0  0.49340770942E+02  0.96443639167E+02  0.22785783365E+03  0.25234335649E+03  0.47000000000E+01 0. -1.
        -11    1    6    6    0    0 -0.51769612064E+02  0.20133215940E+02  0.14980723384E+03  0.15977373510E+03  0.00000000000E+00 0.  1.
         12    1    6    6    0    0 -0.11307073478E+02  0.28142958205E+02  0.33413331667E+01  0.30512956503E+02  0.00000000000E+00 0. -1.
         -5    1    3    3    0  503  0.30991241612E+02  0.11004804970E+02 -0.71351936860E+02  0.78706744836E+02  0.47000000000E+01 0.  1.
         11    1    4    4    0    0 -0.35372005383E+02 -0.10246917099E+03 -0.83120721406E+02  0.13660221116E+03  0.00000000000E+00 0. -1.
        -12    1    4    4    0    0  0.18116678372E+02 -0.53255447295E+02  0.40659565911E+01  0.56399367947E+02  0.00000000000E+00 0.  1.
</event>
<event>
12    1  0.8684423E-002  0.2810298E+03  0.7818608E-02  0.1095222E+00
         21   -1    0    0  503  502  0.00000000000E+00  0.00000000000E+00  0.13141948954E+03  0.13141948954E+03  0.00000000000E+00 0. -1.
         21   -1    0    0  501  503 -0.00000000000E+00 -0.00000000000E+00 -0.88464782669E+03  0.88464782669E+03  0.00000000000E+00 0.  1.
          6    2    1    2  501    0 -0.11183662307E+03 -0.19098227663E+03 -0.66473966410E+03  0.72143538473E+03  0.17207130225E+03 0.  0.
         24    2    3    3    0    0 -0.78973585997E+02 -0.21269998690E+03 -0.57334530335E+03  0.62180277298E+03  0.80223063394E+02 0.  0.
         -6    2    1    2    0  502  0.11183662307E+03  0.19098227663E+03 -0.88488673041E+02  0.29463193150E+03  0.17319373418E+03 0.  0.
        -24    2    5    5    0    0  0.12193271138E+03  0.20034327791E+03 -0.10828262709E+03  0.27006671298E+03  0.78777452483E+02 0.  0.
          5    1    3    3  501    0 -0.32863037076E+02  0.21717710277E+02 -0.91394360752E+02  0.99632611743E+02  0.47000000000E+01 0. -1.
        -13    1    4    4    0    0  0.10461070992E+01 -0.53803328939E+02 -0.72436975386E+02  0.90238616723E+02  0.00000000000E+00 0.  1.
         14    1    4    4    0    0 -0.80019693096E+02 -0.15889665796E+03 -0.50090832797E+03  0.53156415626E+03  0.00000000000E+00 0. -1.
         -5    1    5    5    0  502 -0.10096088310E+02 -0.93610012870E+01  0.19793954047E+02  0.24565218523E+02  0.47000000000E+01 0.  1.
         11    1    6    6    0    0  0.68702048577E+02  0.74808526501E+02 -0.83484108452E+02  0.13147579047E+03  0.00000000000E+00 0. -1.
        -12    1    6    6    0    0  0.53230662805E+02  0.12553475141E+03 -0.24798518636E+02  0.13859092251E+03  0.00000000000E+00 0.  1.
</event>
<event>
12    1  0.8684423E-002  0.2096147E+03  0.7818608E-02  0.1144478E+00
         21   -1    0    0  503  502  0.00000000000E+00  0.00000000000E+00  0.19851008100E+04  0.19851008100E+04  0.00000000000E+00 0. -1.
         21   -1    0    0  501  503 -0.00000000000E+00 -0.00000000000E+00 -0.36386653450E+02  0.36386653450E+02  0.00000000000E+00 0. -1.
          6    2    1    2  501    0 -0.79051660007E+01 -0.94836355313E+02  0.29587019707E+03  0.35540478592E+03  0.17238608529E+03 0.  0.
         24    2    3    3    0    0  0.60874095989E+01  0.11856877224E+02  0.78543777290E+02  0.11285149121E+03  0.79929293902E+02 0.  0.
         -6    2    1    2    0  502  0.79051660007E+01  0.94836355313E+02  0.16528439595E+04  0.16660826776E+04  0.18676698863E+03 0.  0.
        -24    2    5    5    0    0  0.28098219712E+02  0.44846915793E+02  0.38364546752E+03  0.39573091307E+03  0.81353272840E+02 0.  0.
          5    1    3    3  501    0 -0.13992575600E+02 -0.10669323254E+03  0.21732641978E+03  0.24255329471E+03  0.47000000000E+01 0. -1.
        -11    1    4    4    0    0 -0.99549536561E+00  0.98210417895E+01  0.94637346271E+02  0.95150781301E+02  0.00000000000E+00 0.  1.
         12    1    4    4    0    0  0.70829049645E+01  0.20358354342E+01 -0.16093568981E+02  0.17700709907E+02  0.00000000000E+00 0. -1.
         -5    1    5    5    0  502 -0.20193053711E+02  0.49989439520E+02  0.12691984920E+04  0.12703517645E+04  0.47000000000E+01 0.  1.
         13    1    6    6    0    0  0.46979263311E+01  0.29170453838E+02  0.35250925492E+03  0.35374533311E+03  0.00000000000E+00 0. -1.
        -14    1    6    6    0    0  0.23400293381E+02  0.15676461956E+02  0.31136212599E+02  0.41985579962E+02  0.00000000000E+00 0.  1.
</event>
<event>
12    1  0.8684423E-002  0.2168338E+03  0.7818608E-02  0.1136671E+00
         21   -1    0    0  503  502  0.00000000000E+00  0.00000000000E+00  0.56553558344E+02  0.56553558344E+02  0.00000000000E+00 0.  1.
         21   -1    0    0  501  503 -0.00000000000E+00 -0.00000000000E+00 -0.82631847443E+03  0.82631847443E+03  0.00000000000E+00 0.  1.
          6    2    1    2  501    0 -0.11174793997E+03 -0.70294676274E+02 -0.41366445374E+03  0.46704945227E+03  0.17201153152E+03 0.  0.
         24    2    3    3    0    0 -0.52703415214E+02  0.29990183826E+02 -0.22171419956E+03  0.24252707220E+03  0.77363643695E+02 0.  0.
         -6    2    1    2    0  502  0.11174793997E+03  0.70294676274E+02 -0.35610046235E+03  0.41582258051E+03  0.16932789368E+03 0.  0.
        -24    2    5    5    0    0  0.15449958083E+02  0.57807716914E+02 -0.98695712186E+02  0.14067076628E+03  0.80417582290E+02 0.  0.
          5    1    3    3  501    0 -0.59044524753E+02 -0.10028486010E+03 -0.19195025418E+03  0.22452238006E+03  0.47000000000E+01 0. -1.
        -13    1    4    4    0    0 -0.63553312999E+02 -0.61926290207E+00 -0.12055007966E+03  0.13627813026E+03  0.00000000000E+00 0.  1.
         14    1    4    4    0    0  0.10849897785E+02  0.30609446728E+02 -0.10116411989E+03  0.10624894195E+03  0.00000000000E+00 0. -1.
         -5    1    5    5    0  502  0.96297981885E+02  0.12486959360E+02 -0.25740475016E+03  0.27515181423E+03  0.47000000000E+01 0.  1.
         13    1    6    6    0    0  0.18884962054E+02  0.33037812996E+02  0.81792219060E+00  0.38063208956E+02  0.00000000000E+00 0. -1.
        -14    1    6    6    0    0 -0.34350039707E+01  0.24769903918E+02 -0.99513634376E+02  0.10260755732E+03  0.00000000000E+00 0.  1.
</event>
<event>
12    1  0.8684423E-002  0.1850738E+03  0.7818608E-02  0.1163329E+00
         21   -1    0    0  503  502  0.00000000000E+00  0.00000000000E+00  0.39327635262E+03  0.39327635262E+03  0.00000000000E+00 0. -1.
         21   -1    0    0  501  503 -0.00000000000E+00 -0.00000000000E+00 -0.15811977111E+03  0.15811977111E+03  0.00000000000E+00 0. -1.
          6    2    1    2  501    0  0.63061245219E+02 -0.95563993263E+01 -0.68360516165E+02  0.19590359900E+03  0.17215404298E+03 0.  0.
         24    2    3    3    0    0  0.25397031935E+02 -0.59648914173E+02 -0.82369946618E+02  0.13151255034E+03  0.79421285542E+02 0.  0.
         -6    2    1    2    0  502 -0.63061245219E+02  0.95563993263E+01  0.30351709768E+03  0.35549252473E+03  0.17373618259E+03 0.  0.
        -24    2    5    5    0    0 -0.96757865480E+02 -0.27981795574E+02  0.16794583108E+03  0.21076437744E+03  0.77915051190E+02 0.  0.
          5    1    3    3  501    0  0.37664213284E+02  0.50092514846E+02  0.14009430454E+02  0.64391048660E+02  0.47000000000E+01 0. -1.
        -11    1    4    4    0    0 -0.23622330185E+02  0.10048836551E+01 -0.12203607870E+02  0.26607373406E+02  0.00000000000E+00 0.  1.
         12    1    4    4    0    0  0.49019362120E+02 -0.60653797828E+02 -0.70166338749E+02  0.10490517693E+03  0.00000000000E+00 0. -1.
         -5    1    5    5    0  502  0.33696620261E+02  0.37538194900E+02  0.13557126660E+03  0.14472814730E+03  0.47000000000E+01 0.  1.
         11    1    6    6    0    0 -0.80477528971E+02  0.13358236197E+02  0.93669840216E+02  0.12421398516E+03  0.00000000000E+00 0. -1.
        -12    1    6    6    0    0 -0.16280336510E+02 -0.41340031771E+02  0.74275990866E+02  0.86550392274E+02  0.00000000000E+00 0.  1.
</event>
<event>
12    1  0.8684423E-002  0.2538733E+03  0.7818608E-02  0.1110913E+00
         21   -1    0    0  501  502  0.00000000000E+00  0.00000000000E+00  0.73729942978E+02  0.73729942978E+02  0.00000000000E+00 0. -1.
         21   -1    0    0  502  503 -0.00000000000E+00 -0.00000000000E+00 -0.10188368400E+04  0.10188368400E+04  0.00000000000E+00 0.  1.
         -6    2    1    2    0  503  0.10150863704E+02 -0.18675554757E+03 -0.67874828863E+03  0.72460132359E+03  0.17136850424E+03 0.  0.
        -24    2    3    3    0    0 -0.51637022984E+01 -0.11416663686E+03 -0.22039222902E+03  0.26025656668E+03  0.78102887864E+02 0.  0.
          6    2    1    2  501    0 -0.10150863704E+02  0.18675554757E+03 -0.26635860843E+03  0.36796545943E+03  0.17167118705E+03 0.  0.
         24    2    5    5    0    0 -0.48628222850E+02  0.19254170975E+03 -0.23697413849E+03  0.31898052386E+03  0.78452649617E+02 0.  0.
          5    1    5    5  501    0  0.38477359146E+02 -0.57861621806E+01 -0.29384469938E+02  0.48984935574E+02  0.47000000000E+01 0. -1.
        -13    1    6    6    0    0 -0.22151475096E+02  0.18453054744E+03 -0.20554343267E+03  0.27711065209E+03  0.00000000000E+00 0.  1.
         14    1    6    6    0    0 -0.26476747754E+02  0.80111623153E+01 -0.31430705820E+02  0.41869871765E+02  0.00000000000E+00 0. -1.
         -5    1    3    3    0  503  0.15314566002E+02 -0.72588910714E+02 -0.45835605961E+03  0.46434475691E+03  0.47000000000E+01 0.  1.
         11    1    4    4    0    0  0.35646178755E+02 -0.41804085495E+02 -0.97623707941E+02  0.11202062299E+03  0.00000000000E+00 0. -1.
        -12    1    4    4    0    0 -0.40809881053E+02 -0.72362551363E+02 -0.12276852108E+03  0.14823594368E+03  0.00000000000E+00 0.  1.
</event>
<event>
12    1  0.8684423E-002  0.1990117E+03  0.7818608E-02  0.1151116E+00
         21   -1    0    0  503  502  0.00000000000E+00  0.00000000000E+00  0.82173469553E+03  0.82173469553E+03  0.00000000000E+00 0.  1.
         21   -1    0    0  501  503 -0.00000000000E+00 -0.00000000000E+00 -0.51366589005E+02  0.51366589005E+02  0.00000000000E+00 0.  1.
          6    2    1    2  501    0  0.85673818003E+02 -0.42613367206E+02  0.26448508029E+03  0.32948073052E+03  0.17160795999E+03 0.  0.
         24    2    3    3    0    0  0.91966568797E+02 -0.81730665841E+02  0.24442011649E+03  0.28482141416E+03  0.79020839692E+02 0.  0.
         -6    2    1    2    0  502 -0.85673818003E+02  0.42613367206E+02  0.50588302624E+03  0.54362055402E+03  0.17449861994E+03 0.  0.
        -24    2    5    5    0    0 -0.53831835059E+02  0.43780728291E+02  0.13723038303E+03  0.17356361792E+03  0.80483121236E+02 0.  0.
          5    1    3    3  501    0 -0.62927507943E+01  0.39117298636E+02  0.20064963800E+02  0.44659316356E+02  0.47000000000E+01 0. -1.
        -13    1    4    4    0    0 -0.88299827715E+01 -0.28927826156E+02  0.33276638413E+02  0.44968015143E+02  0.00000000000E+00 0.  1.
         14    1    4    4    0    0  0.10079655157E+03 -0.52802839686E+02  0.21114347807E+03  0.23985339902E+03  0.00000000000E+00 0. -1.
         -5    1    5    5    0  502 -0.31841982945E+02 -0.11673610853E+01  0.36865264321E+03  0.37005693610E+03  0.47000000000E+01 0.  1.
         13    1    6    6    0    0 -0.63644262091E+02  0.59877289815E+02  0.11129420833E+03  0.14150011569E+03  0.00000000000E+00 0. -1.
        -14    1    6    6    0    0  0.98124270326E+01 -0.16096561525E+02  0.25936174704E+02  0.32063502233E+02  0.00000000000E+00 0.  1.
</event>
<event>
12    1  0.8684423E-002  0.2407735E+03  0.7818608E-02  0.1119654E+00
         21   -1    0    0  501  502  0.00000000000E+00  0.00000000000E+00  0.49748836427E+03  0.49748836427E+03  0.00000000000E+00 0. -1.
         21   -1    0    0  502  503 -0.00000000000E+00 -0.00000000000E+00 -0.12568838535E+03  0.12568838535E+03  0.00000000000E+00 0. -1.
         -6    2    1    2    0  503 -0.13243828945E+03 -0.10585684113E+03  0.97732767499E+02  0.25985301050E+03  0.17095707618E+03 0.  0.
        -24    2    3    3    0    0 -0.88504135580E+02 -0.20851446976E+02 -0.15597616981E+01  0.12187756607E+03  0.81141502316E+02 0.  0.
          6    2    1    2  501    0  0.13243828945E+03  0.10585684113E+03  0.27406721142E+03  0.36332373912E+03  0.16776689693E+03 0.  0.
         24    2    5    5    0    0  0.30628995015E+02  0.28175511698E+02  0.18795452504E+03  0.20893136194E+03  0.81199850513E+02 0.  0.
          5    1    5    5  501    0  0.10180929443E+03  0.77681329433E+02  0.86112686375E+02  0.15439237718E+03  0.47000000000E+01 0. -1.
        -13    1    6    6    0    0  0.35893709009E+01  0.53656818255E+02  0.10254240752E+03  0.11578809554E+03  0.00000000000E+00 0.  1.
         14    1    6    6    0    0  0.27039624115E+02 -0.25481306557E+02  0.85412117521E+02  0.93143266399E+02  0.00000000000E+00 0. -1.
         -5    1    3    3    0  503 -0.43934153870E+02 -0.85005394156E+02  0.99292529197E+02  0.13797544443E+03  0.47000000000E+01 0.  1.
         13    1    4    4    0    0 -0.11290103613E+02 -0.27946973739E+02 -0.26800729314E+02  0.40333346904E+02  0.00000000000E+00 0. -1.
        -14    1    4    4    0    0 -0.77214031967E+02  0.70955267634E+01  0.25240967615E+02  0.81544219162E+02  0.00000000000E+00 0.  1.
</event>
<event>
12    1  0.8684423E-002  0.2007758E+03  0.7818608E-02  0.1149521E+00
         21   -1    0    0  503  502  0.00000000000E+00  0.00000000000E+00  0.22266177550E+02  0.22266177550E+02  0.00000000000E+00 0.  1.
         21   -1    0    0  501  503 -0.00000000000E+00 -0.00000000000E+00 -0.25044838579E+04  0.25044838579E+04  0.00000000000E+00 0.  1.
          6    2    1    2  501    0  0.42293008746E+02 -0.95752222765E+02 -0.19196020906E+04  0.19300733415E+04  0.17132930424E+03 0.  0.
         24    2    3    3    0    0  0.85494301662E+02 -0.41538627724E+02 -0.97700774094E+03  0.98492167978E+03  0.80572056168E+02 0.  0.
         -6    2    1    2    0  502 -0.42293008746E+02  0.95752222765E+02 -0.56261558978E+03  0.59667669400E+03  0.16890704115E+03 0.  0.
        -24    2    5    5    0    0 -0.32810843617E+02 -0.97351172278E+01 -0.17252312440E+03  0.19243454887E+03  0.78073703514E+02 0.  0.
          5    1    3    3  501    0 -0.43201292916E+02 -0.54213595040E+02 -0.94259434966E+03  0.94515166170E+03  0.47000000000E+01 0. -1.
        -11    1    4    4    0    0  0.50484963472E+01  0.11683630298E+02 -0.37660854449E+03  0.37682355329E+03  0.00000000000E+00 0.  1.
         12    1    4    4    0    0  0.80445805314E+02 -0.53222258023E+02 -0.60039919645E+03  0.60809812649E+03  0.00000000000E+00 0. -1.
         -5    1    5    5    0  502 -0.94821651292E+01  0.10548733999E+03 -0.39009246538E+03  0.40424214513E+03  0.47000000000E+01 0.  1.
         11    1    6    6    0    0 -0.32000844172E+02 -0.53445316178E+01 -0.18044642615E+03  0.18333993224E+03  0.00000000000E+00 0. -1.
        -12    1    6    6    0    0 -0.80999944477E+00 -0.43905856101E+01  0.79233017449E+01  0.90946166297E+01  0.00000000000E+00 0.  1.
</event>
<event>
12    1  0.8684423E-002  0.2031720E+03  0.7818608E-02  0.1147560E+00
         21   -1    0    0  501  502  0.00000000000E+00  0.00000000000E+00  0.60127597442E+02  0.60127597442E+02  0.00000000000E+00 0. -1.
         21   -1    0    0  502  503 -0.00000000000E+00 -0.00000000000E+00 -0.83908861257E+03  0.83908861257E+03  0.00000000000E+00 0.  1.
         -6    2    1    2    0  503  0.47800415891E+02 -0.96222730872E+02 -0.58768013877E+03  0.62180930652E+03  0.17243890071E+03 0.  0.
        -24    2    3    3    0    0 -0.26521821254E+02 -0.47662895369E+02 -0.14575739814E+03  0.17103258658E+03  0.70934955853E+02 0.  0.
          6    2    1    2  501    0 -0.47800415891E+02  0.96222730872E+02 -0.19128087636E+03  0.27740690349E+03  0.16977197280E+03 0.  0.
         24    2    5    5    0    0 -0.61814921438E+02  0.12800394283E+03 -0.14682668515E+03  0.22079668431E+03  0.83588315189E+02 0.  0.
          5    1    5    5  501    0  0.14014505547E+02 -0.31781211963E+02 -0.44454191208E+02  0.56610219179E+02  0.47000000000E+01 0. -1.
        -11    1    6    6    0    0 -0.39443613109E+02  0.12321130569E+02 -0.66152696504E+02  0.77998641836E+02  0.00000000000E+00 0.  1.
         12    1    6    6    0    0 -0.22371308329E+02  0.11568281227E+03 -0.80673988648E+02  0.14279804247E+03  0.00000000000E+00 0. -1.
         -5    1    3    3    0  503  0.74322237145E+02 -0.48559835503E+02 -0.44192274062E+03  0.45077671994E+03  0.47000000000E+01 0.  1.
         13    1    4    4    0    0 -0.40635609538E+02 -0.30934032172E+02 -0.13906341622E+03  0.14814452687E+03  0.00000000000E+00 0. -1.
        -14    1    4    4    0    0  0.14113788284E+02 -0.16728863196E+02 -0.66939819198E+01  0.22888059715E+02  0.00000000000E+00 0.  1.
</event>
<event>
12    1  0.8684423E-002  0.1847941E+03  0.7818608E-02  0.1163698E+00
         21   -1    0    0  501  502  0.00000000000E+00  0.00000000000E+00  0.21871160781E+03  0.21871160781E+03  0.00000000000E+00 0. -1.
         21   -1    0    0  502  503 -0.00000000000E+00 -0.00000000000E+00 -0.25819280981E+03  0.25819280981E+03  0.00000000000E+00 0.  1.
         -6    2    1    2    0  503 -0.51196376759E+02 -0.43312067083E+02 -0.17091339906E+03  0.25171460702E+03  0.17219712327E+03 0.  0.
        -24    2    3    3    0    0 -0.62899301533E+02  0.25262296851E+02 -0.63660423527E+02  0.12379004880E+03  0.81711816047E+02 0.  0.
          6    2    1    2  501    0  0.51196376759E+02  0.43312067083E+02  0.13143219706E+03  0.22518981061E+03  0.17011473842E+03 0.  0.
         24    2    5    5    0    0  0.38653663657E+02 -0.71787099223E+01  0.14547895563E+03  0.17109693084E+03  0.81020945572E+02 0.  0.
          5    1    5    5  501    0  0.12542713102E+02  0.50490777005E+02 -0.14046758576E+02  0.54092879763E+02  0.47000000000E+01 0. -1.
        -13    1    6    6    0    0  0.18129276357E+02  0.24432755913E+02  0.12408063007E+03  0.12775614655E+03  0.00000000000E+00 0.  1.
         14    1    6    6    0    0  0.20524387300E+02 -0.31611465835E+02  0.21398325565E+02  0.43340784295E+02  0.00000000000E+00 0. -1.
         -5    1    3    3    0  503  0.11702924774E+02 -0.68574363934E+02 -0.10725297553E+03  0.12792455822E+03  0.47000000000E+01 0.  1.
         13    1    4    4    0    0 -0.61126504626E+01  0.15462397953E+02  0.17573353954E+02  0.24192416484E+02  0.00000000000E+00 0. -1.
        -14    1    4    4    0    0 -0.56786651071E+02  0.97998988977E+01 -0.81233777482E+02  0.99597632312E+02  0.00000000000E+00 0.  1.
</event>
<event>
12    1  0.8684423E-002  0.4760273E+03  0.7818608E-02  0.1020252E+00
         21   -1    0    0  501  502  0.00000000000E+00  0.00000000000E+00  0.27590808193E+03  0.27590808193E+03  0.00000000000E+00 0.  1.
         21   -1    0    0  502  503 -0.00000000000E+00 -0.00000000000E+00 -0.17739046181E+04  0.17739046181E+04  0.00000000000E+00 0. -1.
         -6    2    1    2    0  503  0.22991530558E+03  0.37925148343E+03  0.23483632057E+01  0.47576163066E+03  0.17219430586E+03 0.  0.
        -24    2    3    3    0    0  0.60849597401E+02  0.13724333635E+03 -0.48780142331E+02  0.17611622186E+03  0.78096187104E+02 0.  0.
          6    2    1    2  501    0 -0.22991530558E+03 -0.37925148343E+03 -0.15003448994E+04  0.15740510694E+04  0.17294281283E+03 0.  0.
         24    2    5    5    0    0 -0.30241030717E+02 -0.95823308036E+02 -0.46731817438E+03  0.48438706098E+03  0.78408688526E+02 0.  0.
          5    1    5    5  501    0 -0.19967427486E+03 -0.28342817539E+03 -0.10330267250E+04  0.10896640084E+04  0.47000000000E+01 0. -1.
        -13    1    6    6    0    0 -0.71215852012E+01 -0.92432618623E+02 -0.26548876981E+03  0.28120951772E+03  0.00000000000E+00 0.  1.
         14    1    6    6    0    0 -0.23119445516E+02 -0.33906894131E+01 -0.20182940457E+03  0.20317754326E+03  0.00000000000E+00 0. -1.
         -5    1    3    3    0  503  0.16906570818E+03  0.24200814708E+03  0.51128505536E+02  0.29964540879E+03  0.47000000000E+01 0.  1.
         13    1    4    4    0    0 -0.18327260557E+02  0.22070529269E+02 -0.21042989837E+01  0.28764992890E+02  0.00000000000E+00 0. -1.
        -14    1    4    4    0    0  0.79176857958E+02  0.11517280709E+03 -0.46675843347E+02  0.14735122897E+03  0.00000000000E+00 0.  1.
</event>
<event>
12    1  0.8684423E-002  0.8630197E+03  0.7818608E-02  0.9473045E-01
         21   -1    0    0  503  502  0.00000000000E+00  0.00000000000E+00  0.15561625210E+04  0.15561625210E+04  0.00000000000E+00 0.  1.
         21   -1    0    0  501  503 -0.00000000000E+00 -0.00000000000E+00 -0.48935536611E+03  0.48935536611E+03  0.00000000000E+00 0. -1.
          6    2    1    2  501    0  0.80542369802E+03  0.25759211354E+03  0.68511929282E+03  0.11018608568E+04  0.17218557415E+03 0.  0.
         24    2    3    3    0    0  0.53549161277E+03  0.10354379349E+03  0.41344601168E+03  0.68903804095E+03  0.79769873909E+02 0.  0.
         -6    2    1    2    0  502 -0.80542369802E+03 -0.25759211354E+03  0.38168786211E+03  0.94365703041E+03  0.17245850706E+03 0.  0.
        -24    2    5    5    0    0 -0.69254422042E+03 -0.18102609467E+03  0.28473310043E+03  0.77624601666E+03  0.95378172116E+02 0.  0.
          5    1    3    3  501    0  0.26993208526E+03  0.15404832005E+03  0.27167328114E+03  0.41282281580E+03  0.47000000000E+01 0. -1.
        -11    1    4    4    0    0  0.18530150007E+03  0.35127717283E+02  0.19177467499E+03  0.26897607406E+03  0.00000000000E+00 0.  1.
         12    1    4    4    0    0  0.35019011270E+03  0.68416076206E+02  0.22167133669E+03  0.42006196689E+03  0.00000000000E+00 0. -1.
         -5    1    5    5    0  502 -0.11287947760E+03 -0.76566018873E+02  0.96954761685E+02  0.16741101375E+03  0.47000000000E+01 0.  1.
         11    1    6    6    0    0 -0.48548232932E+03 -0.15874088953E+03  0.23440079518E+03  0.56199243311E+03  0.00000000000E+00 0. -1.
        -12    1    6    6    0    0 -0.20706189110E+03 -0.22285205136E+02  0.50332305251E+02  0.21425358355E+03  0.00000000000E+00 0.  1.
</event>
<event>
12    1  0.8684423E-002  0.2170320E+03  0.7818608E-02  0.1136389E+00
         21   -1    0    0  501  502  0.00000000000E+00  0.00000000000E+00  0.20425139988E+03  0.20425139988E+03  0.00000000000E+00 0. -1.
         21   -1    0    0  502  503 -0.00000000000E+00 -0.00000000000E+00 -0.22980397893E+03  0.22980397893E+03  0.00000000000E+00 0. -1.
         -6    2    1    2    0  503  0.62343597384E+02 -0.11489044639E+03 -0.24850633026E+02  0.21702219629E+03  0.17144836224E+03 0.  0.
        -24    2    3    3    0    0  0.10024852420E+03 -0.65131959805E+02  0.11974808688E+02  0.14428366715E+03  0.79890185697E+02 0.  0.
          6    2    1    2  501    0 -0.62343597384E+02  0.11489044639E+03 -0.70194602503E+00  0.21703318251E+03  0.17325233267E+03 0.  0.
         24    2    5    5    0    0 -0.11046884846E+02  0.10185134028E+03  0.57006614166E+02  0.13858741192E+03  0.73898494578E+02 0.  0.
          5    1    5    5  501    0 -0.51296712538E+02  0.13039106108E+02 -0.57708560191E+02  0.78445770598E+02  0.47000000000E+01 0. -1.
        -11    1    6    6    0    0  0.70308095802E+01 -0.10435754342E+02  0.59973169662E+01  0.13939335093E+02  0.00000000000E+00 0.  1.
         12    1    6    6    0    0 -0.18077694426E+02  0.11228709462E+03  0.51009297200E+02  0.12464807682E+03  0.00000000000E+00 0. -1.
         -5    1    3    3    0  503 -0.37904926816E+02 -0.49758486584E+02 -0.36825441715E+02  0.72738529141E+02  0.47000000000E+01 0.  1.
         11    1    4    4    0    0  0.14784465137E+02 -0.54858222684E+02 -0.30745669157E+01  0.56898664019E+02  0.00000000000E+00 0. -1.
        -12    1    4    4    0    0  0.85464059064E+02 -0.10273737120E+02  0.15049375604E+02  0.87385003130E+02  0.00000000000E+00 0.  1.
</event>
<event>
12    1  0.8684423E-002  0.1845084E+03  0.7818608E-02  0.1165142E+00
         21   -1    0    0  501  502  0.00000000000E+00  0.00000000000E+00  0.16809322597E+03  0.16809322597E+03  0.00000000000E+00 0. -1.
         21   -1    0    0  502  503 -0.00000000000E+00 -0.00000000000E+00 -0.27481650377E+03  0.27481650377E+03  0.00000000000E+00 0.  1.
         -6    2    1    2    0  503  0.47380228554E+02  0.45116150340E+02 -0.17190362504E+03  0.24722677256E+03  0.16519645181E+03 0.  0.
        -24    2    3    3    0    0  0.78362082111E+02 -0.11024603300E+02 -0.95082295331E+02  0.14705059692E+03  0.79505203464E+02 0.  0.
          6    2    1    2  501    0 -0.47380228554E+02 -0.45116150340E+02  0.65180347231E+02  0.19568295717E+03  0.17251953218E+03 0.  0.
         24    2    5    5    0    0 -0.61767468041E+02 -0.58340613951E+02  0.10092017540E+03  0.15467924496E+03  0.80758526945E+02 0.  0.
          5    1    5    5  501    0  0.14387239487E+02  0.13224463611E+02 -0.35739828167E+02  0.41003712213E+02  0.47000000000E+01 0. -1.
        -13    1    6    6    0    0  0.13154893957E+02 -0.13943495314E+02 -0.26592241801E+01  0.19353133334E+02  0.00000000000E+00 0.  1.
         14    1    6    6    0    0 -0.74922361998E+02 -0.44397118638E+02  0.10357939958E+03  0.13532611163E+03  0.00000000000E+00 0. -1.
         -5    1    3    3    0  503 -0.30981853557E+02  0.56140753641E+02 -0.76821329706E+02  0.10017617565E+03  0.47000000000E+01 0.  1.
         11    1    4    4    0    0  0.37091156423E+02  0.15691684375E+02 -0.29839009619E+00  0.40274953507E+02  0.00000000000E+00 0. -1.
        -12    1    4    4    0    0  0.41270925688E+02 -0.26716287676E+02 -0.94783905235E+02  0.10677564341E+03  0.00000000000E+00 0.  1.
</event>
<event>
12    1  0.8684423E-002  0.2323358E+03  0.7818608E-02  0.1125202E+00
         21   -1    0    0  501  502  0.00000000000E+00  0.00000000000E+00  0.25447304084E+03  0.25447304084E+03  0.00000000000E+00 0. -1.
         21   -1    0    0  502  503 -0.00000000000E+00 -0.00000000000E+00 -0.43767681652E+03  0.43767681652E+03  0.00000000000E+00 0.  1.
         -6    2    1    2    0  503 -0.12126122238E+03 -0.95519331925E+02 -0.34070818553E+03  0.41238572337E+03  0.17364242088E+03 0.  0.
        -24    2    3    3    0    0 -0.29697229446E+02 -0.20918177226E+02 -0.57151105253E+02  0.10517894470E+03  0.80478978633E+02 0.  0.
          6    2    1    2  501    0  0.12126122238E+03  0.95519331925E+02  0.15750440985E+03  0.27976413398E+03  0.17213978249E+03 0.  0.
         24    2    5    5    0    0 -0.28718345517E+01  0.62574309505E+02  0.54477123645E+02  0.11504891905E+03  0.79653657358E+02 0.  0.
          5    1    5    5  501    0  0.12413305694E+03  0.32945022420E+02  0.10302728621E+03  0.16471521493E+03  0.47000000000E+01 0. -1.
        -13    1    6    6    0    0  0.99589211281E+00 -0.15494259035E+02 -0.55567871160E+01  0.16490656360E+02  0.00000000000E+00 0.  1.
         14    1    6    6    0    0 -0.38677266645E+01  0.78068568540E+02  0.60033910761E+02  0.98558262691E+02  0.00000000000E+00 0. -1.
         -5    1    3    3    0  503 -0.91563992939E+02 -0.74601154699E+02 -0.28355708028E+03  0.30720677867E+03  0.47000000000E+01 0.  1.
         11    1    4    4    0    0 -0.30816424587E+02  0.20362863425E+02 -0.51678965448E+02  0.63521757698E+02  0.00000000000E+00 0. -1.
        -12    1    4    4    0    0  0.11191951417E+01 -0.41281040651E+02 -0.54721398047E+01  0.41657187004E+02  0.00000000000E+00 0.  1.
</event>
<event>
12    1  0.8684423E-002  0.1939014E+03  0.7818608E-02  0.1155012E+00
         21   -1    0    0  501  502  0.00000000000E+00  0.00000000000E+00  0.15124267545E+04  0.15124267545E+04  0.00000000000E+00 0. -1.
         21   -1    0    0  502  503 -0.00000000000E+00 -0.00000000000E+00 -0.46057764782E+02  0.46057764782E+02  0.00000000000E+00 0. -1.
         -6    2    1    2    0  503  0.21107922775E+02 -0.87905941929E+02  0.20446740351E+03  0.28178833348E+03  0.17153642982E+03 0.  0.
        -24    2    3    3    0    0  0.28149216444E+02 -0.12540544488E+03  0.13485446189E+03  0.20226573179E+03  0.78783223930E+02 0.  0.
          6    2    1    2  501    0 -0.21107922775E+02  0.87905941929E+02  0.12619015862E+04  0.12766961858E+04  0.17141918955E+03 0.  0.
         24    2    5    5    0    0  0.55638158599E+01  0.37647731730E+02  0.30632134978E+03  0.31941203384E+03  0.82115591001E+02 0.  0.
          5    1    5    5  501    0 -0.26671738635E+02  0.50258210199E+02  0.95558023645E+03  0.95728415197E+03  0.47000000000E+01 0. -1.
        -11    1    6    6    0    0 -0.36023969360E+00 -0.23564797130E+02  0.43316560095E+02  0.49312815929E+02  0.00000000000E+00 0.  1.
         12    1    6    6    0    0  0.59240555535E+01  0.61212528861E+02  0.26300478968E+03  0.27009921792E+03  0.00000000000E+00 0. -1.
         -5    1    3    3    0  503 -0.70412936684E+01  0.37499502950E+02  0.69612941626E+02  0.79522601692E+02  0.47000000000E+01 0.  1.
         13    1    4    4    0    0  0.55774866035E+01 -0.75938527944E+02  0.25778123374E+02  0.80388307780E+02  0.00000000000E+00 0. -1.
        -14    1    4    4    0    0  0.22571729840E+02 -0.49466916935E+02  0.10907633851E+03  0.12187742401E+03  0.00000000000E+00 0.  1.
</event>
<event>
12    1  0.8684423E-002  0.2132763E+03  0.7818608E-02  0.1139031E+00
         21   -1    0    0  501  502  0.00000000000E+00  0.00000000000E+00  0.58361839693E+02  0.58361839693E+02  0.00000000000E+00 0. -1.
         21   -1    0    0  502  503 -0.00000000000E+00 -0.00000000000E+00 -0.11768793703E+04  0.11768793703E+04  0.00000000000E+00 0.  1.
         -6    2    1    2    0  503  0.78879713198E+02  0.10030101924E+03 -0.91862620022E+03  0.94305932515E+03  0.17089321639E+03 0.  0.
        -24    2    3    3    0    0 -0.22635454359E+02  0.83276373645E+01 -0.23137458906E+03  0.24227312433E+03  0.67678305034E+02 0.  0.
          6    2    1    2  501    0 -0.78879713198E+02 -0.10030101924E+03 -0.19989133042E+03  0.29218188487E+03  0.17067924963E+03 0.  0.
         24    2    5    5    0    0 -0.44541217962E+02  0.64876049809E+01 -0.48966839742E+02  0.10407756699E+03  0.80052354377E+02 0.  0.
          5    1    5    5  501    0 -0.34338495237E+02 -0.10678862422E+03 -0.15092449068E+03  0.18810431788E+03  0.47000000000E+01 0. -1.
        -13    1    6    6    0    0 -0.14571074358E+02  0.25676260951E+02 -0.59957940643E+02  0.66832187085E+02  0.00000000000E+00 0.  1.
         14    1    6    6    0    0 -0.29970143604E+02 -0.19188655970E+02  0.10991100901E+02  0.37245379910E+02  0.00000000000E+00 0. -1.
         -5    1    3    3    0  503  0.10151516756E+03  0.91973381876E+02 -0.68725161116E+03  0.70078620082E+03  0.47000000000E+01 0.  1.
         13    1    4    4    0    0 -0.42508458087E+02  0.14390624888E+02 -0.19749565494E+03  0.20253047379E+03  0.00000000000E+00 0. -1.
        -14    1    4    4    0    0  0.19873003728E+02 -0.60629875238E+01 -0.33878934123E+02  0.39742650543E+02  0.00000000000E+00 0.  1.
</event>
<event>
12    1  0.8684423E-002  0.1778276E+03  0.7818608E-02  0.1170410E+00
         21   -1    0    0  501  502  0.00000000000E+00  0.00000000000E+00  0.50204485021E+03  0.50204485021E+03  0.00000000000E+00 0.  1.
         21   -1    0    0  502  503 -0.00000000000E+00 -0.00000000000E+00 -0.29278682781E+03  0.29278682781E+03  0.00000000000E+00 0.  1.
         -6    2    1    2    0  503 -0.39898789936E+02 -0.22686428853E+02 -0.24786082987E+03  0.30505351999E+03  0.17180242018E+03 0.  0.
        -24    2    3    3    0    0  0.72524322568E+01  0.33792433920E+02 -0.20066762875E+03  0.21751845315E+03  0.76500025283E+02 0.  0.
          6    2    1    2  501    0  0.39898789936E+02  0.22686428853E+02  0.45711885227E+03  0.48977815803E+03  0.16975986418E+03 0.  0.
         24    2    5    5    0    0  0.69105070046E+02  0.30222646410E+02  0.44251112567E+03  0.45593621587E+03  0.79829928806E+02 0.  0.
          5    1    5    5  501    0 -0.29206280110E+02 -0.75362175568E+01  0.14607726602E+02  0.33841942164E+02  0.47000000000E+01 0. -1.
        -11    1    6    6    0    0  0.27550118920E+02  0.52378682019E+02  0.30197686916E+03  0.30772157040E+03  0.00000000000E+00 0.  1.
         12    1    6    6    0    0  0.41554951126E+02 -0.22156035609E+02  0.14053425651E+03  0.14821464546E+03  0.00000000000E+00 0. -1.
         -5    1    3    3    0  503 -0.47151222193E+02 -0.56478862773E+02 -0.47193201116E+02  0.87535066836E+02  0.47000000000E+01 0.  1.
         13    1    4    4    0    0  0.26955065334E+02  0.32955149442E+02 -0.50458228569E+02  0.66020074616E+02  0.00000000000E+00 0. -1.
        -14    1    4    4    0    0 -0.19702633077E+02  0.83728447720E+00 -0.15020940018E+03  0.15149837854E+03  0.00000000000E+00 0.  1.
</event>
<event>
12    1  0.8684423E-002  0.1849408E+03  0.7818608E-02  0.1163310E+00
         21   -1    0    0  503  502  0.00000000000E+00  0.00000000000E+00  0.20449818609E+03  0.20449818609E+03  0.00000000000E+00 0. -1.
         21   -1    0    0  501  503 -0.00000000000E+00 -0.00000000000E+00 -0.19005365426E+03  0.19005365426E+03  0.00000000000E+00 0. -1.
          6    2    1    2  501    0  0.53904653903E+02  0.37825722381E+02 -0.62265822614E+02  0.19514131326E+03  0.17281956628E+03 0.  0.
         24    2    3    3    0    0 -0.30215787531E+02  0.50058409381E+02 -0.38181863016E+02  0.10666524640E+03  0.80627426844E+02 0.  0.
         -6    2    1    2    0  502 -0.53904653903E+02 -0.37825722381E+02  0.76710354448E+02  0.19941052709E+03  0.17188246813E+03 0.  0.
        -24    2    5    5    0    0 -0.30844737660E+02 -0.10979037886E+02  0.11693995767E+03  0.14562377054E+03  0.80370341126E+02 0.  0.
          5    1    3    3  501    0  0.84120441434E+02 -0.12232687000E+02 -0.24083959597E+02  0.88476066866E+02  0.47000000000E+01 0. -1.
        -11    1    4    4    0    0 -0.14377806082E+02  0.68797865832E+02 -0.12943583606E+02  0.71466103905E+02  0.00000000000E+00 0.  1.
         12    1    4    4    0    0 -0.15837981449E+02 -0.18739456452E+02 -0.25238279411E+02  0.35199142491E+02  0.00000000000E+00 0. -1.
         -5    1    5    5    0  502 -0.23059916243E+02 -0.26846684495E+02 -0.40229603217E+02  0.53786756553E+02  0.47000000000E+01 0.  1.
         13    1    6    6    0    0 -0.54430197979E+02 -0.23910944748E+02  0.73546958707E+02  0.94570264173E+02  0.00000000000E+00 0. -1.
        -14    1    6    6    0    0  0.23585460319E+02  0.12931906862E+02  0.43392998959E+02  0.51053506365E+02  0.00000000000E+00 0.  1.
</event>
<event>
12    1  0.8684423E-002  0.2071885E+03  0.7818608E-02  0.1143966E+00
         21   -1    0    0  503  502  0.00000000000E+00  0.00000000000E+00  0.16272731097E+03  0.16272731097E+03  0.00000000000E+00 0.  1.
         21   -1    0    0  501  503 -0.00000000000E+00 -0.00000000000E+00 -0.28614647665E+03  0.28614647665E+03  0.00000000000E+00 0.  1.
          6    2    1    2  501    0 -0.17153462151E+02 -0.11367795840E+03  0.22589411965E+01  0.20720078181E+03  0.17236630087E+03 0.  0.
         24    2    3    3    0    0  0.24211911697E+02 -0.10125723686E+03  0.45880664120E+02  0.14563526233E+03  0.90913968182E+02 0.  0.
         -6    2    1    2    0  502  0.17153462151E+02  0.11367795840E+03 -0.12567810688E+03  0.24167300581E+03  0.17144659723E+03 0.  0.
        -24    2    5    5    0    0 -0.78436131792E+01  0.82134566205E+02 -0.15393473173E+03  0.19227294292E+03  0.80407547609E+02 0.  0.
          5    1    3    3  501    0 -0.41365373848E+02 -0.12420721543E+02 -0.43621722924E+02  0.61565519474E+02  0.47000000000E+01 0. -1.
        -13    1    4    4    0    0 -0.25245416881E+02 -0.80859207918E+02  0.27179914185E+02  0.88962297148E+02  0.00000000000E+00 0.  1.
         14    1    4    4    0    0  0.49457328578E+02 -0.20398028938E+02  0.18700749935E+02  0.56672965184E+02  0.00000000000E+00 0. -1.
         -5    1    5    5    0  502  0.24997075330E+02  0.31543392194E+02  0.28256624850E+02  0.49400062896E+02  0.47000000000E+01 0.  1.
         13    1    6    6    0    0 -0.35402658401E+02  0.79685019541E+02 -0.12298448303E+03  0.15075885920E+03  0.00000000000E+00 0. -1.
        -14    1    6    6    0    0  0.27559045222E+02  0.24495466641E+01 -0.30950248691E+02  0.41514083712E+02  0.00000000000E+00 0.  1.
</event>
<event>
12    1  0.8684423E-002  0.2118373E+03  0.7818608E-02  0.1140917E+00
         21   -1    0    0  503  502  0.00000000000E+00  0.00000000000E+00  0.62306752743E+02  0.62306752743E+02  0.00000000000E+00 0. -1.
         21   -1    0    0  501  503 -0.00000000000E+00 -0.00000000000E+00 -0.25410253906E+04  0.25410253906E+04  0.00000000000E+00 0. -1.
          6    2    1    2  501    0 -0.43332173823E+02 -0.10796374509E+03 -0.23486393224E+04  0.23581733825E+04  0.17703442565E+03 0.  0.
         24    2    3    3    0    0  0.24337187814E+02 -0.99197256199E+01 -0.65507313872E+03  0.66041595559E+03  0.79609783706E+02 0.  0.
         -6    2    1    2    0  502  0.43332173823E+02  0.10796374509E+03 -0.13007931553E+03  0.24515876088E+03  0.17218693959E+03 0.  0.
        -24    2    5    5    0    0  0.92166754548E+02  0.46121813927E+02 -0.74642694202E+02  0.14869866701E+03  0.76927429497E+02 0.  0.
          5    1    3    3  501    0 -0.67669361637E+02 -0.98044019465E+02 -0.16935661836E+04  0.16977574269E+04  0.47000000000E+01 0. -1.
        -13    1    4    4    0    0  0.41550618490E+02 -0.26647630659E+02 -0.26191622880E+03  0.26652703620E+03  0.00000000000E+00 0.  1.
         14    1    4    4    0    0 -0.17213430676E+02  0.16727905039E+02 -0.39315690992E+03  0.39388891939E+03  0.00000000000E+00 0. -1.
         -5    1    5    5    0  502 -0.48834580726E+02  0.61841931159E+02 -0.55436621332E+02  0.96460093867E+02  0.47000000000E+01 0.  1.
         13    1    6    6    0    0  0.28792637559E+02  0.54088067992E+02 -0.53713783223E+02  0.81484388596E+02  0.00000000000E+00 0. -1.
        -14    1    6    6    0    0  0.63374116990E+02 -0.79662540648E+01 -0.20928910979E+02  0.67214278414E+02  0.00000000000E+00 0.  1.
</event>
<event>
12    1  0.8684423E-002  0.2137313E+03  0.7818608E-02  0.1138652E+00
         21   -1    0    0  501  502  0.00000000000E+00  0.00000000000E+00  0.36267544686E+03  0.36267544686E+03  0.00000000000E+00 0.  1.
         21   -1    0    0  502  503 -0.00000000000E+00 -0.00000000000E+00 -0.32218857013E+03  0.32218857013E+03  0.00000000000E+00 0.  1.
         -6    2    1    2    0  503  0.12589190034E+03 -0.12890135700E+02 -0.24701352955E+03  0.32664466308E+03  0.17223857282E+03 0.  0.
        -24    2    3    3    0    0  0.60623922898E+02 -0.73357822023E+02 -0.14727771314E+03  0.19290770842E+03  0.80411622904E+02 0.  0.
          6    2    1    2  501    0 -0.12589190034E+03  0.12890135700E+02  0.28750040628E+03  0.35821935391E+03  0.17219087008E+03 0.  0.
         24    2    5    5    0    0 -0.13394648737E+02 -0.12119243853E+02  0.19226271651E+03  0.20864192167E+03  0.78994978529E+02 0.  0.
          5    1    5    5  501    0 -0.11249725160E+03  0.25009379553E+02  0.95237689767E+02  0.14957743224E+03  0.47000000000E+01 0. -1.
        -13    1    6    6    0    0 -0.19941988831E+00  0.33517702167E+02  0.81102807038E+02  0.87756147570E+02  0.00000000000E+00 0.  1.
         14    1    6    6    0    0 -0.13195228849E+02 -0.45636946020E+02  0.11115990947E+03  0.12088577410E+03  0.00000000000E+00 0. -1.
         -5    1    3    3    0  503  0.65267977441E+02  0.60467686323E+02 -0.99735816404E+02  0.13373695466E+03  0.47000000000E+01 0.  1.
         11    1    4    4    0    0  0.57137804106E+02 -0.19925840622E+02 -0.38657177934E+02  0.71806303264E+02  0.00000000000E+00 0. -1.
        -12    1    4    4    0    0  0.34861187921E+01 -0.53431981400E+02 -0.10862053521E+03  0.12110140515E+03  0.00000000000E+00 0.  1.
</event>
<event>
12    1  0.8684423E-002  0.1809550E+03  0.7818608E-02  0.1166978E+00
         21   -1    0    0  503  502  0.00000000000E+00  0.00000000000E+00  0.14667093935E+03  0.14667093935E+03  0.00000000000E+00 0.  1.
         21   -1    0    0  501  503 -0.00000000000E+00 -0.00000000000E+00 -0.56902485747E+03  0.56902485747E+03  0.00000000000E+00 0.  1.
          6    2    1    2  501    0  0.41783438576E+02  0.38383899015E+02 -0.49041830055E+03  0.52273783010E+03  0.17183000338E+03 0.  0.
         24    2    3    3    0    0  0.45095172288E+02  0.70511197654E+02 -0.20725808626E+03  0.23770287109E+03  0.80878532680E+02 0.  0.
         -6    2    1    2    0  502 -0.41783438576E+02 -0.38383899015E+02  0.68064382431E+02  0.19295796672E+03  0.17140839338E+03 0.  0.
        -24    2    5    5    0    0  0.32233546647E+02 -0.37720000963E+02 -0.84072232534E+00  0.91720827669E+02  0.77137561616E+02 0.  0.
          5    1    3    3  501    0 -0.33117337119E+01 -0.32127298638E+02 -0.28316021429E+03  0.28503495900E+03  0.47000000000E+01 0. -1.
        -11    1    4    4    0    0  0.23395976822E+02  0.66750115002E+02 -0.20339654386E+03  0.21534415162E+03  0.00000000000E+00 0.  1.
         12    1    4    4    0    0  0.21699195466E+02  0.37610826519E+01 -0.38615423962E+01  0.22358719468E+02  0.00000000000E+00 0. -1.
         -5    1    5    5    0  502 -0.74016985222E+02 -0.66389805250E+00  0.68905104756E+02  0.10123713905E+03  0.47000000000E+01 0.  1.
         11    1    6    6    0    0  0.49920396490E+02 -0.47344472021E+02  0.88619690504E+01  0.69369153895E+02  0.00000000000E+00 0. -1.
        -12    1    6    6    0    0 -0.17686849844E+02  0.96244710577E+01 -0.97026913758E+01  0.22351673773E+02  0.00000000000E+00 0.  1.
</event>
<event>
12    1  0.8684423E-002  0.2015724E+03  0.7818608E-02  0.1148607E+00
         21   -1    0    0  501  502  0.00000000000E+00  0.00000000000E+00  0.10530861740E+04  0.10530861740E+04  0.00000000000E+00 0.  1.
         21   -1    0    0  502  503 -0.00000000000E+00 -0.00000000000E+00 -0.38552594054E+02  0.38552594054E+02  0.00000000000E+00 0.  1.
         -6    2    1    2    0  503  0.18646561140E+02  0.10424976986E+03  0.47312748385E+03  0.51392604260E+03  0.17045425347E+03 0.  0.
        -24    2    3    3    0    0  0.93233125646E+01  0.46330761182E+02  0.95891981021E+02  0.13212734024E+03  0.77645981381E+02 0.  0.
          6    2    1    2  501    0 -0.18646561140E+02 -0.10424976986E+03  0.54140609611E+03  0.57771272547E+03  0.17151012655E+03 0.  0.
         24    2    5    5    0    0 -0.10065273629E+02  0.12835701578E+02  0.26640033017E+03  0.27865937335E+03  0.80098972975E+02 0.  0.
          5    1    5    5  501    0 -0.85812875114E+01 -0.11708547143E+03  0.27500576593E+03  0.29905335212E+03  0.47000000000E+01 0. -1.
        -13    1    6    6    0    0 -0.16081417389E+02 -0.31348075767E+02  0.14812432649E+03  0.15225678946E+03  0.00000000000E+00 0.  1.
         14    1    6    6    0    0  0.60161437601E+01  0.44183777345E+02  0.11827600369E+03  0.12640258389E+03  0.00000000000E+00 0. -1.
         -5    1    3    3    0  503  0.93232485758E+01  0.57919008673E+02  0.37723550283E+03  0.38179870236E+03  0.47000000000E+01 0.  1.
         13    1    4    4    0    0 -0.23357547378E+02  0.52468433045E+01  0.13373084936E+01  0.23976921783E+02  0.00000000000E+00 0. -1.
        -14    1    4    4    0    0  0.32680859942E+02  0.41083917877E+02  0.94554672528E+02  0.10815041845E+03  0.00000000000E+00 0.  1.
</event>
<event>
12    1  0.8684423E-002  0.1878571E+03  0.7818608E-02  0.1160801E+00
         21   -1    0    0  503  502  0.00000000000E+00  0.00000000000E+00  0.52810807216E+03  0.52810807216E+03  0.00000000000E+00 0. -1.
         21   -1    0    0  501  503 -0.00000000000E+00 -0.00000000000E+00 -0.11937930716E+03  0.11937930716E+03  0.00000000000E+00 0. -1.
          6    2    1    2  501    0  0.73435060556E+02 -0.98088373928E+01 -0.12192994957E+02  0.18654765001E+03  0.17077012381E+03 0.  0.
         24    2    3    3    0    0  0.17927754712E+02  0.33749482081E+02  0.40627763648E+02  0.98283780066E+02  0.80923756185E+02 0.  0.
         -6    2    1    2    0  502 -0.73435060556E+02  0.98088373928E+01  0.42092175996E+03  0.46093972931E+03  0.17263077547E+03 0.  0.
        -24    2    5    5    0    0 -0.10944471942E+03  0.34805268480E+02  0.35262881432E+03  0.37965299286E+03  0.81238912951E+02 0.  0.
          5    1    3    3  501    0  0.55507305844E+02 -0.43558319474E+02 -0.52820758605E+02  0.88263869942E+02  0.47000000000E+01 0. -1.
        -13    1    4    4    0    0 -0.24828354372E+02 -0.10057850736E+02  0.43837713414E+01  0.27144520505E+02  0.00000000000E+00 0.  1.
         14    1    4    4    0    0  0.42756109084E+02  0.43807332817E+02  0.36243992307E+02  0.71139259561E+02  0.00000000000E+00 0. -1.
         -5    1    5    5    0  502  0.36009658859E+02 -0.24996431087E+02  0.68292945632E+02  0.81286736442E+02  0.47000000000E+01 0.  1.
         13    1    6    6    0    0 -0.51666830042E+02  0.45825528680E+02  0.26687035876E+03  0.27566143871E+03  0.00000000000E+00 0. -1.
        -14    1    6    6    0    0 -0.57777889373E+02 -0.11020260200E+02  0.85758455564E+02  0.10399155416E+03  0.00000000000E+00 0.  1.
</event>
<event>
12    1  0.8684423E-002  0.2158173E+03  0.7818608E-02  0.1137091E+00
         21   -1    0    0  501  502  0.00000000000E+00  0.00000000000E+00  0.97880620836E+03  0.97880620836E+03  0.00000000000E+00 0.  1.
         21   -1    0    0  502  503 -0.00000000000E+00 -0.00000000000E+00 -0.13619655444E+03  0.13619655444E+03  0.00000000000E+00 0. -1.
         -6    2    1    2    0  503 -0.12668437051E+03 -0.28223719202E+02 -0.28436388837E+02  0.21768262556E+03  0.17242850461E+03 0.  0.
        -24    2    3    3    0    0 -0.11507273659E+03  0.22772959631E+02  0.23153537461E+02  0.14406807680E+03  0.80369036682E+02 0.  0.
          6    2    1    2  501    0  0.12668437051E+03  0.28223719202E+02  0.87104604275E+03  0.89732013724E+03  0.17209506689E+03 0.  0.
         24    2    5    5    0    0  0.82311301052E+02 -0.10264048574E+02  0.78259641937E+03  0.79103889037E+03  0.80030428463E+02 0.  0.
          5    1    5    5  501    0  0.44373069460E+02  0.38487767776E+02  0.88449623379E+02  0.10628124688E+03  0.47000000000E+01 0. -1.
        -11    1    6    6    0    0  0.51042489007E+02 -0.42775284359E+02  0.36619139461E+03  0.37219779435E+03  0.00000000000E+00 0.  1.
         12    1    6    6    0    0  0.31268812044E+02  0.32511235785E+02  0.41640502477E+03  0.41884109601E+03  0.00000000000E+00 0. -1.
         -5    1    3    3    0  503 -0.11611633917E+02 -0.50996678833E+02 -0.51589926297E+02  0.73614548763E+02  0.47000000000E+01 0.  1.
         11    1    4    4    0    0 -0.66224359262E+01 -0.23304749095E+02  0.63247535377E+01  0.25039378892E+02  0.00000000000E+00 0. -1.
        -12    1    4    4    0    0 -0.10845030067E+03  0.46077708727E+02  0.16828783923E+02  0.11902869790E+03  0.00000000000E+00 0.  1.
</event>
<event>
12    1  0.8684423E-002  0.1754788E+03  0.7818608E-02  0.1172313E+00
         21   -1    0    0  503  502  0.00000000000E+00  0.00000000000E+00  0.23456360743E+03  0.23456360743E+03  0.00000000000E+00 0.  1.
         21   -1    0    0  501  503 -0.00000000000E+00 -0.00000000000E+00 -0.63215585212E+03  0.63215585212E+03  0.00000000000E+00 0.  1.
          6    2    1    2  501    0 -0.33922413355E+00 -0.34236227086E+02 -0.58464327076E+03  0.61041017205E+03  0.17210633277E+03 0.  0.
         24    2    3    3    0    0 -0.40567985172E+02  0.32777345074E+02 -0.37876406116E+03  0.39014326347E+03  0.77649444532E+02 0.  0.
         -6    2    1    2    0  502  0.33922413355E+00  0.34236227086E+02  0.18705102608E+03  0.25630928750E+03  0.17185496846E+03 0.  0.
        -24    2    5    5    0    0  0.52473534071E+02 -0.17362970612E+02  0.13670168747E+03  0.16721602528E+03  0.78860022982E+02 0.  0.
          5    1    3    3  501    0  0.40228761039E+02 -0.67013572160E+02 -0.20587920960E+03  0.22026690858E+03  0.47000000000E+01 0. -1.
        -11    1    4    4    0    0 -0.55323207138E+02  0.20959029201E+02 -0.16039783770E+03  0.17096024243E+03  0.00000000000E+00 0.  1.
         12    1    4    4    0    0  0.14755221966E+02  0.11818315873E+02 -0.21836622346E+03  0.21918302104E+03  0.00000000000E+00 0. -1.
         -5    1    5    5    0  502 -0.52134309937E+02  0.51599197697E+02  0.50349338603E+02  0.89093262222E+02  0.47000000000E+01 0.  1.
         13    1    6    6    0    0 -0.70912931148E+01 -0.18358063899E+02  0.18197569427E+01  0.19764019416E+02  0.00000000000E+00 0. -1.
        -14    1    6    6    0    0  0.59564827186E+02  0.99509328756E+00  0.13488193053E+03  0.14745200586E+03  0.00000000000E+00 0.  1.
</event>
<event>
12    1  0.8684423E-002  0.2123899E+03  0.7818608E-02  0.1139775E+00
         21   -1    0    0  501  502  0.00000000000E+00  0.00000000000E+00  0.68111192900E+03  0.68111192900E+03  0.00000000000E+00 0.  1.
         21   -1    0    0  502  503 -0.00000000000E+00 -0.00000000000E+00 -0.69777257139E+02  0.69777257139E+02  0.00000000000E+00 0.  1.
         -6    2    1    2    0  503  0.21809752622E+02  0.12190519279E+03  0.21965453354E+03  0.30554472466E+03  0.17254832171E+03 0.  0.
        -24    2    3    3    0    0  0.20163210692E+02  0.71523819815E+02  0.22923288583E+03  0.25401969505E+03  0.80349720995E+02 0.  0.
          6    2    1    2  501    0 -0.21809752622E+02 -0.12190519279E+03  0.39168013832E+03  0.44534446148E+03  0.17199365475E+03 0.  0.
         24    2    5    5    0    0 -0.61325644457E+02 -0.58548642834E+02  0.13641187119E+03  0.17933781431E+03  0.79781418863E+02 0.  0.
          5    1    5    5  501    0  0.39515891835E+02 -0.63356549961E+02  0.25526826713E+03  0.26600664716E+03  0.47000000000E+01 0. -1.
        -11    1    6    6    0    0 -0.80640468329E+02 -0.41815251221E+02  0.10479719467E+03  0.13868616506E+03  0.00000000000E+00 0.  1.
         12    1    6    6    0    0  0.19314823872E+02 -0.16733391612E+02  0.31614676515E+02  0.40651649256E+02  0.00000000000E+00 0. -1.
         -5    1    3    3    0  503  0.16465419304E+01  0.50381372979E+02 -0.95783522866E+01  0.51525029608E+02  0.47000000000E+01 0.  1.
         13    1    4    4    0    0 -0.17810916536E+02  0.12941614800E+02  0.13478084312E+03  0.13656716228E+03  0.00000000000E+00 0. -1.
        -14    1    4    4    0    0  0.37974127227E+02  0.58582205015E+02  0.94452042711E+02  0.11745253278E+03  0.00000000000E+00 0.  1.
</event>
<event>
12    1  0.8684423E-002  0.2124671E+03  0.7818608E-02  0.1139855E+00
         21   -1    0    0  501  502  0.00000000000E+00  0.00000000000E+00  0.11793039672E+04  0.11793039672E+04  0.00000000000E+00 0. -1.
         21   -1    0    0  502  503 -0.00000000000E+00 -0.00000000000E+00 -0.13008698613E+03  0.13008698613E+03  0.00000000000E+00 0. -1.
         -6    2    1    2    0  503  0.12183752538E+03  0.21514953837E+02 -0.25596809025E+02  0.21400343177E+03  0.17272809948E+03 0.  0.
        -24    2    3    3    0    0  0.39137676379E+02  0.37820464321E+02 -0.69042726950E+02  0.11905727608E+03  0.80284441882E+02 0.  0.
          6    2    1    2  501    0 -0.12183752538E+03 -0.21514953837E+02  0.10748137901E+04  0.10953875216E+04  0.17129466772E+03 0.  0.
         24    2    5    5    0    0 -0.75855269578E+02 -0.17765648362E+02  0.30289460942E+03  0.32207662895E+03  0.76932244968E+02 0.  0.
          5    1    5    5  501    0 -0.45982255805E+02 -0.37493054755E+01  0.77191918068E+03  0.77331089262E+03  0.47000000000E+01 0. -1.
        -11    1    6    6    0    0 -0.92999839826E+01 -0.51185264980E+01 -0.10557998372E+01  0.10667883055E+02  0.00000000000E+00 0.  1.
         12    1    6    6    0    0 -0.66555285595E+02 -0.12647121864E+02  0.30395040926E+03  0.31140874590E+03  0.00000000000E+00 0. -1.
         -5    1    3    3    0  503  0.82699849005E+02 -0.16305510484E+02  0.43445917924E+02  0.94946155698E+02  0.47000000000E+01 0.  1.
         11    1    4    4    0    0  0.30931590062E+02  0.49536419498E+02 -0.11190552746E+02  0.59463001868E+02  0.00000000000E+00 0. -1.
        -12    1    4    4    0    0  0.82060863171E+01 -0.11715955177E+02 -0.57852174203E+02  0.59594274208E+02  0.00000000000E+00 0.  1.
</event>
<event>
12    1  0.8684423E-002  0.2017813E+03  0.7818608E-02  0.1148280E+00
         21   -1    0    0  503  502  0.00000000000E+00  0.00000000000E+00  0.55752555013E+02  0.55752555013E+02  0.00000000000E+00 0.  1.
         21   -1    0    0  501  503 -0.00000000000E+00 -0.00000000000E+00 -0.79455730962E+03  0.79455730962E+03  0.00000000000E+00 0. -1.
          6    2    1    2  501    0 -0.89070163459E+02 -0.56428464206E+02 -0.49074605353E+03  0.53054618944E+03  0.17184267363E+03 0.  0.
         24    2    3    3    0    0 -0.21549710755E+02 -0.54396309873E+01 -0.89270147269E+02  0.12022452787E+03  0.77400247342E+02 0.  0.
         -6    2    1    2    0  502  0.89070163459E+02  0.56428464206E+02 -0.24805870108E+03  0.31976367519E+03  0.17204076029E+03 0.  0.
        -24    2    5    5    0    0  0.11335751763E+03  0.75606372368E+02 -0.15876531623E+03  0.22514303098E+03  0.83166750667E+02 0.  0.
          5    1    3    3  501    0 -0.67520452704E+02 -0.50988833218E+02 -0.40147590626E+03  0.41032166157E+03  0.47000000000E+01 0. -1.
        -13    1    4    4    0    0 -0.33888952862E+02 -0.34797407597E+02 -0.50824767210E+02  0.70302757154E+02  0.00000000000E+00 0.  1.
         14    1    4    4    0    0  0.12339242107E+02  0.29357776610E+02 -0.38445380059E+02  0.49921770713E+02  0.00000000000E+00 0. -1.
         -5    1    5    5    0  502 -0.24287354166E+02 -0.19177908162E+02 -0.89293384848E+02  0.94620644214E+02  0.47000000000E+01 0.  1.
         13    1    6    6    0    0 -0.12838149291E+01 -0.12546425203E+02 -0.37791022277E+01  0.13165962927E+02  0.00000000000E+00 0. -1.
        -14    1    6    6    0    0  0.11464133255E+03  0.88152797571E+02 -0.15498621400E+03  0.21197706805E+03  0.00000000000E+00 0.  1.
</event>
<event>
12    1  0.8684423E-002  0.1698680E+03  0.7818608E-02  0.1178554E+00
         21   -1    0    0  501  502  0.00000000000E+00  0.00000000000E+00  0.59444523501E+03  0.59444523501E+03  0.00000000000E+00 0.  1.
         21   -1    0    0  502  503 -0.00000000000E+00 -0.00000000000E+00 -0.48325303268E+02  0.48325303268E+02  0.00000000000E+00 0.  1.
         -6    2    1    2    0  503 -0.31753647350E+01 -0.14961075315E+02  0.24555304273E+03  0.29858235305E+03  0.16917803653E+03 0.  0.
        -24    2    3    3    0    0  0.58911635222E+02 -0.23060924774E+02  0.12101896367E+03  0.15911468665E+03  0.81667049191E+02 0.  0.
          6    2    1    2  501    0  0.31753647350E+01  0.14961075315E+02  0.30056688901E+03  0.34418818522E+03  0.16700639318E+03 0.  0.
         24    2    5    5    0    0  0.29386497532E+02 -0.22577759405E+02  0.73795481640E+02  0.11279339532E+03  0.76832645797E+02 0.  0.
          5    1    5    5  501    0 -0.26211132797E+02  0.37538834720E+02  0.22677140737E+03  0.23139478990E+03  0.47000000000E+01 0. -1.
        -11    1    6    6    0    0  0.20590022294E+02  0.20804925118E+02  0.59443265338E+02  0.66259306677E+02  0.00000000000E+00 0.  1.
         12    1    6    6    0    0  0.87964752375E+01 -0.43382684523E+02  0.14352216302E+02  0.46534088643E+02  0.00000000000E+00 0. -1.
         -5    1    3    3    0  503 -0.62086999957E+02  0.80998494595E+01  0.12453407906E+03  0.13946766640E+03  0.47000000000E+01 0.  1.
         11    1    4    4    0    0  0.31679906232E+02 -0.32823411193E+02  0.13210245575E+02  0.47492140080E+02  0.00000000000E+00 0. -1.
        -12    1    4    4    0    0  0.27231728990E+02  0.97624864191E+01  0.10780871810E+03  0.11162254657E+03  0.00000000000E+00 0.  1.
</event>
<event>
12    1  0.8684423E-002  0.1936898E+03  0.7818608E-02  0.1158712E+00
         21   -1    0    0  503  502  0.00000000000E+00  0.00000000000E+00  0.45139322753E+03  0.45139322753E+03  0.00000000000E+00 0.  1.
         21   -1    0    0  501  503 -0.00000000000E+00 -0.00000000000E+00 -0.94360248783E+02  0.94360248783E+02  0.00000000000E+00 0.  1.
          6    2    1    2  501    0  0.54818305193E+01 -0.47578495618E+02  0.30268418732E+03  0.35935146226E+03  0.18767523136E+03 0.  0.
         24    2    3    3    0    0 -0.58309542077E+02 -0.60715941770E+02  0.12815838877E+03  0.17300963639E+03  0.80133222762E+02 0.  0.
         -6    2    1    2    0  502 -0.54818305193E+01  0.47578495618E+02  0.54348791433E+02  0.18640201406E+03  0.17175027221E+03 0.  0.
        -24    2    5    5    0    0  0.19595008555E+02 -0.33786862228E+02  0.68956568058E+01  0.88815850585E+02  0.79468162259E+02 0.  0.
          5    1    3    3  501    0  0.63791372596E+02  0.13137446153E+02  0.17452579854E+03  0.18634182586E+03  0.47000000000E+01 0. -1.
        -13    1    4    4    0    0  0.11055683623E+02 -0.19135723335E+02  0.76401971514E+00  0.22113067947E+02  0.00000000000E+00 0.  1.
         14    1    4    4    0    0 -0.69365225699E+02 -0.41580218435E+02  0.12739436906E+03  0.15089656845E+03  0.00000000000E+00 0. -1.
         -5    1    5    5    0  502 -0.25076839075E+02  0.81365357846E+02  0.47453134627E+02  0.97586163472E+02  0.47000000000E+01 0.  1.
         11    1    6    6    0    0  0.43806773443E+02 -0.32319309446E+02 -0.14646658183E+02  0.56374602070E+02  0.00000000000E+00 0. -1.
        -12    1    6    6    0    0 -0.24211764888E+02 -0.14675527821E+01  0.21542314989E+02  0.32441248516E+02  0.00000000000E+00 0.  1.
</event>
<event>
12    1  0.8684423E-002  0.1778673E+03  0.7818608E-02  0.1170381E+00
         21   -1    0    0  501  502  0.00000000000E+00  0.00000000000E+00  0.11065569786E+04  0.11065569786E+04  0.00000000000E+00 0.  1.
         21   -1    0    0  502  503 -0.00000000000E+00 -0.00000000000E+00 -0.32706359204E+02  0.32706359204E+02  0.00000000000E+00 0.  1.
         -6    2    1    2    0  503 -0.22127785256E+01  0.41825620334E+02  0.32972142813E+03  0.37463716180E+03  0.17286556604E+03 0.  0.
        -24    2    3    3    0    0  0.42016068362E+02  0.67814700169E+02  0.15020937072E+03  0.18787985424E+03  0.79823561798E+02 0.  0.
          6    2    1    2  501    0  0.22127785256E+01 -0.41825620334E+02  0.74412919126E+03  0.76462617600E+03  0.17079419441E+03 0.  0.
         24    2    5    5    0    0 -0.39720182744E+01  0.16084401188E+02  0.17464129752E+03  0.19214877608E+03  0.78403344704E+02 0.  0.
          5    1    5    5  501    0  0.61847968000E+01 -0.57910021522E+02  0.56948789374E+03  0.57247739992E+03  0.47000000000E+01 0. -1.
        -11    1    6    6    0    0  0.35913010367E+02  0.22625855316E+01  0.10163857207E+03  0.10782051261E+03  0.00000000000E+00 0.  1.
         12    1    6    6    0    0 -0.39885028641E+02  0.13821815656E+02  0.73002725450E+02  0.84328263476E+02  0.00000000000E+00 0. -1.
         -5    1    3    3    0  503 -0.44228846887E+02 -0.25989079836E+02  0.17951205741E+03  0.18675730755E+03  0.47000000000E+01 0.  1.
         11    1    4    4    0    0  0.44189853727E+02  0.55289387122E+02  0.15788900090E+03  0.17302773219E+03  0.00000000000E+00 0. -1.
        -12    1    4    4    0    0 -0.21737853652E+01  0.12525313048E+02 -0.76796301812E+01  0.14852122053E+02  0.00000000000E+00 0.  1.
</event>
<event>
12    1  0.8684423E-002  0.2265642E+03  0.7818608E-02  0.1129202E+00
         21   -1    0    0  501  502  0.00000000000E+00  0.00000000000E+00  0.24662332726E+03  0.24662332726E+03  0.00000000000E+00 0. -1.
         21   -1    0    0  502  503 -0.00000000000E+00 -0.00000000000E+00 -0.27117926104E+03  0.27117926104E+03  0.00000000000E+00 0. -1.
         -6    2    1    2    0  503 -0.14859260720E+03 -0.30662859933E+02 -0.13770164487E+03  0.26455704288E+03  0.16735803550E+03 0.  0.
        -24    2    3    3    0    0 -0.71377010194E+02 -0.84328151174E+02 -0.81917317739E+02  0.15512124865E+03  0.71737299740E+02 0.  0.
          6    2    1    2  501    0  0.14859260720E+03  0.30662859933E+02  0.11314571109E+03  0.25324554542E+03  0.16825985987E+03 0.  0.
         24    2    5    5    0    0  0.49010025956E+02  0.50444671664E+02  0.10863335622E+03  0.15150832554E+03  0.78784002690E+02 0.  0.
          5    1    5    5  501    0  0.99582581247E+02 -0.19781811731E+02  0.45123548709E+01  0.10173721988E+03  0.47000000000E+01 0. -1.
        -13    1    6    6    0    0 -0.75844841689E+01 -0.16085371989E+02  0.24139977066E+02  0.29983363468E+02  0.00000000000E+00 0.  1.
         14    1    6    6    0    0  0.56594510125E+02  0.66530043654E+02  0.84493379152E+02  0.12152496207E+03  0.00000000000E+00 0. -1.
         -5    1    3    3    0  503 -0.77215597009E+02  0.53665291240E+02 -0.55784327131E+02  0.10943579423E+03  0.47000000000E+01 0.  1.
         11    1    4    4    0    0 -0.65560763686E+02 -0.71203406017E+02 -0.30114073709E+02  0.10136565591E+03  0.00000000000E+00 0. -1.
        -12    1    4    4    0    0 -0.58162465080E+01 -0.13124745157E+02 -0.51803244030E+02  0.53755592741E+02  0.00000000000E+00 0.  1.
</event>
<event>
12    1  0.8684423E-002  0.3871343E+03  0.7818608E-02  0.1048390E+00
         21   -1    0    0  501  502  0.00000000000E+00  0.00000000000E+00  0.28098691851E+03  0.28098691851E+03  0.00000000000E+00 0. -1.
         21   -1    0    0  502  503 -0.00000000000E+00 -0.00000000000E+00 -0.72727580469E+03  0.72727580469E+03  0.00000000000E+00 0.  1.
         -6    2    1    2    0  503 -0.34457931518E+03 -0.30425196852E+02  0.37940785609E+02  0.38830199438E+03  0.17227402178E+03 0.  0.
        -24    2    3    3    0    0 -0.33980213451E+03  0.40233995787E+01  0.46219624570E+02  0.35224431246E+03  0.80362451431E+02 0.  0.
          6    2    1    2  501    0  0.34457931518E+03  0.30425196852E+02 -0.48422967179E+03  0.61996072882E+03  0.17381695312E+03 0.  0.
         24    2    5    5    0    0  0.26704922595E+03 -0.35100676144E+02 -0.31106483618E+03  0.41918048811E+03  0.80022514087E+02 0.  0.
          5    1    5    5  501    0  0.77530089222E+02  0.65525872996E+02 -0.17316483561E+03  0.20078024071E+03  0.47000000000E+01 0. -1.
        -13    1    6    6    0    0  0.15036943900E+03  0.47538243822E+01 -0.21721840854E+03  0.26422983186E+03  0.00000000000E+00 0.  1.
         14    1    6    6    0    0  0.11667978695E+03 -0.39854500526E+02 -0.93846427633E+02  0.15495065626E+03  0.00000000000E+00 0. -1.
         -5    1    3    3    0  503 -0.47771806606E+01 -0.34448596430E+02 -0.82788389610E+01  0.36057681923E+02  0.47000000000E+01 0.  1.
         13    1    4    4    0    0 -0.80285618171E+02 -0.31300036901E+02  0.23686380841E+02  0.89367317474E+02  0.00000000000E+00 0. -1.
        -14    1    4    4    0    0 -0.25951651634E+03  0.35323436480E+02  0.22533243729E+02  0.26287699499E+03  0.00000000000E+00 0.  1.
</event>
<event>
12    1  0.8684423E-002  0.2578639E+03  0.7818608E-02  0.1108449E+00
         21   -1    0    0  503  502  0.00000000000E+00  0.00000000000E+00  0.67415967860E+02  0.67415967860E+02  0.00000000000E+00 0.  1.
         21   -1    0    0  501  503 -0.00000000000E+00 -0.00000000000E+00 -0.12099302148E+04  0.12099302148E+04  0.00000000000E+00 0.  1.
          6    2    1    2  501    0  0.84663409109E+02 -0.17263818231E+03 -0.84596831262E+03  0.88436617262E+03  0.17166626480E+03 0.  0.
         24    2    3    3    0    0  0.90441774148E+02 -0.18270006560E+03 -0.84366956539E+03  0.87163804483E+03  0.80096923495E+02 0.  0.
         -6    2    1    2    0  502 -0.84663409109E+02  0.17263818231E+03 -0.29654593433E+03  0.39298001006E+03  0.17181956322E+03 0.  0.
        -24    2    5    5    0    0  0.22730678959E+02  0.71686123682E+02 -0.14918316023E+03  0.18450294781E+03  0.78295200113E+02 0.  0.
          5    1    3    3  501    0 -0.57783650395E+01  0.10061883296E+02 -0.22987472341E+01  0.12728127782E+02  0.47000000000E+01 0. -1.
        -11    1    4    4    0    0  0.60414948732E+02 -0.16467477960E+03 -0.58875772343E+03  0.61433167423E+03  0.00000000000E+00 0.  1.
         12    1    4    4    0    0  0.30026825417E+02 -0.18025285998E+02 -0.25491184196E+03  0.25730637060E+03  0.00000000000E+00 0. -1.
         -5    1    5    5    0  502 -0.10739408807E+03  0.10095205862E+03 -0.14736277409E+03  0.20847706224E+03  0.47000000000E+01 0.  1.
         13    1    6    6    0    0 -0.72680426359E+01  0.55075338612E+02 -0.13746443022E+03  0.14826525872E+03  0.00000000000E+00 0. -1.
        -14    1    6    6    0    0  0.29998721595E+02  0.16610785070E+02 -0.11718730013E+02  0.36237689097E+02  0.00000000000E+00 0.  1.
</event>
<event>
12    1  0.8684423E-002  0.2522534E+03  0.7818608E-02  0.1112027E+00
         21   -1    0    0  503  502  0.00000000000E+00  0.00000000000E+00  0.73001396864E+03  0.73001396864E+03  0.00000000000E+00 0. -1.
         21   -1    0    0  501  503 -0.00000000000E+00 -0.00000000000E+00 -0.15804465320E+03  0.15804465320E+03  0.00000000000E+00 0.  1.
          6    2    1    2  501    0 -0.19857999242E+02  0.18260987968E+03  0.58425658066E+03  0.63638631482E+03  0.17289037383E+03 0.  0.
         24    2    3    3    0    0  0.47908145341E+02  0.93481159086E+02  0.40065169889E+03  0.42128396292E+03  0.76970618388E+02 0.  0.
         -6    2    1    2    0  502  0.19857999242E+02 -0.18260987968E+03 -0.12287265226E+02  0.25167230702E+03  0.17160205402E+03 0.  0.
        -24    2    5    5    0    0  0.43947825006E+02 -0.58157277341E+02  0.38226358038E+02  0.11513481741E+03  0.80505226538E+02 0.  0.
          5    1    3    3  501    0 -0.67766144583E+02  0.89128720591E+02  0.18360488177E+03  0.21510235191E+03  0.47000000000E+01 0. -1.
        -13    1    4    4    0    0  0.83144219622E+01  0.25274275100E+02  0.22052333982E+02  0.34557546621E+02  0.00000000000E+00 0.  1.
         14    1    4    4    0    0  0.39593723379E+02  0.68206883986E+02  0.37859936491E+03  0.38672641630E+03  0.00000000000E+00 0. -1.
         -5    1    5    5    0  502 -0.24089825764E+02 -0.12445260234E+03 -0.50513623264E+02  0.13653748961E+03  0.47000000000E+01 0.  1.
         11    1    6    6    0    0 -0.18732139395E+02 -0.20546902836E+01  0.22853780716E+02  0.29621108883E+02  0.00000000000E+00 0. -1.
        -12    1    6    6    0    0  0.62679964401E+02 -0.56102587057E+02  0.15372577323E+02  0.85513708523E+02  0.00000000000E+00 0.  1.
</event>
<event>
12    1  0.8684423E-002  0.2035811E+03  0.7818608E-02  0.1146848E+00
         21   -1    0    0  503  502  0.00000000000E+00  0.00000000000E+00  0.21857699459E+03  0.21857699459E+03  0.00000000000E+00 0. -1.
         21   -1    0    0  501  503 -0.00000000000E+00 -0.00000000000E+00 -0.27835918891E+03  0.27835918891E+03  0.00000000000E+00 0. -1.
          6    2    1    2  501    0  0.47759339470E+02  0.99069453272E+02 -0.17050230111E+03  0.26519449984E+03  0.17076702546E+03 0.  0.
         24    2    3    3    0    0 -0.54834074149E+00 -0.13042145135E+02 -0.60746327439E+02  0.10096567709E+03  0.79583625363E+02 0.  0.
         -6    2    1    2    0  502 -0.47759339470E+02 -0.99069453272E+02  0.11072010679E+03  0.23174168366E+03  0.17131711771E+03 0.  0.
        -24    2    5    5    0    0 -0.31686492350E+00 -0.12463975180E+03  0.62970118792E+02  0.15958366323E+03  0.77243391806E+02 0.  0.
          5    1    3    3  501    0  0.48307680212E+02  0.11211159841E+03 -0.10975597367E+03  0.16422882275E+03  0.47000000000E+01 0. -1.
        -11    1    4    4    0    0  0.27610835597E+01  0.26514693256E+02  0.19831185528E+01  0.26731728341E+02  0.00000000000E+00 0.  1.
         12    1    4    4    0    0 -0.33094243012E+01 -0.39556838391E+02 -0.62729445992E+02  0.74233948751E+02  0.00000000000E+00 0. -1.
         -5    1    5    5    0  502 -0.47442474547E+02  0.25570298531E+02  0.47749988003E+02  0.72158020430E+02  0.47000000000E+01 0.  1.
         11    1    6    6    0    0 -0.16898996288E+02 -0.12823889887E+03  0.52184273430E+02  0.13947755967E+03  0.00000000000E+00 0. -1.
        -12    1    6    6    0    0  0.16582131365E+02  0.35991470679E+01  0.10785845362E+02  0.20106103560E+02  0.00000000000E+00 0.  1.
</event>
<event>
12    1  0.8684423E-002  0.1911612E+03  0.7818608E-02  0.1159046E+00
         21   -1    0    0  503  502  0.00000000000E+00  0.00000000000E+00  0.25117923724E+03  0.25117923724E+03  0.00000000000E+00 0.  1.
         21   -1    0    0  501  503 -0.00000000000E+00 -0.00000000000E+00 -0.46739248610E+03  0.46739248610E+03  0.00000000000E+00 0.  1.
          6    2    1    2  501    0  0.66634198039E+02 -0.77669446993E+01 -0.40935711426E+03  0.45179183110E+03  0.17900326777E+03 0.  0.
         24    2    3    3    0    0 -0.13974622497E+02  0.22837478544E+02 -0.10564010550E+03  0.13603793313E+03  0.81422643413E+02 0.  0.
         -6    2    1    2    0  502 -0.66634198039E+02  0.77669446993E+01  0.19314386540E+03  0.26677989224E+03  0.17136661398E+03 0.  0.
        -24    2    5    5    0    0 -0.43410740339E+02 -0.51170789935E+02  0.16878285009E+03  0.19874655763E+03  0.80682101904E+02 0.  0.
          5    1    3    3  501    0  0.80608820536E+02 -0.30604423243E+02 -0.30371700876E+03  0.31575389797E+03  0.47000000000E+01 0. -1.
        -13    1    4    4    0    0  0.39175479638E+01 -0.14033609987E+02 -0.91547397180E+02  0.92699597204E+02  0.00000000000E+00 0.  1.
         14    1    4    4    0    0 -0.17892170461E+02  0.36871088531E+02 -0.14092708323E+02  0.43338335930E+02  0.00000000000E+00 0. -1.
         -5    1    5    5    0  502 -0.23223457701E+02  0.58937734634E+02  0.24361015312E+02  0.68033334612E+02  0.47000000000E+01 0.  1.
         13    1    6    6    0    0 -0.24162245279E+02 -0.46397939218E+02  0.17097077570E+03  0.17879482376E+03  0.00000000000E+00 0. -1.
        -14    1    6    6    0    0 -0.19248495060E+02 -0.47728507171E+01 -0.21879256102E+01  0.19951733872E+02  0.00000000000E+00 0.  1.
</event>
<event>
12    1  0.8684423E-002  0.1878723E+03  0.7818608E-02  0.1162636E+00
         21   -1    0    0  501  502  0.00000000000E+00  0.00000000000E+00  0.33835926449E+03  0.33835926449E+03  0.00000000000E+00 0.  1.
         21   -1    0    0  502  503 -0.00000000000E+00 -0.00000000000E+00 -0.18200502755E+03  0.18200502755E+03  0.00000000000E+00 0.  1.
         -6    2    1    2    0  503 -0.42516218006E+02  0.27099710558E+02 -0.98506184906E+02  0.20374175026E+03  0.17107077257E+03 0.  0.
        -24    2    3    3    0    0 -0.38764928376E+02 -0.40789272897E+02 -0.95609641499E+02  0.13552543101E+03  0.77842497697E+02 0.  0.
          6    2    1    2  501    0  0.42516218006E+02 -0.27099710558E+02  0.25486042185E+03  0.31662254178E+03  0.18098059629E+03 0.  0.
         24    2    5    5    0    0  0.64872912212E+02 -0.21582834481E+02  0.26971506059E+03  0.28881952055E+03  0.77435057023E+02 0.  0.
          5    1    5    5  501    0 -0.22356694206E+02 -0.55168760777E+01 -0.14854638742E+02  0.27803021233E+02  0.47000000000E+01 0. -1.
        -13    1    6    6    0    0  0.48805323076E+02 -0.48738485757E+02  0.21336853991E+03  0.22423990140E+03  0.00000000000E+00 0.  1.
         14    1    6    6    0    0  0.16067589136E+02  0.27155651276E+02  0.56346520679E+02  0.64579619150E+02  0.00000000000E+00 0. -1.
         -5    1    3    3    0  503 -0.37512896300E+01  0.67888983455E+02 -0.28965434070E+01  0.68216319251E+02  0.47000000000E+01 0.  1.
         13    1    4    4    0    0 -0.54834527157E+02 -0.90688637776E+01 -0.36333372555E+02  0.66401683864E+02  0.00000000000E+00 0. -1.
        -14    1    4    4    0    0  0.16069598781E+02 -0.31720409119E+02 -0.59276268944E+02  0.69123747147E+02  0.00000000000E+00 0.  1.
</event>
<event>
12    1  0.8684423E-002  0.1730694E+03  0.7818608E-02  0.1174899E+00
         21   -1    0    0  501  502  0.00000000000E+00  0.00000000000E+00  0.31196865568E+03  0.31196865568E+03  0.00000000000E+00 0. -1.
         21   -1    0    0  502  503 -0.00000000000E+00 -0.00000000000E+00 -0.32402221138E+03  0.32402221138E+03  0.00000000000E+00 0. -1.
         -6    2    1    2    0  503  0.34948472436E+02 -0.99558009511E+00 -0.27305681061E+03  0.32328478803E+03  0.16950116651E+03 0.  0.
        -24    2    3    3    0    0  0.48122401950E+02 -0.23452514355E+02 -0.28011228357E+03  0.29590348029E+03  0.78931566813E+02 0.  0.
          6    2    1    2  501    0 -0.34948472436E+02  0.99558009511E+00  0.26100325491E+03  0.31270607903E+03  0.16864164931E+03 0.  0.
         24    2    5    5    0    0  0.35952085193E+02 -0.30950720451E+02  0.15161666308E+03  0.17841173193E+03  0.81195037041E+02 0.  0.
          5    1    5    5  501    0 -0.70900557629E+02  0.31946300546E+02  0.10938659183E+03  0.13429434710E+03  0.47000000000E+01 0. -1.
        -11    1    6    6    0    0  0.27023900256E+02 -0.24811744026E+02  0.12328514041E+02  0.38702791697E+02  0.00000000000E+00 0.  1.
         12    1    6    6    0    0  0.89281849367E+01 -0.61389764254E+01  0.13928814904E+03  0.13970894024E+03  0.00000000000E+00 0. -1.
         -5    1    3    3    0  503 -0.13173929514E+02  0.22456934260E+02  0.70554729642E+01  0.27381307747E+02  0.47000000000E+01 0.  1.
         11    1    4    4    0    0  0.40534505376E+02  0.23658107257E+02 -0.15707761780E+03  0.16393941009E+03  0.00000000000E+00 0. -1.
        -12    1    4    4    0    0  0.75878965740E+01 -0.47110621612E+02 -0.12303466577E+03  0.13196407020E+03  0.00000000000E+00 0.  1.
</event>
<event>
12    1  0.8684423E-002  0.3090737E+03  0.7818608E-02  0.1080868E+00
         21   -1    0    0  501  502  0.00000000000E+00  0.00000000000E+00  0.22083066955E+03  0.22083066955E+03  0.00000000000E+00 0.  1.
         21   -1    0    0  502  503 -0.00000000000E+00 -0.00000000000E+00 -0.48342330888E+03  0.48342330888E+03  0.00000000000E+00 0. -1.
         -6    2    1    2    0  503 -0.34691464981E+02 -0.26238390122E+03 -0.16219107101E+02  0.30949893648E+03  0.15961742663E+03 0.  0.
        -24    2    3    3    0    0 -0.56847568402E+02 -0.22456180398E+03  0.28811430693E+02  0.24648113509E+03  0.79140391544E+02 0.  0.
          6    2    1    2  501    0  0.34691464981E+02  0.26238390122E+03 -0.24637353222E+03  0.39475504195E+03  0.15837555495E+03 0.  0.
         24    2    5    5    0    0  0.23951714520E+02  0.27214544227E+03 -0.19868831236E+03  0.34468908428E+03  0.68532422841E+02 0.  0.
          5    1    5    5  501    0  0.10739750461E+02 -0.97615410508E+01 -0.47685219865E+02  0.50065957668E+02  0.47000000000E+01 0. -1.
        -11    1    6    6    0    0 -0.19352699569E+02  0.33321045876E+02 -0.21028159467E+02  0.43897637402E+02  0.00000000000E+00 0.  1.
         12    1    6    6    0    0  0.43304414089E+02  0.23882439639E+03 -0.17766015289E+03  0.30079144688E+03  0.00000000000E+00 0. -1.
         -5    1    3    3    0  503  0.22156103421E+02 -0.37822097235E+02 -0.45030537794E+02  0.63017801391E+02  0.47000000000E+01 0.  1.
         11    1    4    4    0    0 -0.12218114387E+02 -0.28605762091E+02 -0.23295583141E+02  0.38862014073E+02  0.00000000000E+00 0. -1.
        -12    1    4    4    0    0 -0.44629454015E+02 -0.19595604189E+03  0.52107013834E+02  0.20761912101E+03  0.00000000000E+00 0.  1.
</event>
<event>
12    1  0.8684423E-002  0.1893367E+03  0.7818608E-02  0.1159742E+00
         21   -1    0    0  501  502  0.00000000000E+00  0.00000000000E+00  0.18795524918E+04  0.18795524918E+04  0.00000000000E+00 0. -1.
         21   -1    0    0  502  503 -0.00000000000E+00 -0.00000000000E+00 -0.30274068324E+02  0.30274068324E+02  0.00000000000E+00 0. -1.
         -6    2    1    2    0  503  0.59829385076E+01 -0.70023757629E+02  0.15086294412E+04  0.15200957282E+04  0.17259521955E+03 0.  0.
        -24    2    3    3    0    0 -0.49809399389E+02 -0.82034855680E+02  0.93185281644E+03  0.94048342991E+03  0.83358962408E+02 0.  0.
          6    2    1    2  501    0 -0.59829385076E+01  0.70023757629E+02  0.34064898224E+03  0.38973083191E+03  0.17581032406E+03 0.  0.
         24    2    5    5    0    0  0.32601850056E+02  0.96977129861E+02  0.30298379815E+03  0.32926574879E+03  0.78417517443E+02 0.  0.
          5    1    5    5  501    0 -0.38584788564E+02 -0.26953372232E+02  0.37665184094E+02  0.60465083114E+02  0.47000000000E+01 0. -1.
        -13    1    6    6    0    0  0.42975950157E+02  0.65981531680E+02  0.12097176828E+03  0.14434217518E+03  0.00000000000E+00 0.  1.
         14    1    6    6    0    0 -0.10374100101E+02  0.30995598181E+02  0.18201202987E+03  0.18492357361E+03  0.00000000000E+00 0. -1.
         -5    1    3    3    0  503  0.55792337897E+02  0.12011098050E+02  0.57677662475E+03  0.57961229827E+03  0.47000000000E+01 0.  1.
         13    1    4    4    0    0  0.12914317490E+02  0.92018657802E+01  0.14867599005E+03  0.14951924274E+03  0.00000000000E+00 0. -1.
        -14    1    4    4    0    0 -0.62723716880E+02 -0.91236721460E+02  0.78317682639E+03  0.79096418718E+03  0.00000000000E+00 0.  1.
</event>
<event>
12    1  0.8684423E-002  0.1738414E+03  0.7818608E-02  0.1174376E+00
         21   -1    0    0  503  502  0.00000000000E+00  0.00000000000E+00  0.53439885074E+03  0.53439885074E+03  0.00000000000E+00 0.  1.
         21   -1    0    0  501  503 -0.00000000000E+00 -0.00000000000E+00 -0.73245615832E+02  0.73245615832E+02  0.00000000000E+00 0.  1.
          6    2    1    2  501    0  0.11238780615E+02  0.54824973004E+01  0.83869309551E+02  0.19301523594E+03  0.17339103856E+03 0.  0.
         24    2    3    3    0    0 -0.18138203046E+02  0.18858451345E+02 -0.18677286255E+02  0.85405674898E+02  0.79124286323E+02 0.  0.
         -6    2    1    2    0  502 -0.11238780615E+02 -0.54824973004E+01  0.37728392535E+03  0.41462923063E+03  0.17151638580E+03 0.  0.
        -24    2    5    5    0    0  0.44149840526E+02 -0.29133979071E+02  0.25399640561E+03  0.27733686207E+03  0.97997774683E+02 0.  0.
          5    1    3    3  501    0  0.29376983661E+02 -0.13375954045E+02  0.10254659581E+03  0.10760956104E+03  0.47000000000E+01 0. -1.
        -11    1    4    4    0    0  0.19397981676E+02  0.69218166459E+01  0.21058433038E+02  0.29455913512E+02  0.00000000000E+00 0.  1.
         12    1    4    4    0    0 -0.37536184722E+02  0.11936634699E+02 -0.39735719293E+02  0.55949761386E+02  0.00000000000E+00 0. -1.
         -5    1    5    5    0  502 -0.55388621141E+02  0.23651481770E+02  0.12328751974E+03  0.13729236856E+03  0.47000000000E+01 0.  1.
         11    1    6    6    0    0  0.20216686569E+02  0.34314375102E+02  0.13056604326E+03  0.13650524681E+03  0.00000000000E+00 0. -1.
        -12    1    6    6    0    0  0.23933153957E+02 -0.63448354172E+02  0.12343036235E+03  0.14083161526E+03  0.00000000000E+00 0.  1.
</event>
<event>
12    1  0.8684423E-002  0.1989414E+03  0.7818608E-02  0.1150746E+00
         21   -1    0    0  501  502  0.00000000000E+00  0.00000000000E+00  0.88361151392E+03  0.88361151392E+03  0.00000000000E+00 0.  1.
         21   -1    0    0  502  503 -0.00000000000E+00 -0.00000000000E+00 -0.45657715264E+02  0.45657715264E+02  0.00000000000E+00 0. -1.
         -6    2    1    2    0  503  0.99526937919E+02  0.10956963887E+01  0.35024114129E+03  0.40254224569E+03  0.17165252865E+03 0.  0.
        -24    2    3    3    0    0  0.61124382479E+02 -0.58205383337E+02  0.27989342231E+03  0.30273109458E+03  0.78623984815E+02 0.  0.
          6    2    1    2  501    0 -0.99526937919E+02 -0.10956963887E+01  0.48771265737E+03  0.52672698350E+03  0.17225233543E+03 0.  0.
         24    2    5    5    0    0 -0.88147041859E+02 -0.48819199782E+02  0.43811609707E+03  0.45680600235E+03  0.81072769881E+02 0.  0.
          5    1    5    5  501    0 -0.11379896060E+02  0.47723503394E+02  0.49596560299E+02  0.69920981143E+02  0.47000000000E+01 0. -1.
        -13    1    6    6    0    0 -0.38291160340E+02 -0.19425677646E+02  0.34144749100E+03  0.34413654125E+03  0.00000000000E+00 0.  1.
         14    1    6    6    0    0 -0.49855881519E+02 -0.29393522137E+02  0.96668606070E+02  0.11266946110E+03  0.00000000000E+00 0. -1.
         -5    1    3    3    0  503  0.38402555441E+02  0.59301079726E+02  0.70347718972E+02  0.99811151108E+02  0.47000000000E+01 0.  1.
         11    1    4    4    0    0  0.26582718143E+02 -0.13719303482E+02  0.18135070282E+02  0.34982009177E+02  0.00000000000E+00 0. -1.
        -12    1    4    4    0    0  0.34541664336E+02 -0.44486079855E+02  0.26175835203E+03  0.26774908540E+03  0.00000000000E+00 0.  1.
</event>
<event>
12    1  0.8684423E-002  0.3287947E+03  0.7818608E-02  0.1071741E+00
         21   -1    0    0  503  502  0.00000000000E+00  0.00000000000E+00  0.11628800773E+04  0.11628800773E+04  0.00000000000E+00 0.  1.
         21   -1    0    0  501  503 -0.00000000000E+00 -0.00000000000E+00 -0.11298309446E+03  0.11298309446E+03  0.00000000000E+00 0.  1.
          6    2    1    2  501    0 -0.50497118200E+02 -0.27467284335E+03  0.25483636785E+03  0.41549851672E+03  0.17234359054E+03 0.  0.
         24    2    3    3    0    0 -0.20375147302E+02 -0.23157945487E+03  0.12626999166E+03  0.27651730811E+03  0.80458190041E+02 0.  0.
         -6    2    1    2    0  502  0.50497118200E+02  0.27467284335E+03  0.79506061496E+03  0.86036465499E+03  0.17352471951E+03 0.  0.
        -24    2    5    5    0    0 -0.79752438234E+01  0.63441582768E+02  0.17120073714E+03  0.19910759475E+03  0.79029759913E+02 0.  0.
          5    1    3    3  501    0 -0.30121970898E+02 -0.43093388477E+02  0.12856637619E+03  0.13898120861E+03  0.47000000000E+01 0. -1.
        -11    1    4    4    0    0  0.10414722896E+01 -0.22099490090E+03  0.10561828469E+03  0.24493887594E+03  0.00000000000E+00 0.  1.
         12    1    4    4    0    0 -0.21416619591E+02 -0.10584553978E+02  0.20651706968E+02  0.31578432170E+02  0.00000000000E+00 0. -1.
         -5    1    5    5    0  502  0.58472362024E+02  0.21123126058E+03  0.62385987782E+03  0.66125706024E+03  0.47000000000E+01 0.  1.
         13    1    6    6    0    0  0.27447889420E+02 -0.38490990792E+00  0.61389402942E+02  0.67247257065E+02  0.00000000000E+00 0. -1.
        -14    1    6    6    0    0 -0.35423133243E+02  0.63826492676E+02  0.10981133420E+03  0.13186033769E+03  0.00000000000E+00 0.  1.
</event>
<event>
12    1  0.8684423E-002  0.2575183E+03  0.7818608E-02  0.1108757E+00
         21   -1    0    0  503  502  0.00000000000E+00  0.00000000000E+00  0.54843754555E+03  0.54843754555E+03  0.00000000000E+00 0. -1.
         21   -1    0    0  501  503 -0.00000000000E+00 -0.00000000000E+00 -0.12146151693E+03  0.12146151693E+03  0.00000000000E+00 0.  1.
          6    2    1    2  501    0 -0.68960771270E+02 -0.17894100949E+03  0.18506487529E+03  0.31711938355E+03  0.17187269274E+03 0.  0.
         24    2    3    3    0    0 -0.29647300862E+02 -0.25132103516E+02  0.27204695569E+02  0.93189361328E+02  0.80209578781E+02 0.  0.
         -6    2    1    2    0  502  0.68960771270E+02  0.17894100949E+03  0.24191115332E+03  0.35277967893E+03  0.17075427640E+03 0.  0.
        -24    2    5    5    0    0 -0.25964641919E+02  0.11324280417E+03  0.13368041771E+03  0.19446647549E+03  0.80303553369E+02 0.  0.
          5    1    3    3  501    0 -0.39313470408E+02 -0.15380890597E+03  0.15786017973E+03  0.22393002223E+03  0.47000000000E+01 0. -1.
        -11    1    4    4    0    0  0.15169810452E+01 -0.37094736819E+02 -0.14424259492E+02  0.39829386049E+02  0.00000000000E+00 0.  1.
         12    1    4    4    0    0 -0.31164281908E+02  0.11962633303E+02  0.41628955061E+02  0.53359975279E+02  0.00000000000E+00 0. -1.
         -5    1    5    5    0  502  0.94925413189E+02  0.65698205320E+02  0.10823073562E+03  0.15831320344E+03  0.47000000000E+01 0.  1.
         11    1    6    6    0    0 -0.45502371461E+02  0.64530809710E+02  0.11343995566E+03  0.13821474144E+03  0.00000000000E+00 0. -1.
        -12    1    6    6    0    0  0.19537729542E+02  0.48711994456E+02  0.20240462048E+02  0.56251734048E+02  0.00000000000E+00 0.  1.
</event>
<event>
12    1  0.8684423E-002  0.2605920E+03  0.7818608E-02  0.1106936E+00
         21   -1    0    0  501  502  0.00000000000E+00  0.00000000000E+00  0.43789243346E+03  0.43789243346E+03  0.00000000000E+00 0.  1.
         21   -1    0    0  502  503 -0.00000000000E+00 -0.00000000000E+00 -0.26170889250E+03  0.26170889250E+03  0.00000000000E+00 0.  1.
         -6    2    1    2    0  503 -0.22768208217E+02  0.19384536117E+03 -0.13570315635E+03  0.29380866798E+03  0.17266664815E+03 0.  0.
        -24    2    3    3    0    0  0.45689933277E+02  0.13186757482E+03 -0.12340517665E+03  0.20052901617E+03  0.74205265379E+02 0.  0.
          6    2    1    2  501    0  0.22768208217E+02 -0.19384536117E+03  0.31188669731E+03  0.40579265799E+03  0.17117229322E+03 0.  0.
         24    2    5    5    0    0  0.64482444441E+02 -0.11086900816E+03  0.12313733687E+03  0.19537981682E+03  0.80997200433E+02 0.  0.
          5    1    5    5  501    0 -0.41714236224E+02 -0.82976353008E+02  0.18874936044E+03  0.21041284117E+03  0.47000000000E+01 0. -1.
        -13    1    6    6    0    0  0.10906578410E+02 -0.65320948150E+02  0.17536558575E+02  0.68507741216E+02  0.00000000000E+00 0.  1.
         14    1    6    6    0    0  0.53575866032E+02 -0.45548060009E+02  0.10560077830E+03  0.12687207560E+03  0.00000000000E+00 0. -1.
         -5    1    3    3    0  503 -0.68458141494E+02  0.61977786346E+02 -0.12297979704E+02  0.93279651811E+02  0.47000000000E+01 0.  1.
         11    1    4    4    0    0 -0.16050837095E+02  0.24255068660E+02 -0.45594863494E+02  0.54081691026E+02  0.00000000000E+00 0. -1.
        -12    1    4    4    0    0  0.61740770372E+02  0.10761250616E+03 -0.77810313153E+02  0.14644732514E+03  0.00000000000E+00 0.  1.
</event>
<event>
12    1  0.8684423E-002  0.2571688E+03  0.7818608E-02  0.1109459E+00
         21   -1    0    0  503  502  0.00000000000E+00  0.00000000000E+00  0.57375026852E+03  0.57375026852E+03  0.00000000000E+00 0. -1.
         21   -1    0    0  501  503 -0.00000000000E+00 -0.00000000000E+00 -0.13815791463E+03  0.13815791463E+03  0.00000000000E+00 0.  1.
          6    2    1    2  501    0 -0.35987149164E+02  0.18727880730E+03  0.36949488569E+03  0.45018024273E+03  0.17253218198E+03 0.  0.
         24    2    3    3    0    0 -0.30694451646E+02  0.20702311524E+02  0.15669011278E+03  0.17984026609E+03  0.80124870052E+02 0.  0.
         -6    2    1    2    0  502  0.35987149164E+02 -0.18727880730E+03  0.66097468202E+02  0.26172794042E+03  0.16662596714E+03 0.  0.
        -24    2    5    5    0    0  0.34473100848E+02 -0.41780022993E+02  0.55770584067E+02  0.11577958273E+03  0.85793873479E+02 0.  0.
          5    1    3    3  501    0 -0.52926975179E+01  0.16657649577E+03  0.21280477291E+03  0.27033997663E+03  0.47000000000E+01 0. -1.
        -13    1    4    4    0    0 -0.47625253392E+02  0.42231946444E+01  0.14650942245E+03  0.15411363016E+03  0.00000000000E+00 0.  1.
         14    1    4    4    0    0  0.16930801745E+02  0.16479116880E+02  0.10180690328E+02  0.25726635933E+02  0.00000000000E+00 0. -1.
         -5    1    5    5    0  502  0.15140483165E+01 -0.14549878431E+03  0.10326884135E+02  0.14594835769E+03  0.47000000000E+01 0.  1.
         13    1    6    6    0    0 -0.17809732676E+02 -0.14924730459E+02 -0.11933470943E+02  0.26121674640E+02  0.00000000000E+00 0. -1.
        -14    1    6    6    0    0  0.52282833523E+02 -0.26855292534E+02  0.67704055010E+02  0.89657908090E+02  0.00000000000E+00 0.  1.
</event>
<event>
12    1  0.8684423E-002  0.1821107E+03  0.7818608E-02  0.1166387E+00
         21   -1    0    0  501  502  0.00000000000E+00  0.00000000000E+00  0.21447513649E+03  0.21447513649E+03  0.00000000000E+00 0.  1.
         21   -1    0    0  502  503 -0.00000000000E+00 -0.00000000000E+00 -0.23973510595E+03  0.23973510595E+03  0.00000000000E+00 0.  1.
         -6    2    1    2    0  503 -0.27487887942E+02  0.39378975631E+02 -0.14958510483E+03  0.23370845765E+03  0.17302500364E+03 0.  0.
        -24    2    3    3    0    0 -0.61527092775E+02 -0.26981272711E+02 -0.86972845935E+02  0.13621622724E+03  0.80479888247E+02 0.  0.
          6    2    1    2  501    0  0.27487887942E+02 -0.39378975631E+02  0.12432513537E+03  0.22050178479E+03  0.17566448163E+03 0.  0.
         24    2    5    5    0    0 -0.50636458531E+01 -0.85478097875E+02  0.46651169954E+02  0.12437652106E+03  0.77207782032E+02 0.  0.
          5    1    5    5  501    0  0.32551533795E+02  0.46099122244E+02  0.77673965415E+02  0.96125263731E+02  0.47000000000E+01 0. -1.
        -11    1    6    6    0    0 -0.39737927328E+02 -0.60455781354E+02  0.32747091401E+02  0.79412696483E+02  0.00000000000E+00 0.  1.
         12    1    6    6    0    0  0.34674281475E+02 -0.25022316521E+02  0.13904078553E+02  0.44963824573E+02  0.00000000000E+00 0. -1.
         -5    1    3    3    0  503  0.34039204833E+02  0.66360248342E+02 -0.62612258895E+02  0.97492230407E+02  0.47000000000E+01 0.  1.
         13    1    4    4    0    0  0.15232393884E+02 -0.22830527142E+02 -0.29053792263E+02  0.39967257072E+02  0.00000000000E+00 0. -1.
        -14    1    4    4    0    0 -0.76759486659E+02 -0.41507455689E+01 -0.57919053672E+02  0.96248970172E+02  0.00000000000E+00 0.  1.
</event>
<event>
12    1  0.8684423E-002  0.2307733E+03  0.7818608E-02  0.1126201E+00
         21   -1    0    0  501  502  0.00000000000E+00  0.00000000000E+00  0.30332240079E+02  0.30332240079E+02  0.00000000000E+00 0.  1.
         21   -1    0    0  502  503 -0.00000000000E+00 -0.00000000000E+00 -0.20396024644E+04  0.20396024644E+04  0.00000000000E+00 0. -1.
         -6    2    1    2    0  503 -0.49585982943E+02 -0.14533818382E+03 -0.61659826686E+03  0.65836898603E+03  0.17226242101E+03 0.  0.
        -24    2    3    3    0    0 -0.71481322891E+02 -0.47905483528E+02 -0.43882050871E+03  0.45440928832E+03  0.80745573084E+02 0.  0.
          6    2    1    2  501    0  0.49585982943E+02  0.14533818382E+03 -0.13926719575E+04  0.14115657184E+04  0.17146614538E+03 0.  0.
         24    2    5    5    0    0  0.73186099594E+02  0.66235808136E+02 -0.54076742984E+03  0.55565826695E+03  0.81137593018E+02 0.  0.
          5    1    5    5  501    0 -0.23600116650E+02  0.79102375688E+02 -0.85190452763E+03  0.85590745150E+03  0.47000000000E+01 0. -1.
        -13    1    6    6    0    0 -0.94814808686E+01 -0.12182400418E+01 -0.84671311970E+01  0.12770078268E+02  0.00000000000E+00 0.  1.
         14    1    6    6    0    0  0.82667580462E+02  0.67454048178E+02 -0.53230029864E+03  0.54288818868E+03  0.00000000000E+00 0. -1.
         -5    1    3    3    0  503  0.21895339948E+02 -0.97432700296E+02 -0.17777775815E+03  0.20395969771E+03  0.47000000000E+01 0.  1.
         11    1    4    4    0    0 -0.94761594837E+01 -0.52637904866E+02 -0.24837450094E+03  0.25406778494E+03  0.00000000000E+00 0. -1.
        -12    1    4    4    0    0 -0.62005163407E+02  0.47324213385E+01 -0.19044600777E+03  0.20034150338E+03  0.00000000000E+00 0.  1.
</event>
<event>
12    1  0.8684423E-002  0.1943792E+03  0.7818608E-02  0.1157712E+00
         21   -1    0    0  503  502  0.00000000000E+00  0.00000000000E+00  0.75492887241E+03  0.75492887241E+03  0.00000000000E+00 0.  1.
         21   -1    0    0  501  503 -0.00000000000E+00 -0.00000000000E+00 -0.54811835289E+02  0.54811835289E+02  0.00000000000E+00 0.  1.
          6    2    1    2  501    0 -0.32807454490E+01 -0.65125783803E+02  0.20398774535E+03  0.28176986474E+03  0.18311506060E+03 0.  0.
         24    2    3    3    0    0  0.30208675254E+01 -0.63525068486E+02  0.23124237461E+03  0.25335899654E+03  0.81689566948E+02 0.  0.
         -6    2    1    2    0  502  0.32807454490E+01  0.65125783803E+02  0.49612929178E+03  0.52797084296E+03  0.16839479164E+03 0.  0.
        -24    2    5    5    0    0 -0.34996070229E+02 -0.17416333443E+02  0.25771072743E+03  0.27273797368E+03  0.80269107696E+02 0.  0.
          5    1    3    3  501    0 -0.63016129744E+01 -0.16007153171E+01 -0.27254629261E+02  0.28410868198E+02  0.47000000000E+01 0. -1.
        -13    1    4    4    0    0 -0.34487538530E+02 -0.55081088054E+02  0.14006387299E+03  0.15440597492E+03  0.00000000000E+00 0.  1.
         14    1    4    4    0    0  0.37508406055E+02 -0.84439804321E+01  0.91178501621E+02  0.98953021622E+02  0.00000000000E+00 0. -1.
         -5    1    5    5    0  502  0.38276815678E+02  0.82542117247E+02  0.23841856435E+03  0.25523286928E+03  0.47000000000E+01 0.  1.
         11    1    6    6    0    0 -0.25592126498E+00 -0.43354845293E+02  0.16134313027E+03  0.16706679440E+03  0.00000000000E+00 0. -1.
        -12    1    6    6    0    0 -0.34740148964E+02  0.25938511850E+02  0.96367597161E+02  0.10567117928E+03  0.00000000000E+00 0.  1.
</event>
<event>
12    1  0.8684423E-002  0.1893072E+03  0.7818608E-02  0.1159205E+00
         21   -1    0    0  501  502  0.00000000000E+00  0.00000000000E+00  0.18535414112E+04  0.18535414112E+04  0.00000000000E+00 0. -1.
         21   -1    0    0  502  503 -0.00000000000E+00 -0.00000000000E+00 -0.57782760866E+02  0.57782760866E+02  0.00000000000E+00 0.  1.
         -6    2    1    2    0  503  0.69994767211E+02  0.32375411689E+02  0.11738664819E+03  0.22230972379E+03  0.17232107648E+03 0.  0.
        -24    2    3    3    0    0  0.40929467981E+02 -0.49324185784E+02  0.73876826637E+02  0.12517677151E+03  0.78123888532E+02 0.  0.
          6    2    1    2  501    0 -0.69994767211E+02 -0.32375411689E+02  0.16783720021E+04  0.16890144483E+04  0.17288665130E+03 0.  0.
         24    2    5    5    0    0  0.68522587718E+01 -0.60460331332E+02  0.78304524786E+03  0.78994475406E+03  0.84560328573E+02 0.  0.
          5    1    5    5  501    0 -0.76847025983E+02  0.28084919644E+02  0.89532675429E+03  0.89906969422E+03  0.47000000000E+01 0. -1.
        -13    1    6    6    0    0  0.24879811246E+02  0.65102454191E+01  0.95221348689E+02  0.98633126023E+02  0.00000000000E+00 0.  1.
         14    1    6    6    0    0 -0.18027552474E+02 -0.66970576752E+02  0.68782389917E+03  0.69131162804E+03  0.00000000000E+00 0. -1.
         -5    1    3    3    0  503  0.29065299230E+02  0.81699597473E+02  0.43509821555E+02  0.97132952278E+02  0.47000000000E+01 0.  1.
         11    1    4    4    0    0  0.17927179852E+02 -0.41192733374E+02 -0.25037399138E+01  0.44994374913E+02  0.00000000000E+00 0. -1.
        -12    1    4    4    0    0  0.23002288129E+02 -0.81314524106E+01  0.76380566551E+02  0.80182396598E+02  0.00000000000E+00 0.  1.
</event>
<event>
12    1  0.8684423E-002  0.2328496E+03  0.7818608E-02  0.1124871E+00
         21   -1    0    0  503  502  0.00000000000E+00  0.00000000000E+00  0.50942088712E+02  0.50942088712E+02  0.00000000000E+00 0.  1.
         21   -1    0    0  501  503 -0.00000000000E+00 -0.00000000000E+00 -0.11076349805E+04  0.11076349805E+04  0.00000000000E+00 0. -1.
          6    2    1    2  501    0 -0.13927647353E+03 -0.68188987861E+02 -0.40495994551E+03  0.46649704678E+03  0.17198622922E+03 0.  0.
         24    2    3    3    0    0 -0.12126083841E+03  0.11943291788E+02 -0.29105787939E+03  0.32599254145E+03  0.81912238255E+02 0.  0.
         -6    2    1    2    0  502  0.13927647353E+03  0.68188987861E+02 -0.65173294624E+03  0.69208002239E+03  0.17369873356E+03 0.  0.
        -24    2    5    5    0    0  0.12689999352E+03  0.26470493702E+02 -0.61968940439E+03  0.63783531218E+03  0.77554059543E+02 0.  0.
          5    1    3    3  501    0 -0.18015635119E+02 -0.80132279649E+02 -0.11390206613E+03  0.14050450533E+03  0.47000000000E+01 0. -1.
        -13    1    4    4    0    0 -0.76772035684E+02 -0.30963625476E+02 -0.13797871629E+03  0.16090623890E+03  0.00000000000E+00 0.  1.
         14    1    4    4    0    0 -0.44488802730E+02  0.42906917263E+02 -0.15307916310E+03  0.16508630256E+03  0.00000000000E+00 0. -1.
         -5    1    5    5    0  502  0.12376480012E+02  0.41718494159E+02 -0.32043541841E+02  0.54244710213E+02  0.47000000000E+01 0.  1.
         13    1    6    6    0    0 -0.99489810251E+01  0.96353325478E+00 -0.73908068353E+02  0.74580917046E+02  0.00000000000E+00 0. -1.
        -14    1    6    6    0    0  0.13684897455E+03  0.25506960447E+02 -0.54578133604E+03  0.56325439513E+03  0.00000000000E+00 0.  1.
</event>
<event>
12    1  0.8684423E-002  0.3059225E+03  0.7818608E-02  0.1082317E+00
         21   -1    0    0  501  502  0.00000000000E+00  0.00000000000E+00  0.76607478768E+03  0.76607478768E+03  0.00000000000E+00 0.  1.
         21   -1    0    0  502  503 -0.00000000000E+00 -0.00000000000E+00 -0.13470974527E+03  0.13470974527E+03  0.00000000000E+00 0. -1.
         -6    2    1    2    0  503 -0.23625943748E+03  0.90500243510E+02  0.45311906772E+03  0.54672245554E+03  0.17198760997E+03 0.  0.
        -24    2    3    3    0    0 -0.15615454121E+03  0.35930549176E+02  0.16758533073E+03  0.24514949437E+03  0.79612727701E+02 0.  0.
          6    2    1    2  501    0  0.23625943748E+03 -0.90500243510E+02  0.17824597469E+03  0.35406207742E+03  0.17198695094E+03 0.  0.
         24    2    5    5    0    0  0.12373478015E+03 -0.60230741257E+02  0.23812016543E+02  0.16054210764E+03  0.79175237167E+02 0.  0.
          5    1    5    5  501    0  0.11252465733E+03 -0.30269502254E+02  0.15443395815E+03  0.19351996978E+03  0.47000000000E+01 0. -1.
        -13    1    6    6    0    0  0.23404778299E+02 -0.50595954553E+02  0.21424667032E+02  0.59722279107E+02  0.00000000000E+00 0.  1.
         14    1    6    6    0    0  0.10033000185E+03 -0.96347867042E+01  0.23873495108E+01  0.10081982853E+03  0.00000000000E+00 0. -1.
         -5    1    3    3    0  503 -0.80104896275E+02  0.54569694335E+02  0.28553373699E+03  0.30157296116E+03  0.47000000000E+01 0.  1.
         11    1    4    4    0    0 -0.63501895021E+02 -0.22023280009E+02  0.44805226432E+02  0.80777619730E+02  0.00000000000E+00 0. -1.
        -12    1    4    4    0    0 -0.92652646185E+02  0.57953829184E+02  0.12278010430E+03  0.16437187464E+03  0.00000000000E+00 0.  1.
</event>
<event>
12    1  0.8684423E-002  0.1953448E+03  0.7818608E-02  0.1156044E+00
         21   -1    0    0  503  502  0.00000000000E+00  0.00000000000E+00  0.77233296112E+03  0.77233296112E+03  0.00000000000E+00 0. -1.
         21   -1    0    0  501  503 -0.00000000000E+00 -0.00000000000E+00 -0.54827268370E+02  0.54827268370E+02  0.00000000000E+00 0. -1.
          6    2    1    2  501    0  0.72900548276E+02 -0.60692241234E+02  0.20914162345E+03  0.28618144174E+03  0.17076756382E+03 0.  0.
         24    2    3    3    0    0  0.44269077146E+02 -0.68865023086E+00  0.19837476705E+03  0.21866694501E+03  0.80637827389E+02 0.  0.
         -6    2    1    2    0  502 -0.72900548276E+02  0.60692241234E+02  0.50836406930E+03  0.54097878775E+03  0.15882689870E+03 0.  0.
        -24    2    5    5    0    0 -0.77171805774E+01  0.95234460426E+01  0.38252254969E+03  0.39022967470E+03  0.76193484613E+02 0.  0.
          5    1    3    3  501    0  0.28631471130E+02 -0.60003591003E+02  0.10766856395E+02  0.67514496732E+02  0.47000000000E+01 0. -1.
        -13    1    4    4    0    0  0.23821118791E+02 -0.29754145914E+02  0.35930539196E+02  0.52380898679E+02  0.00000000000E+00 0.  1.
         14    1    4    4    0    0  0.20447958356E+02  0.29065495683E+02  0.16244422785E+03  0.16628604633E+03  0.00000000000E+00 0. -1.
         -5    1    5    5    0  502 -0.65183367699E+02  0.51168795192E+02  0.12584151962E+03  0.15074911305E+03  0.47000000000E+01 0.  1.
         13    1    6    6    0    0 -0.36425437963E+01 -0.32478276738E+02  0.12153334441E+03  0.12585094513E+03  0.00000000000E+00 0. -1.
        -14    1    6    6    0    0 -0.40746367811E+01  0.42001722780E+02  0.26098920527E+03  0.26437872957E+03  0.00000000000E+00 0.  1.
</event>
<event>
12    1  0.8684423E-002  0.2992025E+03  0.7818608E-02  0.1085962E+00
         21   -1    0    0  501  502  0.00000000000E+00  0.00000000000E+00  0.76309485209E+03  0.76309485209E+03  0.00000000000E+00 0. -1.
         21   -1    0    0  502  503 -0.00000000000E+00 -0.00000000000E+00 -0.34784163356E+03  0.34784163356E+03  0.00000000000E+00 0. -1.
         -6    2    1    2    0  503  0.21622476854E+03 -0.10825757765E+03 -0.24584931213E+03  0.38527905927E+03  0.17182903010E+03 0.  0.
        -24    2    3    3    0    0  0.21057668816E+03 -0.13926443447E+03 -0.21515821989E+03  0.34103700772E+03  0.79221567413E+02 0.  0.
          6    2    1    2  501    0 -0.21622476854E+03  0.10825757765E+03  0.66110253067E+03  0.72565742638E+03  0.17620808938E+03 0.  0.
         24    2    5    5    0    0 -0.14002146334E+03  0.14102485410E+03  0.49360721864E+03  0.53868842446E+03  0.83923254727E+02 0.  0.
          5    1    5    5  501    0 -0.76203305202E+02 -0.32767276450E+02  0.16749531203E+03  0.18696900193E+03  0.47000000000E+01 0. -1.
        -13    1    6    6    0    0 -0.73164590165E+01 -0.10915267295E+02  0.20289912739E+02  0.24173419113E+02  0.00000000000E+00 0.  1.
         14    1    6    6    0    0 -0.13270500432E+03  0.15194012139E+03  0.47331730590E+03  0.51451500534E+03  0.00000000000E+00 0. -1.
         -5    1    3    3    0  503  0.56480803766E+01  0.31006856820E+02 -0.30691092246E+02  0.44242051546E+02  0.47000000000E+01 0.  1.
         11    1    4    4    0    0  0.10202798910E+02 -0.39243737042E+02 -0.36440058480E+02  0.54516473333E+02  0.00000000000E+00 0. -1.
        -12    1    4    4    0    0  0.20037388925E+03 -0.10002069742E+03 -0.17871816141E+03  0.28652053439E+03  0.00000000000E+00 0.  1.
</event>
<event>
12    1  0.8684423E-002  0.1926244E+03  0.7818608E-02  0.1156851E+00
         21   -1    0    0  503  502  0.00000000000E+00  0.00000000000E+00  0.23443927012E+02  0.23443927012E+02  0.00000000000E+00 0. -1.
         21   -1    0    0  501  503 -0.00000000000E+00 -0.00000000000E+00 -0.15557475510E+04  0.15557475510E+04  0.00000000000E+00 0. -1.
          6    2    1    2  501    0 -0.71564291391E+02  0.48613640042E+02 -0.76094242159E+03  0.78414288836E+03  0.16841011429E+03 0.  0.
         24    2    3    3    0    0 -0.69625987079E+02  0.24476275957E+02 -0.74882639900E+03  0.75666094207E+03  0.79673955915E+02 0.  0.
         -6    2    1    2    0  502  0.71564291391E+02 -0.48613640042E+02 -0.77136120236E+03  0.79504858961E+03  0.17210293878E+03 0.  0.
        -24    2    5    5    0    0  0.63230608191E+02  0.16461549098E+02 -0.25298754673E+03  0.27251862170E+03  0.77424853636E+02 0.  0.
          5    1    3    3  501    0 -0.19383043117E+01  0.24137364085E+02 -0.12116022587E+02  0.27481946291E+02  0.47000000000E+01 0. -1.
        -13    1    4    4    0    0 -0.25035598259E+02  0.29363025831E+02 -0.11606005700E+03  0.12230660366E+03  0.00000000000E+00 0.  1.
         14    1    4    4    0    0 -0.44590388820E+02 -0.48867498741E+01 -0.63276634200E+03  0.63435433842E+03  0.00000000000E+00 0. -1.
         -5    1    5    5    0  502  0.83336832001E+01 -0.65075189140E+02 -0.51837365562E+03  0.52252996791E+03  0.47000000000E+01 0.  1.
         13    1    6    6    0    0  0.28883786114E+02 -0.29807466272E+02 -0.13455766013E+03  0.14081378499E+03  0.00000000000E+00 0. -1.
        -14    1    6    6    0    0  0.34346822077E+02  0.46269015369E+02 -0.11842988661E+03  0.13170483671E+03  0.00000000000E+00 0.  1.
</event>
<event>
12    1  0.8684423E-002  0.1940343E+03  0.7818608E-02  0.1155755E+00
         21   -1    0    0  503  502  0.00000000000E+00  0.00000000000E+00  0.72087584949E+02  0.72087584949E+02  0.00000000000E+00 0. -1.
         21   -1    0    0  501  503 -0.00000000000E+00 -0.00000000000E+00 -0.85461264238E+03  0.85461264238E+03  0.00000000000E+00 0.  1.
          6    2    1    2  501    0  0.29186016567E+02 -0.74273100067E+02 -0.68236870242E+03  0.70834131974E+03  0.17248786116E+03 0.  0.
         24    2    3    3    0    0 -0.27466089253E+02  0.12024870805E+02 -0.26874648053E+03  0.28200549751E+03  0.80021536188E+02 0.  0.
         -6    2    1    2    0  502 -0.29186016567E+02  0.74273100067E+02 -0.10015635501E+03  0.21835890759E+03  0.17686435514E+03 0.  0.
        -24    2    5    5    0    0 -0.16177029093E+02  0.75854181876E+02  0.50481038320E+01  0.11223727108E+03  0.80970170369E+02 0.  0.
          5    1    3    3  501    0  0.56652105820E+02 -0.86297970872E+02 -0.41362222189E+03  0.42633582223E+03  0.47000000000E+01 0. -1.
        -11    1    4    4    0    0 -0.52597404179E+02 -0.74000390360E+01 -0.15190388606E+03  0.16092245991E+03  0.00000000000E+00 0.  1.
         12    1    4    4    0    0  0.25131314926E+02  0.19424909841E+02 -0.11684259447E+03  0.12108303760E+03  0.00000000000E+00 0. -1.
         -5    1    5    5    0  502 -0.13008987475E+02 -0.15810818090E+01 -0.10520445884E+03  0.10612163651E+03  0.47000000000E+01 0.  1.
         13    1    6    6    0    0  0.23466426542E+02  0.59179500436E+02  0.19959880640E+02  0.66717938230E+02  0.00000000000E+00 0. -1.
        -14    1    6    6    0    0 -0.39643455635E+02  0.16674681440E+02 -0.14911776808E+02  0.45519332853E+02  0.00000000000E+00 0.  1.
</event>
<event>
12    1  0.8684423E-002  0.3818202E+03  0.7818608E-02  0.1050270E+00
         21   -1    0    0  503  502  0.00000000000E+00  0.00000000000E+00  0.68645829049E+03  0.68645829049E+03  0.00000000000E+00 0.  1.
         21   -1    0    0  501  503 -0.00000000000E+00 -0.00000000000E+00 -0.23790034693E+03  0.23790034693E+03  0.00000000000E+00 0. -1.
          6    2    1    2  501    0  0.30035302260E+03  0.16015938403E+03  0.72786688914E+02  0.38869600680E+03  0.17298473095E+03 0.  0.
         24    2    3    3    0    0  0.25194550358E+03  0.15463480171E+03  0.63971287947E+01  0.30621284124E+03  0.79604787616E+02 0.  0.
         -6    2    1    2    0  502 -0.30035302260E+03 -0.16015938403E+03  0.37577125465E+03  0.53566263062E+03  0.17282202275E+03 0.  0.
        -24    2    5    5    0    0 -0.15043399687E+03 -0.24139631517E+02  0.22557609127E+03  0.28355597769E+03  0.79412280585E+02 0.  0.
          5    1    3    3  501    0  0.48407519026E+02  0.55245823160E+01  0.66389560119E+02  0.82483165560E+02  0.47000000000E+01 0. -1.
        -11    1    4    4    0    0  0.18281391074E+02  0.33420582579E+02  0.19218803346E+02  0.42667399752E+02  0.00000000000E+00 0.  1.
         12    1    4    4    0    0  0.23366411250E+03  0.12121421913E+03 -0.12821674552E+02  0.26354544149E+03  0.00000000000E+00 0. -1.
         -5    1    5    5    0  502 -0.14991902573E+03 -0.13601975251E+03  0.15019516338E+03  0.25210665293E+03  0.47000000000E+01 0.  1.
         11    1    6    6    0    0 -0.81108379372E+01  0.20776078679E+02  0.34906806197E+02  0.41423619545E+02  0.00000000000E+00 0. -1.
        -12    1    6    6    0    0 -0.14232315894E+03 -0.44915710197E+02  0.19066928507E+03  0.24213235815E+03  0.00000000000E+00 0.  1.
</event>
<event>
12    1  0.8684423E-002  0.2054011E+03  0.7818608E-02  0.1145889E+00
         21   -1    0    0  503  502  0.00000000000E+00  0.00000000000E+00  0.59737789853E+03  0.59737789853E+03  0.00000000000E+00 0.  1.
         21   -1    0    0  501  503 -0.00000000000E+00 -0.00000000000E+00 -0.13965085400E+03  0.13965085400E+03  0.00000000000E+00 0.  1.
          6    2    1    2  501    0 -0.10441106679E+03  0.19808604132E+02 -0.33030541389E+02  0.20502065849E+03  0.17218711356E+03 0.  0.
         24    2    3    3    0    0 -0.55674960623E+02  0.11855567314E+02  0.49127940310E+02  0.10904897019E+03  0.78980172600E+02 0.  0.
         -6    2    1    2    0  502  0.10441106679E+03 -0.19808604132E+02  0.49075758592E+03  0.53200809404E+03  0.17577130688E+03 0.  0.
        -24    2    5    5    0    0  0.12193582074E+02  0.22100720957E+02  0.15073212974E+03  0.17718439576E+03  0.89649371734E+02 0.  0.
          5    1    3    3  501    0 -0.48736106168E+02  0.79530368180E+01 -0.82158481699E+02  0.95971688295E+02  0.47000000000E+01 0. -1.
        -13    1    4    4    0    0 -0.45130360265E+02 -0.73681365471E+01 -0.92810909183E+01  0.46660234703E+02  0.00000000000E+00 0.  1.
         14    1    4    4    0    0 -0.10544600358E+02  0.19223703861E+02  0.58409031228E+02  0.62388735488E+02  0.00000000000E+00 0. -1.
         -5    1    5    5    0  502  0.92217484718E+02 -0.41909325089E+02  0.34002545618E+03  0.35482369829E+03  0.47000000000E+01 0.  1.
         13    1    6    6    0    0  0.12986361349E+02 -0.29245764626E+02  0.10001283591E+03  0.10500727440E+03  0.00000000000E+00 0. -1.
        -14    1    6    6    0    0 -0.79277927546E+00  0.51346485583E+02  0.50719293830E+02  0.72177121357E+02  0.00000000000E+00 0.  1.
</event>
<event>
12    1  0.8684423E-002  0.2008669E+03  0.7818608E-02  0.1149320E+00
         21   -1    0    0  501  502  0.00000000000E+00  0.00000000000E+00  0.44042357189E+03  0.44042357189E+03  0.00000000000E+00 0. -1.
         21   -1    0    0  502  503 -0.00000000000E+00 -0.00000000000E+00 -0.14723228283E+03  0.14723228283E+03  0.00000000000E+00 0. -1.
         -6    2    1    2    0  503  0.52290934833E+02  0.86852792972E+02 -0.35419617565E+02  0.20251610744E+03  0.17169879135E+03 0.  0.
        -24    2    3    3    0    0  0.68810773962E+02  0.11976521272E+03 -0.16060786363E+02  0.16064742220E+03  0.80442629301E+02 0.  0.
          6    2    1    2  501    0 -0.52290934833E+02 -0.86852792972E+02  0.32861090662E+03  0.38513974727E+03  0.17340630745E+03 0.  0.
         24    2    5    5    0    0 -0.25431552020E+02 -0.11303263002E+03  0.12729141628E+03  0.18030215915E+03  0.53690079616E+02 0.  0.
          5    1    5    5  501    0 -0.26859382813E+02  0.26179837048E+02  0.20131949035E+03  0.20483758812E+03  0.47000000000E+01 0. -1.
        -11    1    6    6    0    0  0.15847875461E+02 -0.19126109202E+02  0.29685215720E+02  0.38706268771E+02  0.00000000000E+00 0.  1.
         12    1    6    6    0    0 -0.41279427481E+02 -0.93906520818E+02  0.97606200557E+02  0.14159589038E+03  0.00000000000E+00 0. -1.
         -5    1    3    3    0  503 -0.16519839129E+02 -0.32912419748E+02 -0.19358831201E+02  0.41868685243E+02  0.47000000000E+01 0.  1.
         11    1    4    4    0    0  0.63151216437E+02  0.46624692418E+02  0.16782140811E+02  0.80271902499E+02  0.00000000000E+00 0. -1.
        -12    1    4    4    0    0  0.56595575251E+01  0.73140520303E+02 -0.32842927174E+02  0.80375519699E+02  0.00000000000E+00 0.  1.
</event>
<event>
12    1  0.8684423E-002  0.1986488E+03  0.7818608E-02  0.1151644E+00
         21   -1    0    0  503  502  0.00000000000E+00  0.00000000000E+00  0.87506204935E+02  0.87506204935E+02  0.00000000000E+00 0.  1.
         21   -1    0    0  501  503 -0.00000000000E+00 -0.00000000000E+00 -0.81472714017E+03  0.81472714017E+03  0.00000000000E+00 0. -1.
          6    2    1    2  501    0 -0.95869232106E+02  0.47652054528E+01 -0.66656034574E+03  0.69452911925E+03  0.16986578855E+03 0.  0.
         24    2    3    3    0    0 -0.71625504032E+01  0.16706847970E+02 -0.16263990882E+03  0.18269967993E+03  0.81221993380E+02 0.  0.
         -6    2    1    2    0  502  0.95869232106E+02 -0.47652054528E+01 -0.60660589493E+02  0.20770422585E+03  0.17391872088E+03 0.  0.
        -24    2    5    5    0    0  0.29299739119E+02  0.62778554827E+02 -0.33449568807E+02  0.10893081548E+03  0.77119564639E+02 0.  0.
          5    1    3    3  501    0 -0.88706681703E+02 -0.11941642517E+02 -0.50392043692E+03  0.51182943931E+03  0.47000000000E+01 0. -1.
        -11    1    4    4    0    0  0.25619362359E+02  0.34154125712E+02 -0.11231669848E+03  0.12015779953E+03  0.00000000000E+00 0.  1.
         12    1    4    4    0    0 -0.32781912762E+02 -0.17447277742E+02 -0.50323210340E+02  0.62541880399E+02  0.00000000000E+00 0. -1.
         -5    1    5    5    0  502  0.66569492988E+02 -0.67543760280E+02 -0.27211020686E+02  0.98773410371E+02  0.47000000000E+01 0.  1.
         11    1    6    6    0    0 -0.69795320732E+01  0.18879177695E+02 -0.46355165139E+02  0.50536507136E+02  0.00000000000E+00 0. -1.
        -12    1    6    6    0    0  0.36279271192E+02  0.43899377132E+02  0.12905596333E+02  0.58394308349E+02  0.00000000000E+00 0.  1.
</event>
<event>
12    1  0.8684423E-002  0.2521181E+03  0.7818608E-02  0.1112132E+00
         21   -1    0    0  503  502  0.00000000000E+00  0.00000000000E+00  0.28510027431E+03  0.28510027431E+03  0.00000000000E+00 0. -1.
         21   -1    0    0  501  503 -0.00000000000E+00 -0.00000000000E+00 -0.24249105188E+03  0.24249105188E+03  0.00000000000E+00 0. -1.
          6    2    1    2  501    0 -0.17566613730E+02 -0.18233296694E+03 -0.55308637259E+02  0.25712609980E+03  0.17175822860E+03 0.  0.
         24    2    3    3    0    0 -0.13482763316E+01 -0.12749582417E+03  0.30136047670E+02  0.15420364900E+03  0.81323926161E+02 0.  0.
         -6    2    1    2    0  502  0.17566613730E+02  0.18233296694E+03  0.97917859684E+02  0.27046522639E+03  0.17323289148E+03 0.  0.
        -24    2    5    5    0    0  0.27995246100E+02  0.14423876009E+03  0.13569480727E+03  0.21560984618E+03  0.80535528397E+02 0.  0.
          5    1    3    3  501    0 -0.16218337399E+02 -0.54837142770E+02 -0.85444684929E+02  0.10292245080E+03  0.47000000000E+01 0. -1.
        -11    1    4    4    0    0 -0.34922380698E+02 -0.34676071800E+02  0.25406985290E+02  0.55385174286E+02  0.00000000000E+00 0.  1.
         12    1    4    4    0    0  0.33574104366E+02 -0.92819752373E+02  0.47290623798E+01  0.98818474718E+02  0.00000000000E+00 0. -1.
         -5    1    5    5    0  502 -0.10428632370E+02  0.38094206853E+02 -0.37776947587E+02  0.54855380209E+02  0.47000000000E+01 0.  1.
         13    1    6    6    0    0 -0.82452554961E+01  0.78887449536E+02  0.27161986453E+02  0.83839056773E+02  0.00000000000E+00 0. -1.
        -14    1    6    6    0    0  0.36240501596E+02  0.65351310553E+02  0.10853282082E+03  0.13177078941E+03  0.00000000000E+00 0.  1.
</event>
<event>
12    1  0.8684423E-002  0.2112929E+03  0.7818608E-02  0.1140727E+00
         21   -1    0    0  501  502  0.00000000000E+00  0.00000000000E+00  0.96140215867E+02  0.96140215867E+02  0.00000000000E+00 0. -1.
         21   -1    0    0  502  503 -0.00000000000E+00 -0.00000000000E+00 -0.46663303444E+03  0.46663303444E+03  0.00000000000E+00 0. -1.
         -6    2    1    2    0  503  0.47140023827E+02  0.11376728448E+03 -0.21259580038E+03  0.29973600013E+03  0.17169600628E+03 0.  0.
        -24    2    3    3    0    0  0.79860753432E+02  0.11130873147E+03 -0.21418816852E+03  0.26654991472E+03  0.80030693266E+02 0.  0.
          6    2    1    2  501    0 -0.47140023827E+02 -0.11376728448E+03 -0.15789701819E+03  0.26303725017E+03  0.17056362379E+03 0.  0.
         24    2    5    5    0    0 -0.40360698555E+02 -0.12700205667E+03 -0.17833220615E+03  0.23733111563E+03  0.82250679690E+02 0.  0.
          5    1    5    5  501    0 -0.67793252718E+01  0.13234772190E+02  0.20435187961E+02  0.25706134541E+02  0.47000000000E+01 0. -1.
        -13    1    6    6    0    0 -0.28760346849E+02 -0.23576927459E+01 -0.52066034268E+02  0.59528045410E+02  0.00000000000E+00 0.  1.
         14    1    6    6    0    0 -0.11600351706E+02 -0.12464436393E+03 -0.12626617188E+03  0.17780307022E+03  0.00000000000E+00 0. -1.
         -5    1    3    3    0  503 -0.32720729604E+02  0.24585530119E+01  0.15923681347E+01  0.33186085413E+02  0.47000000000E+01 0.  1.
         13    1    4    4    0    0  0.30568050721E+02  0.69548640638E+02 -0.17552553281E+03  0.19126063841E+03  0.00000000000E+00 0. -1.
        -14    1    4    4    0    0  0.49292702711E+02  0.41760090832E+02 -0.38662635714E+02  0.75289276309E+02  0.00000000000E+00 0.  1.
</event>
<event>
12    1  0.8684423E-002  0.2051250E+03  0.7818608E-02  0.1146193E+00
         21   -1    0    0  503  502  0.00000000000E+00  0.00000000000E+00  0.15953421934E+03  0.15953421934E+03  0.00000000000E+00 0.  1.
         21   -1    0    0  501  503 -0.00000000000E+00 -0.00000000000E+00 -0.25937191126E+03  0.25937191126E+03  0.00000000000E+00 0.  1.
          6    2    1    2  501    0 -0.87645166905E+02 -0.61511928065E+02 -0.52372194212E+02  0.21170526122E+03  0.17495964770E+03 0.  0.
         24    2    3    3    0    0 -0.10733634920E+03 -0.94794975614E+02 -0.30451959349E+02  0.16700525439E+03  0.80350817692E+02 0.  0.
         -6    2    1    2    0  502  0.87645166905E+02  0.61511928065E+02 -0.47465497710E+02  0.20720086938E+03  0.17092054945E+03 0.  0.
        -24    2    5    5    0    0  0.10662744024E+03  0.86152372568E+02 -0.65161256748E+02  0.17110782166E+03  0.78995284293E+02 0.  0.
          5    1    3    3  501    0  0.19691182292E+02  0.33283047549E+02 -0.21920234863E+02  0.44700006830E+02  0.47000000000E+01 0. -1.
        -13    1    4    4    0    0 -0.62855207089E+02 -0.13504702619E+02 -0.36882652293E+02  0.74118041603E+02  0.00000000000E+00 0.  1.
         14    1    4    4    0    0 -0.44481142109E+02 -0.81290272995E+02  0.64306929439E+01  0.92887212783E+02  0.00000000000E+00 0. -1.
         -5    1    5    5    0  502 -0.18982273331E+02 -0.24640444503E+02  0.17695759039E+02  0.36093047725E+02  0.47000000000E+01 0.  1.
         11    1    6    6    0    0  0.52624972583E+01  0.43810316896E+02 -0.15198626498E+01  0.44151418170E+02  0.00000000000E+00 0. -1.
        -12    1    6    6    0    0  0.10136494298E+03  0.42342055672E+02 -0.63641394099E+02  0.12695640349E+03  0.00000000000E+00 0.  1.
</event>
<event>
12    1  0.8684423E-002  0.2736945E+03  0.7818608E-02  0.1099198E+00
         21   -1    0    0  503  502  0.00000000000E+00  0.00000000000E+00  0.46931290269E+03  0.46931290269E+03  0.00000000000E+00 0.  1.
         21   -1    0    0  501  503 -0.00000000000E+00 -0.00000000000E+00 -0.19001059627E+03  0.19001059627E+03  0.00000000000E+00 0. -1.
          6    2    1    2  501    0  0.82094165862E+01  0.21403084647E+03  0.76489659225E+01  0.27370161640E+03  0.17022770157E+03 0.  0.
         24    2    3    3    0    0 -0.26858091295E+02  0.10617927210E+03  0.60976718180E+02  0.14829176287E+03  0.79226838153E+02 0.  0.
         -6    2    1    2    0  502 -0.82094165862E+01 -0.21403084647E+03  0.27165334050E+03  0.38562188255E+03  0.17038808978E+03 0.  0.
        -24    2    5    5    0    0  0.53575480052E+02 -0.10264775991E+03  0.18236624801E+03  0.23000106034E+03  0.78969264041E+02 0.  0.
          5    1    3    3  501    0  0.35067507882E+02  0.10785157436E+03 -0.53327752258E+02  0.12540985353E+03  0.47000000000E+01 0. -1.
        -13    1    4    4    0    0 -0.30190806641E+02  0.99109697942E+02  0.18677010715E+02  0.10527605502E+03  0.00000000000E+00 0.  1.
         14    1    4    4    0    0  0.33327153452E+01  0.70695741621E+01  0.42299707465E+02  0.43015707852E+02  0.00000000000E+00 0. -1.
         -5    1    5    5    0  502 -0.61784896638E+02 -0.11138308655E+03  0.89287092484E+02  0.15562082222E+03  0.47000000000E+01 0.  1.
         11    1    6    6    0    0  0.20669461665E+02 -0.10355558290E+03  0.12293176071E+03  0.16205925825E+03  0.00000000000E+00 0. -1.
        -12    1    6    6    0    0  0.32906018386E+02  0.90782298818E+00  0.59434487306E+02  0.67941802081E+02  0.00000000000E+00 0.  1.
</event>
<event>
12    1  0.8684423E-002  0.2493172E+03  0.7818608E-02  0.1113811E+00
         21   -1    0    0  503  502  0.00000000000E+00  0.00000000000E+00  0.56074246556E+02  0.56074246556E+02  0.00000000000E+00 0.  1.
         21   -1    0    0  501  503 -0.00000000000E+00 -0.00000000000E+00 -0.12957482246E+04  0.12957482246E+04  0.00000000000E+00 0. -1.
          6    2    1    2  501    0  0.16041201872E+03 -0.80267009720E+02 -0.87867859905E+03  0.91336474535E+03  0.17315966337E+03 0.  0.
         24    2    3    3    0    0  0.67808857261E+02 -0.25674683758E+02 -0.66930795705E+03  0.67796333648E+03  0.80024457085E+02 0.  0.
         -6    2    1    2    0  502 -0.16041201872E+03  0.80267009720E+02 -0.36099537903E+03  0.43845772584E+03  0.17248972454E+03 0.  0.
        -24    2    5    5    0    0 -0.99115958760E+02  0.50311549820E+02 -0.34215555406E+03  0.36752419675E+03  0.75155749609E+02 0.  0.
          5    1    3    3  501    0  0.92603161457E+02 -0.54592325962E+02 -0.20937064200E+03  0.23540140887E+03  0.47000000000E+01 0. -1.
        -13    1    4    4    0    0  0.23172666064E+02  0.76165982369E+01 -0.45075383276E+02  0.51252075067E+02  0.00000000000E+00 0.  1.
         14    1    4    4    0    0  0.44636191197E+02 -0.33291281995E+02 -0.62423257377E+03  0.62671126141E+03  0.00000000000E+00 0. -1.
         -5    1    5    5    0  502 -0.61296059957E+02  0.29955459900E+02 -0.18839824970E+02  0.70933529089E+02  0.47000000000E+01 0.  1.
         11    1    6    6    0    0 -0.70876972925E+02  0.70087725547E+02 -0.25721743013E+03  0.27585619610E+03  0.00000000000E+00 0. -1.
        -12    1    6    6    0    0 -0.28238985835E+02 -0.19776175727E+02 -0.84938123927E+02  0.91668000652E+02  0.00000000000E+00 0.  1.
</event>
<event>
12    1  0.8684423E-002  0.2010517E+03  0.7818608E-02  0.1148947E+00
         21   -1    0    0  503  502  0.00000000000E+00  0.00000000000E+00  0.17763538425E+04  0.17763538425E+04  0.00000000000E+00 0.  1.
         21   -1    0    0  501  503 -0.00000000000E+00 -0.00000000000E+00 -0.48894576633E+02  0.48894576633E+02  0.00000000000E+00 0. -1.
          6    2    1    2  501    0 -0.10362859563E+03  0.92171806248E-01  0.19538186141E+03  0.28003549964E+03  0.17177576943E+03 0.  0.
         24    2    3    3    0    0 -0.12311246319E+02  0.35881619883E+02  0.58972202698E+02  0.11195983850E+03  0.87282457078E+02 0.  0.
         -6    2    1    2    0  502  0.10362859563E+03 -0.92171806248E-01  0.15320774045E+04  0.15452129195E+04  0.17228725722E+03 0.  0.
        -24    2    5    5    0    0  0.11627780472E+03  0.11183803957E+02  0.76353061001E+03  0.77646496641E+03  0.79203827532E+02 0.  0.
          5    1    3    3  501    0 -0.91317349310E+02 -0.35789448077E+02  0.13640965871E+03  0.16807566114E+03  0.47000000000E+01 0. -1.
        -11    1    4    4    0    0 -0.32597186785E+02  0.50158252950E+02  0.15318123017E+02  0.61750075450E+02  0.00000000000E+00 0.  1.
         12    1    4    4    0    0  0.20285940467E+02 -0.14276633066E+02  0.43654079681E+02  0.50209763046E+02  0.00000000000E+00 0. -1.
         -5    1    5    5    0  502 -0.12649209094E+02 -0.11275975763E+02  0.76854679449E+03  0.76874795313E+03  0.47000000000E+01 0.  1.
         11    1    6    6    0    0  0.39054729810E+02  0.42080227324E+02  0.34597376132E+03  0.35070480603E+03  0.00000000000E+00 0. -1.
        -12    1    6    6    0    0  0.77223074913E+02 -0.30896423368E+02  0.41755684869E+03  0.42576016038E+03  0.00000000000E+00 0.  1.
</event>
<event>
12    1  0.8684423E-002  0.1762337E+03  0.7818608E-02  0.1171709E+00
         21   -1    0    0  501  502  0.00000000000E+00  0.00000000000E+00  0.18823579676E+04  0.18823579676E+04  0.00000000000E+00 0.  1.
         21   -1    0    0  502  503 -0.00000000000E+00 -0.00000000000E+00 -0.16691027515E+02  0.16691027515E+02  0.00000000000E+00 0.  1.
         -6    2    1    2    0  503  0.12570157567E+02 -0.34786263023E+02  0.10558023982E+04  0.10704097365E+04  0.17230846481E+03 0.  0.
        -24    2    3    3    0    0  0.54508252836E+02 -0.53213055778E+02  0.92993465728E+03  0.93638313942E+03  0.78943891792E+02 0.  0.
          6    2    1    2  501    0 -0.12570157567E+02  0.34786263023E+02  0.80986454192E+03  0.82863925863E+03  0.17144781049E+03 0.  0.
         24    2    5    5    0    0  0.18554795121E+02 -0.15066765784E+02  0.66931474351E+03  0.67622396086E+03  0.93409482941E+02 0.  0.
          5    1    5    5  501    0 -0.31124952688E+02  0.49853028807E+02  0.14054979841E+03  0.15241529777E+03  0.47000000000E+01 0. -1.
        -13    1    6    6    0    0  0.10948873268E+02 -0.53277757568E+01  0.75146114224E+01  0.14308473196E+02  0.00000000000E+00 0.  1.
         14    1    6    6    0    0  0.76059218529E+01 -0.97389900267E+01  0.66180013209E+03  0.66191548766E+03  0.00000000000E+00 0. -1.
         -5    1    3    3    0  503 -0.41938095270E+02  0.18426792754E+02  0.12586774090E+03  0.13402659708E+03  0.47000000000E+01 0.  1.
         11    1    4    4    0    0  0.32791434454E+02 -0.14261023710E+02  0.11982154693E+03  0.12504342478E+03  0.00000000000E+00 0. -1.
        -12    1    4    4    0    0  0.21716818382E+02 -0.38952032068E+02  0.81011311035E+03  0.81133971464E+03  0.00000000000E+00 0.  1.
</event>
<event>
12    1  0.8684423E-002  0.2010186E+03  0.7818608E-02  0.1149025E+00
         21   -1    0    0  503  502  0.00000000000E+00  0.00000000000E+00  0.40994050836E+03  0.40994050836E+03  0.00000000000E+00 0.  1.
         21   -1    0    0  501  503 -0.00000000000E+00 -0.00000000000E+00 -0.10896939361E+03  0.10896939361E+03  0.00000000000E+00 0.  1.
          6    2    1    2  501    0 -0.93099116118E+02  0.44607438064E+02  0.23167130569E+03  0.30628128050E+03  0.17169554436E+03 0.  0.
         24    2    3    3    0    0 -0.13099759693E+03  0.23809758515E+02  0.16148471127E+03  0.22371563172E+03  0.79019598209E+02 0.  0.
         -6    2    1    2    0  502  0.93099116118E+02 -0.44607438064E+02  0.69299809058E+02  0.21262862147E+03  0.17248535642E+03 0.  0.
        -24    2    5    5    0    0  0.11213233017E+03  0.16413927499E+02  0.46973195483E+02  0.14475787692E+03  0.76845854473E+02 0.  0.
          5    1    3    3  501    0  0.37898480811E+02  0.20797679549E+02  0.70186594418E+02  0.82565648780E+02  0.47000000000E+01 0. -1.
        -13    1    4    4    0    0 -0.72738279621E+02  0.35256887205E+02  0.13786949713E+03  0.15981834581E+03  0.00000000000E+00 0.  1.
         14    1    4    4    0    0 -0.58259317308E+02 -0.11447128690E+02  0.23615214141E+02  0.63897285916E+02  0.00000000000E+00 0. -1.
         -5    1    5    5    0  502 -0.19033214055E+02 -0.61021365562E+02  0.22326613575E+02  0.67870744552E+02  0.47000000000E+01 0.  1.
         13    1    6    6    0    0  0.12033880201E+02  0.31958388434E+02  0.28515382147E+01  0.34267829435E+02  0.00000000000E+00 0. -1.
        -14    1    6    6    0    0  0.10009844997E+03 -0.15544460935E+02  0.44121657268E+02  0.11049004748E+03  0.00000000000E+00 0.  1.
</event>
<event>
12    1  0.8684423E-002  0.2173300E+03  0.7818608E-02  0.1135925E+00
         21   -1    0    0  501  502  0.00000000000E+00  0.00000000000E+00  0.24976469730E+04  0.24976469730E+04  0.00000000000E+00 0. -1.
         21   -1    0    0  502  503 -0.00000000000E+00 -0.00000000000E+00 -0.46935763104E+02  0.46935763104E+02  0.00000000000E+00 0. -1.
         -6    2    1    2    0  503  0.26976913593E+02  0.12913188915E+03  0.24172822496E+03  0.32493453044E+03  0.17247352163E+03 0.  0.
        -24    2    3    3    0    0 -0.30758037610E+02  0.64208697108E+02  0.20384359406E+03  0.23003626537E+03  0.79345188143E+02 0.  0.
          6    2    1    2  501    0 -0.26976913593E+02 -0.12913188915E+03  0.22089829849E+04  0.22196482056E+04  0.17271227678E+03 0.  0.
         24    2    5    5    0    0 -0.45389883319E+02 -0.13467882677E+02  0.70500476592E+03  0.71110925254E+03  0.80018895930E+02 0.  0.
          5    1    5    5  501    0  0.18412969726E+02 -0.11566400647E+03  0.15039782190E+04  0.15085389531E+04  0.47000000000E+01 0. -1.
        -11    1    6    6    0    0  0.25115384397E+00  0.80509059724E+01  0.49722311378E+03  0.49728835201E+03  0.00000000000E+00 0.  1.
         12    1    6    6    0    0 -0.45641037163E+02 -0.21518788649E+02  0.20778165213E+03  0.21382090053E+03  0.00000000000E+00 0. -1.
         -5    1    3    3    0  503  0.57734951203E+02  0.64923192037E+02  0.37884630903E+02  0.94898265071E+02  0.47000000000E+01 0.  1.
         13    1    4    4    0    0  0.20638258102E+02  0.39973059026E+02  0.57220322760E+02  0.72787007647E+02  0.00000000000E+00 0. -1.
        -14    1    4    4    0    0 -0.51396295712E+02  0.24235638082E+02  0.14662327130E+03  0.15724925772E+03  0.00000000000E+00 0.  1.
</event>
<event>
12    1  0.8684423E-002  0.1811440E+03  0.7818608E-02  0.1167036E+00
         21   -1    0    0  501  502  0.00000000000E+00  0.00000000000E+00  0.18571167402E+03  0.18571167402E+03  0.00000000000E+00 0. -1.
         21   -1    0    0  502  503 -0.00000000000E+00 -0.00000000000E+00 -0.24104747929E+03  0.24104747929E+03  0.00000000000E+00 0. -1.
         -6    2    1    2    0  503  0.82719691727E+01 -0.56899593949E+02 -0.13915861802E+03  0.22842559611E+03  0.17177643238E+03 0.  0.
        -24    2    3    3    0    0  0.97632622235E+01  0.33748886741E+02 -0.86207971919E+02  0.12332929774E+03  0.80894948015E+02 0.  0.
          6    2    1    2  501    0 -0.82719691727E+01  0.56899593949E+02  0.83822812747E+02  0.19833355721E+03  0.17030545121E+03 0.  0.
         24    2    5    5    0    0  0.49474520205E+02  0.39552377895E+02  0.20975403503E+01  0.96664028397E+02  0.72989149631E+02 0.  0.
          5    1    5    5  501    0 -0.57746489378E+02  0.17347216055E+02  0.81725272397E+02  0.10166952881E+03  0.47000000000E+01 0. -1.
        -13    1    6    6    0    0  0.49537392846E+02  0.36403427244E+02  0.30125584396E+02  0.68459576688E+02  0.00000000000E+00 0.  1.
         14    1    6    6    0    0 -0.62872640747E-01  0.31489506506E+01 -0.28028044046E+02  0.28204451709E+02  0.00000000000E+00 0. -1.
         -5    1    3    3    0  503 -0.14912930508E+01 -0.90648480691E+02 -0.52950646103E+02  0.10509629836E+03  0.47000000000E+01 0.  1.
         13    1    4    4    0    0  0.68316659798E+01 -0.25946029152E+02 -0.38136391699E+02  0.46628880114E+02  0.00000000000E+00 0. -1.
        -14    1    4    4    0    0  0.29315962437E+01  0.59694915893E+02 -0.48071580220E+02  0.76700417631E+02  0.00000000000E+00 0.  1.
</event>
<event>
12    1  0.8684423E-002  0.2093706E+03  0.7818608E-02  0.1142150E+00
         21   -1    0    0  501  502  0.00000000000E+00  0.00000000000E+00  0.59982481983E+03  0.59982481983E+03  0.00000000000E+00 0. -1.
         21   -1    0    0  502  503 -0.00000000000E+00 -0.00000000000E+00 -0.18820299711E+03  0.18820299711E+03  0.00000000000E+00 0. -1.
         -6    2    1    2    0  503 -0.10448138061E+03  0.57487422495E+02 -0.10263015681E+03  0.23278808706E+03  0.17156975768E+03 0.  0.
        -24    2    3    3    0    0 -0.12562996494E+03  0.78828492688E+02 -0.10544374277E+03  0.20224778316E+03  0.88255104965E+02 0.  0.
          6    2    1    2  501    0  0.10448138061E+03 -0.57487422495E+02  0.51425197953E+03  0.55523972988E+03  0.17208979212E+03 0.  0.
         24    2    5    5    0    0  0.12642826001E+03 -0.18127352018E+02  0.47357646427E+03  0.49435074726E+03  0.61605908671E+02 0.  0.
          5    1    5    5  501    0 -0.21946879406E+02 -0.39360070476E+02  0.40675515258E+02  0.60888982625E+02  0.47000000000E+01 0. -1.
        -13    1    6    6    0    0  0.51858055775E+01  0.13896308075E+02  0.77166017986E+02  0.78578586711E+02  0.00000000000E+00 0.  1.
         14    1    6    6    0    0  0.12124245444E+03 -0.32023660094E+02  0.39641044628E+03  0.41577216055E+03  0.00000000000E+00 0. -1.
         -5    1    3    3    0  503  0.21148584334E+02 -0.21341070193E+02  0.28135859628E+01  0.30540303900E+02  0.47000000000E+01 0.  1.
         11    1    4    4    0    0 -0.11643764735E+03  0.68927124495E+02 -0.48524978718E+02  0.14374751396E+03  0.00000000000E+00 0. -1.
        -12    1    4    4    0    0 -0.91923175966E+01  0.99013681931E+01 -0.56918764053E+02  0.58500269197E+02  0.00000000000E+00 0.  1.
</event>
<event>
12    1  0.8684423E-002  0.3101673E+03  0.7818608E-02  0.1080810E+00
         21   -1    0    0  503  502  0.00000000000E+00  0.00000000000E+00  0.15189923845E+03  0.15189923845E+03  0.00000000000E+00 0. -1.
         21   -1    0    0  501  503 -0.00000000000E+00 -0.00000000000E+00 -0.78885661823E+03  0.78885661823E+03  0.00000000000E+00 0. -1.
          6    2    1    2  501    0 -0.25322007630E+03  0.42987256594E+02 -0.53524654259E+03  0.61862153785E+03  0.17388339330E+03 0.  0.
         24    2    3    3    0    0 -0.13456153538E+03 -0.48257830568E+01 -0.16878100596E+03  0.23043985921E+03  0.80532016948E+02 0.  0.
         -6    2    1    2    0  502  0.25322007630E+03 -0.42987256594E+02 -0.10171083718E+03  0.32213431883E+03  0.16570188199E+03 0.  0.
        -24    2    5    5    0    0  0.19948562612E+03 -0.76551891935E+02 -0.36674612940E+02  0.23121800376E+03  0.80386757875E+02 0.  0.
          5    1    3    3  501    0 -0.11865854092E+03  0.47813039651E+02 -0.36646553663E+03  0.38818167864E+03  0.47000000000E+01 0. -1.
        -11    1    4    4    0    0 -0.54504958405E+02 -0.41423826019E+02 -0.82135169421E+02  0.10692478622E+03  0.00000000000E+00 0.  1.
         12    1    4    4    0    0 -0.80056576976E+02  0.36598042962E+02 -0.86645836541E+02  0.12351507299E+03  0.00000000000E+00 0. -1.
         -5    1    5    5    0  502  0.53734450188E+02  0.33564635340E+02 -0.65036224242E+02  0.90916315071E+02  0.47000000000E+01 0.  1.
         11    1    6    6    0    0  0.90169029398E+02 -0.19524656627E+02  0.21736284107E+02  0.94784661869E+02  0.00000000000E+00 0. -1.
        -12    1    6    6    0    0  0.10931659672E+03 -0.57027235308E+02 -0.58410897047E+02  0.13643334189E+03  0.00000000000E+00 0.  1.
</event>
<event>
12    1  0.8684423E-002  0.2062620E+03  0.7818608E-02  0.1145227E+00
         21   -1    0    0  501  502  0.00000000000E+00  0.00000000000E+00  0.23574772191E+02  0.23574772191E+02  0.00000000000E+00 0.  1.
         21   -1    0    0  502  503 -0.00000000000E+00 -0.00000000000E+00 -0.18745811050E+04  0.18745811050E+04  0.00000000000E+00 0. -1.
         -6    2    1    2    0  503  0.10618484328E+03  0.35621020955E+02 -0.11358913075E+04  0.11538887896E+04  0.16931095132E+03 0.  0.
        -24    2    3    3    0    0 -0.28291938209E+01  0.34911495543E+02 -0.66644966519E+03  0.67193224670E+03  0.78172700250E+02 0.  0.
          6    2    1    2  501    0 -0.10618484328E+03 -0.35621020955E+02 -0.71511502526E+03  0.74426708754E+03  0.17320485030E+03 0.  0.
         24    2    5    5    0    0 -0.59059055035E+02 -0.22712750458E+02 -0.17192128471E+03  0.19885990649E+03  0.77359506589E+02 0.  0.
          5    1    5    5  501    0 -0.47125788245E+02 -0.12908270497E+02 -0.54319374055E+03  0.54540718105E+03  0.47000000000E+01 0. -1.
        -11    1    6    6    0    0  0.19538720339E+00  0.17110682211E+02 -0.58350862403E+01  0.18079321152E+02  0.00000000000E+00 0.  1.
         12    1    6    6    0    0 -0.59254442238E+02 -0.39823432670E+02 -0.16608619847E+03  0.18078058534E+03  0.00000000000E+00 0. -1.
         -5    1    3    3    0  503  0.10901403710E+03  0.70952541204E+00 -0.46944164233E+03  0.48195654292E+03  0.47000000000E+01 0.  1.
         13    1    4    4    0    0 -0.75951988877E+01  0.56796024539E+02 -0.34709542628E+03  0.35179356219E+03  0.00000000000E+00 0. -1.
        -14    1    4    4    0    0  0.47660050667E+01 -0.21884528996E+02 -0.31935423891E+03  0.32013868451E+03  0.00000000000E+00 0.  1.
</event>
<event>
12    1  0.8684423E-002  0.2397227E+03  0.7818608E-02  0.1120353E+00
         21   -1    0    0  501  502  0.00000000000E+00  0.00000000000E+00  0.33934742468E+03  0.33934742468E+03  0.00000000000E+00 0.  1.
         21   -1    0    0  502  503 -0.00000000000E+00 -0.00000000000E+00 -0.31409704651E+03  0.31409704651E+03  0.00000000000E+00 0.  1.
         -6    2    1    2    0  503  0.28741733696E+02 -0.16132816976E+03 -0.21034549560E+03  0.31892346764E+03  0.17496881174E+03 0.  0.
        -24    2    3    3    0    0  0.11227092976E+02 -0.17854836549E+03 -0.12848874721E+03  0.23333190827E+03  0.76999057272E+02 0.  0.
          6    2    1    2  501    0 -0.28741733696E+02  0.16132816976E+03  0.23559587377E+03  0.33452100354E+03  0.17188955890E+03 0.  0.
         24    2    5    5    0    0 -0.58644961878E+02  0.14896857978E+03  0.24227523771E+03  0.30114936254E+03  0.79767026008E+02 0.  0.
          5    1    5    5  501    0  0.29903228181E+02  0.12359589985E+02 -0.66793639412E+01  0.33371640998E+02  0.47000000000E+01 0. -1.
        -11    1    6    6    0    0 -0.56628976795E+02  0.97687114083E+02  0.21543823999E+03  0.24323496566E+03  0.00000000000E+00 0.  1.
         12    1    6    6    0    0 -0.20159850822E+01  0.51281465692E+02  0.26836997722E+02  0.57914396881E+02  0.00000000000E+00 0. -1.
         -5    1    3    3    0  503  0.17514640720E+02  0.17220195725E+02 -0.81856748385E+02  0.85591559376E+02  0.47000000000E+01 0.  1.
         11    1    4    4    0    0 -0.22226005804E+02 -0.63787339528E+02 -0.79036401316E+02  0.10396909517E+03  0.00000000000E+00 0. -1.
        -12    1    4    4    0    0  0.33453098780E+02 -0.11476102596E+03 -0.49452345897E+02  0.12936281309E+03  0.00000000000E+00 0.  1.
</event>
<event>
12    1  0.8684423E-002  0.2328664E+03  0.7818608E-02  0.1126016E+00
         21   -1    0    0  503  502  0.00000000000E+00  0.00000000000E+00  0.22056116205E+03  0.22056116205E+03  0.00000000000E+00 0. -1.
         21   -1    0    0  501  503 -0.00000000000E+00 -0.00000000000E+00 -0.29440106393E+03  0.29440106393E+03  0.00000000000E+00 0. -1.
          6    2    1    2  501    0  0.88869260210E+02  0.11781616157E+03  0.76594803344E+02  0.23773060323E+03  0.16991375010E+03 0.  0.
         24    2    3    3    0    0  0.24003892047E+02  0.11400656999E+03  0.67872676918E+01  0.14224651550E+03  0.81328465711E+02 0.  0.
         -6    2    1    2    0  502 -0.88869260210E+02 -0.11781616157E+03 -0.15043470522E+03  0.27723162276E+03  0.18013433538E+03 0.  0.
        -24    2    5    5    0    0 -0.21314695985E+01 -0.76600610386E+00 -0.19668257387E+02  0.81409925557E+02  0.78965851497E+02 0.  0.
          5    1    3    3  501    0  0.64865368163E+02  0.38095915764E+01  0.69807535652E+02  0.95484087725E+02  0.47000000000E+01 0. -1.
        -11    1    4    4    0    0 -0.42606658164E+01 -0.92374319779E+01  0.11955135192E+02  0.15697409984E+02  0.00000000000E+00 0.  1.
         12    1    4    4    0    0  0.28264557864E+02  0.12324400197E+03 -0.51678675007E+01  0.12654910552E+03  0.00000000000E+00 0. -1.
         -5    1    5    5    0  502 -0.86737790611E+02 -0.11705015546E+03 -0.13076644784E+03  0.19582169720E+03  0.47000000000E+01 0.  1.
         13    1    6    6    0    0 -0.32823847887E+01 -0.39090630953E+02 -0.22378160859E+01  0.39291974995E+02  0.00000000000E+00 0. -1.
        -14    1    6    6    0    0  0.11509151902E+01  0.38324624849E+02 -0.17430441301E+02  0.42117950562E+02  0.00000000000E+00 0.  1.
</event>
<event>
12    1  0.8684423E-002  0.2231104E+03  0.7818608E-02  0.1132137E+00
         21   -1    0    0  501  502  0.00000000000E+00  0.00000000000E+00  0.22454515481E+02  0.22454515481E+02  0.00000000000E+00 0.  1.
         21   -1    0    0  502  503 -0.00000000000E+00 -0.00000000000E+00 -0.26665546912E+04  0.26665546912E+04  0.00000000000E+00 0. -1.
         -6    2    1    2    0  503  0.10443290512E+03 -0.96059140494E+02 -0.18847601633E+04  0.18975703150E+04  0.16828142264E+03 0.  0.
        -24    2    3    3    0    0  0.75022082965E+02  0.99095518342E+01 -0.97493673300E+03  0.98111239209E+03  0.79708094992E+02 0.  0.
          6    2    1    2  501    0 -0.10443290512E+03  0.96059140494E+02 -0.75934001246E+03  0.79143889169E+03  0.17217628932E+03 0.  0.
         24    2    5    5    0    0 -0.91886691042E+02  0.80147091459E+02 -0.32003421276E+03  0.35164089665E+03  0.79766550605E+02 0.  0.
          5    1    5    5  501    0 -0.12546214076E+02  0.15912049035E+02 -0.43930579970E+03  0.43979799504E+03  0.47000000000E+01 0. -1.
        -13    1    6    6    0    0 -0.10009510558E+03  0.84738606074E+02 -0.31444959304E+03  0.34070252140E+03  0.00000000000E+00 0.  1.
         14    1    6    6    0    0  0.82084145386E+01 -0.45915146153E+01 -0.55846197198E+01  0.10938375250E+02  0.00000000000E+00 0. -1.
         -5    1    3    3    0  503  0.29410822154E+02 -0.10596869233E+03 -0.90982343028E+03  0.91645792293E+03  0.47000000000E+01 0.  1.
         11    1    4    4    0    0 -0.16028510869E+01  0.12852567146E+02 -0.48825313008E+03  0.48842489356E+03  0.00000000000E+00 0. -1.
        -12    1    4    4    0    0  0.76624934051E+02 -0.29430153119E+01 -0.48668360292E+03  0.49268749853E+03  0.00000000000E+00 0.  1.
</event>
<event>
12    1  0.8684423E-002  0.1986463E+03  0.7818608E-02  0.1150936E+00
         21   -1    0    0  503  502  0.00000000000E+00  0.00000000000E+00  0.12934354379E+03  0.12934354379E+03  0.00000000000E+00 0. -1.
         21   -1    0    0  501  503 -0.00000000000E+00 -0.00000000000E+00 -0.39130542975E+03  0.39130542975E+03  0.00000000000E+00 0.  1.
          6    2    1    2  501    0 -0.95312651412E+02 -0.24839894120E+02 -0.25337436556E+03  0.32181716213E+03  0.17223877282E+03 0.  0.
         24    2    3    3    0    0 -0.49110258075E+02 -0.78179973047E+02 -0.20272035950E+03  0.23482438370E+03  0.74317032983E+02 0.  0.
         -6    2    1    2    0  502  0.95312651412E+02  0.24839894120E+02 -0.85875204020E+01  0.19883181140E+03  0.17250745450E+03 0.  0.
        -24    2    5    5    0    0  0.90455063298E+02 -0.37168494867E+01  0.52893104404E+02  0.13070662520E+03  0.78042347044E+02 0.  0.
          5    1    3    3  501    0 -0.46202393337E+02  0.53340078926E+02 -0.50654006059E+02  0.86992778435E+02  0.47000000000E+01 0. -1.
        -13    1    4    4    0    0 -0.23606742294E+02  0.96837995693E+01 -0.61197850585E+02  0.66304081112E+02  0.00000000000E+00 0.  1.
         14    1    4    4    0    0 -0.25503515781E+02 -0.87863772616E+02 -0.14152250891E+03  0.16852030259E+03  0.00000000000E+00 0. -1.
         -5    1    5    5    0  502  0.48575881137E+01  0.28556743607E+02 -0.61480624807E+02  0.68125186197E+02  0.47000000000E+01 0.  1.
         13    1    6    6    0    0  0.73813256083E+02  0.15218793381E+02  0.37312604266E+01  0.75458139057E+02  0.00000000000E+00 0. -1.
        -14    1    6    6    0    0  0.16641807215E+02 -0.18935642867E+02  0.49161843978E+02  0.55248486147E+02  0.00000000000E+00 0.  1.
</event>
<event>
12    1  0.8684423E-002  0.2042243E+03  0.7818608E-02  0.1146919E+00
         21   -1    0    0  503  502  0.00000000000E+00  0.00000000000E+00  0.61349122126E+03  0.61349122126E+03  0.00000000000E+00 0.  1.
         21   -1    0    0  501  503 -0.00000000000E+00 -0.00000000000E+00 -0.67448378675E+02  0.67448378675E+02  0.00000000000E+00 0.  1.
          6    2    1    2  501    0 -0.10582993727E+02 -0.10223586790E+03  0.30679176303E+03  0.36854952092E+03  0.17647490208E+03 0.  0.
         24    2    3    3    0    0  0.40830242005E+02 -0.10399316425E+03  0.16292011922E+03  0.21568504241E+03  0.86575893855E+02 0.  0.
         -6    2    1    2    0  502  0.10582993727E+02  0.10223586790E+03  0.23925107955E+03  0.31239007901E+03  0.17257551958E+03 0.  0.
        -24    2    5    5    0    0  0.55855848847E+02  0.11094533985E+03  0.14601142092E+03  0.20826894641E+03  0.81411760301E+02 0.  0.
          5    1    3    3  501    0 -0.51413235733E+02  0.17572963495E+01  0.14387164380E+03  0.15286447851E+03  0.47000000000E+01 0. -1.
        -11    1    4    4    0    0  0.12332051680E+02  0.14309768332E+02  0.30213286995E+02  0.35632733257E+02  0.00000000000E+00 0.  1.
         12    1    4    4    0    0  0.28498190326E+02 -0.11830293258E+03  0.13270683223E+03  0.18005230915E+03  0.00000000000E+00 0. -1.
         -5    1    5    5    0  502 -0.45272855119E+02 -0.87094719500E+01  0.93239658636E+02  0.10412113260E+03  0.47000000000E+01 0.  1.
         11    1    6    6    0    0  0.72430935849E+01  0.88743855812E+02  0.11831611063E+03  0.14807645452E+03  0.00000000000E+00 0. -1.
        -12    1    6    6    0    0  0.48612755262E+02  0.22201484041E+02  0.27695310283E+02  0.60192491886E+02  0.00000000000E+00 0.  1.
</event>
<event>
12    1  0.8684423E-002  0.2175968E+03  0.7818608E-02  0.1136208E+00
         21   -1    0    0  501  502  0.00000000000E+00  0.00000000000E+00  0.48489668830E+03  0.48489668830E+03  0.00000000000E+00 0.  1.
         21   -1    0    0  502  503 -0.00000000000E+00 -0.00000000000E+00 -0.20389353744E+03  0.20389353744E+03  0.00000000000E+00 0. -1.
         -6    2    1    2    0  503  0.11056913204E+03  0.73330423764E+02 -0.10911113047E+03  0.24342067970E+03  0.17246885082E+03 0.  0.
        -24    2    3    3    0    0  0.10476008466E+03 -0.23749365264E+01 -0.87019574823E+02  0.16420468738E+03  0.91708545378E+02 0.  0.
          6    2    1    2  501    0 -0.11056913204E+03 -0.73330423764E+02  0.39011428133E+03  0.44536954604E+03  0.16900294681E+03 0.  0.
         24    2    5    5    0    0 -0.23089287510E+02 -0.77629247027E+02  0.14074561214E+03  0.18102502415E+03  0.80008229820E+02 0.  0.
          5    1    5    5  501    0 -0.87479844534E+02  0.42988232622E+01  0.24936866919E+03  0.26434452189E+03  0.47000000000E+01 0. -1.
        -13    1    6    6    0    0 -0.66251467987E+00 -0.51236087625E+02  0.13690283645E+03  0.14617784452E+03  0.00000000000E+00 0.  1.
         14    1    6    6    0    0 -0.22426772830E+02 -0.26393159402E+02  0.38427756893E+01  0.34847179624E+02  0.00000000000E+00 0. -1.
         -5    1    3    3    0  503  0.58090473879E+01  0.75705360291E+02 -0.22091555650E+02  0.79215992321E+02  0.47000000000E+01 0.  1.
         13    1    4    4    0    0  0.69668801147E+02  0.24644960452E+02 -0.93785865457E+02  0.11940228008E+03  0.00000000000E+00 0. -1.
        -14    1    4    4    0    0  0.35091283509E+02 -0.27019896978E+02  0.67662906345E+01  0.44802407301E+02  0.00000000000E+00 0.  1.
</event>
<event>
12    1  0.8684423E-002  0.3370974E+03  0.7818608E-02  0.1068052E+00
         21   -1    0    0  501  502  0.00000000000E+00  0.00000000000E+00  0.60717185113E+03  0.60717185113E+03  0.00000000000E+00 0. -1.
         21   -1    0    0  502  503 -0.00000000000E+00 -0.00000000000E+00 -0.22060837029E+03  0.22060837029E+03  0.00000000000E+00 0. -1.
         -6    2    1    2    0  503  0.96825435703E+02  0.27335099488E+03  0.31919898060E+02  0.33848816083E+03  0.17163747763E+03 0.  0.
        -24    2    3    3    0    0  0.44644933436E+02  0.24939246780E+03 -0.12375966277E+02  0.26581746911E+03  0.79473198435E+02 0.  0.
          6    2    1    2  501    0 -0.96825435703E+02 -0.27335099488E+03  0.35464358279E+03  0.48929206059E+03  0.17186831687E+03 0.  0.
         24    2    5    5    0    0 -0.12459777488E+03 -0.17152425924E+03  0.27959571744E+03  0.35969939488E+03  0.79149936503E+02 0.  0.
          5    1    5    5  501    0  0.27772339176E+02 -0.10182673564E+03  0.75047865345E+02  0.12959266572E+03  0.47000000000E+01 0. -1.
        -13    1    6    6    0    0 -0.58852442396E+02 -0.11629474576E+03  0.21812371771E+03  0.25409847322E+03  0.00000000000E+00 0.  1.
         14    1    6    6    0    0 -0.65745332483E+02 -0.55229513476E+02  0.61471999736E+02  0.10560092165E+03  0.00000000000E+00 0. -1.
         -5    1    3    3    0  503  0.52180502268E+02  0.23958527084E+02  0.44295864337E+02  0.72670691715E+02  0.47000000000E+01 0.  1.
         13    1    4    4    0    0  0.65557594449E+02  0.21467165839E+03 -0.43658639075E+01  0.22450118012E+03  0.00000000000E+00 0. -1.
        -14    1    4    4    0    0 -0.20912661013E+02  0.34720809402E+02 -0.80101023697E+01  0.41316288993E+02  0.00000000000E+00 0.  1.
</event>
<event>
12    1  0.8684423E-002  0.2485753E+03  0.7818608E-02  0.1114251E+00
         21   -1    0    0  501  502  0.00000000000E+00  0.00000000000E+00  0.17600487632E+04  0.17600487632E+04  0.00000000000E+00 0.  1.
         21   -1    0    0  502  503 -0.00000000000E+00 -0.00000000000E+00 -0.36046274573E+02  0.36046274573E+02  0.00000000000E+00 0. -1.
         -6    2    1    2    0  503  0.41862453816E+02 -0.17381895526E+03  0.71365594453E+03  0.75561926758E+03  0.17230837507E+03 0.  0.
        -24    2    3    3    0    0  0.75564641324E+02 -0.16413358631E+03  0.48217350464E+03  0.52144870198E+03  0.82265491220E+02 0.  0.
          6    2    1    2  501    0 -0.41862453816E+02  0.17381895526E+03  0.10103465441E+04  0.10404757702E+04  0.17269682959E+03 0.  0.
         24    2    5    5    0    0 -0.60934076094E+02  0.15010230820E+03  0.98319209809E+03  0.99941897950E+03  0.76993053502E+02 0.  0.
          5    1    5    5  501    0  0.19071622278E+02  0.23716647067E+02  0.27154446014E+02  0.41056790702E+02  0.47000000000E+01 0. -1.
        -13    1    6    6    0    0 -0.37480110351E+02  0.73390030333E+02  0.70781844298E+03  0.71259932883E+03  0.00000000000E+00 0.  1.
         14    1    6    6    0    0 -0.23453965743E+02  0.76712277863E+02  0.27537365511E+03  0.28681965067E+03  0.00000000000E+00 0. -1.
         -5    1    3    3    0  503 -0.33702187508E+02 -0.96853689567E+01  0.23148243990E+03  0.23417056560E+03  0.47000000000E+01 0.  1.
         11    1    4    4    0    0  0.64562000187E+02 -0.60812783024E+02  0.16005303252E+03  0.18298475255E+03  0.00000000000E+00 0. -1.
        -12    1    4    4    0    0  0.11002641136E+02 -0.10332080328E+03  0.32212047212E+03  0.33846394943E+03  0.00000000000E+00 0.  1.
</event>
<event>
12    1  0.8684423E-002  0.1857568E+03  0.7818608E-02  0.1162603E+00
         21   -1    0    0  503  502  0.00000000000E+00  0.00000000000E+00  0.81726828739E+03  0.81726828739E+03  0.00000000000E+00 0.  1.
         21   -1    0    0  501  503 -0.00000000000E+00 -0.00000000000E+00 -0.49562043198E+02  0.49562043198E+02  0.00000000000E+00 0. -1.
          6    2    1    2  501    0  0.97288110689E+01  0.67418616907E+02  0.21518460803E+03  0.28427103207E+03  0.17281691026E+03 0.  0.
         24    2    3    3    0    0  0.17655823473E+02  0.46636342783E+02  0.23572151381E+03  0.25363453517E+03  0.79241206382E+02 0.  0.
         -6    2    1    2    0  502 -0.97288110689E+01 -0.67418616907E+02  0.55252163616E+03  0.58255929851E+03  0.17162534250E+03 0.  0.
        -24    2    5    5    0    0 -0.66164269629E+02 -0.26304232891E+02  0.25679317752E+03  0.27866332156E+03  0.81491640803E+02 0.  0.
          5    1    3    3  501    0 -0.79270124042E+01  0.20782274124E+02 -0.20536905779E+02  0.30636496902E+02  0.47000000000E+01 0. -1.
        -11    1    4    4    0    0  0.41856926940E+02  0.29734263711E+02  0.79426905546E+02  0.94576752407E+02  0.00000000000E+00 0.  1.
         12    1    4    4    0    0 -0.24201103467E+02  0.16902079072E+02  0.15629460826E+03  0.15905778276E+03  0.00000000000E+00 0. -1.
         -5    1    5    5    0  502  0.56435458561E+02 -0.41114384016E+02  0.29572845864E+03  0.30389597695E+03  0.47000000000E+01 0.  1.
         11    1    6    6    0    0 -0.19771962824E+02 -0.49277022967E+02  0.16432323535E+03  0.17268839331E+03  0.00000000000E+00 0. -1.
        -12    1    6    6    0    0 -0.46392306805E+02  0.22972790076E+02  0.92469942170E+02  0.10597492826E+03  0.00000000000E+00 0.  1.
</event>
<event>
12    1  0.8684423E-002  0.1778153E+03  0.7818608E-02  0.1170152E+00
         21   -1    0    0  503  502  0.00000000000E+00  0.00000000000E+00  0.17662423730E+03  0.17662423730E+03  0.00000000000E+00 0.  1.
         21   -1    0    0  501  503 -0.00000000000E+00 -0.00000000000E+00 -0.68184681517E+03  0.68184681517E+03  0.00000000000E+00 0.  1.
          6    2    1    2  501    0 -0.36059356684E+02  0.28823125728E+02 -0.62137941500E+03  0.64607829923E+03  0.17080322472E+03 0.  0.
         24    2    3    3    0    0 -0.38024034131E+02 -0.15346735717E+02 -0.57497415687E+03  0.58181030876E+03  0.78908838816E+02 0.  0.
         -6    2    1    2    0  502  0.36059356684E+02 -0.28823125728E+02  0.11615683713E+03  0.21239275324E+03  0.17171843534E+03 0.  0.
        -24    2    5    5    0    0 -0.12396394984E+01  0.15255283923E+02 -0.56519860432E+01  0.77509097013E+02  0.75772387977E+02 0.  0.
          5    1    3    3  501    0  0.19646774468E+01  0.44169861445E+02 -0.46405258133E+02  0.64267990477E+02  0.47000000000E+01 0. -1.
        -13    1    4    4    0    0  0.11468390089E+02 -0.43944612680E+01 -0.38481779039E+03  0.38501372321E+03  0.00000000000E+00 0.  1.
         14    1    4    4    0    0 -0.49492424220E+02 -0.10952274449E+02 -0.19015636648E+03  0.19679658555E+03  0.00000000000E+00 0. -1.
         -5    1    5    5    0  502  0.37298996182E+02 -0.44078409652E+02  0.12180882317E+03  0.13488365622E+03  0.47000000000E+01 0.  1.
         13    1    6    6    0    0 -0.15158535041E+02 -0.25850085344E+02 -0.14385875054E+02  0.33240961147E+02  0.00000000000E+00 0. -1.
        -14    1    6    6    0    0  0.13918895543E+02  0.41105369268E+02  0.87338890110E+01  0.44268135866E+02  0.00000000000E+00 0.  1.
</event>
<event>
12    1  0.8684423E-002  0.3523052E+03  0.7818608E-02  0.1061999E+00
         21   -1    0    0  503  502  0.00000000000E+00  0.00000000000E+00  0.34725871627E+03  0.34725871627E+03  0.00000000000E+00 0. -1.
         21   -1    0    0  501  503 -0.00000000000E+00 -0.00000000000E+00 -0.35572963781E+03  0.35572963781E+03  0.00000000000E+00 0. -1.
          6    2    1    2  501    0  0.29554657649E+03 -0.77792015437E+02  0.18858133217E+02  0.35280951699E+03  0.17526993338E+03 0.  0.
         24    2    3    3    0    0  0.18580111043E+03  0.15085513871E+02  0.43439997481E+02  0.20687576208E+03  0.78491542147E+02 0.  0.
         -6    2    1    2    0  502 -0.29554657649E+03  0.77792015437E+02 -0.27329054751E+02  0.35017883709E+03  0.16875711591E+03 0.  0.
        -24    2    5    5    0    0 -0.18503094636E+03  0.81082910440E+02 -0.76295795300E+02  0.22916492808E+03  0.76711318625E+02 0.  0.
          5    1    3    3  501    0  0.10974546606E+03 -0.92877529308E+02 -0.24581864264E+02  0.14593375491E+03  0.47000000000E+01 0. -1.
        -11    1    4    4    0    0  0.36279308816E+01 -0.12181436386E+02  0.16323129114E+02  0.20688011479E+02  0.00000000000E+00 0.  1.
         12    1    4    4    0    0  0.18217317955E+03  0.27266950257E+02  0.27116868367E+02  0.18618775060E+03  0.00000000000E+00 0. -1.
         -5    1    5    5    0  502 -0.11051563013E+03 -0.32908950030E+01  0.48966740549E+02  0.12101390901E+03  0.47000000000E+01 0.  1.
         13    1    6    6    0    0 -0.67208390492E+02  0.15085788633E+02  0.89553688667E+01  0.69460401689E+02  0.00000000000E+00 0. -1.
        -14    1    6    6    0    0 -0.11782255587E+03  0.65997121807E+02 -0.85251164167E+02  0.15970452639E+03  0.00000000000E+00 0.  1.
</event>
<event>
12    1  0.8684423E-002  0.1914488E+03  0.7818608E-02  0.1157327E+00
         21   -1    0    0  503  502  0.00000000000E+00  0.00000000000E+00  0.10703434475E+03  0.10703434475E+03  0.00000000000E+00 0.  1.
         21   -1    0    0  501  503 -0.00000000000E+00 -0.00000000000E+00 -0.37745062463E+03  0.37745062463E+03  0.00000000000E+00 0.  1.
          6    2    1    2  501    0  0.91997480878E+01  0.83618054374E+02 -0.21013390810E+03  0.28376974335E+03  0.17115020750E+03 0.  0.
         24    2    3    3    0    0 -0.86298554499E+01  0.11520986538E+03 -0.20273255398E+03  0.24644940938E+03  0.79303439105E+02 0.  0.
         -6    2    1    2    0  502 -0.91997480878E+01 -0.83618054374E+02 -0.60282371780E+02  0.20071522602E+03  0.17197681014E+03 0.  0.
        -24    2    5    5    0    0  0.40911524853E+02 -0.17495606979E+02 -0.71002833189E+02  0.11692778055E+03  0.81552770733E+02 0.  0.
          5    1    3    3  501    0  0.17829603538E+02 -0.31591811006E+02 -0.74013541163E+01  0.37320333971E+02  0.47000000000E+01 0. -1.
        -13    1    4    4    0    0  0.53690970571E+01  0.45945620853E+02 -0.19753537852E+02  0.50299398967E+02  0.00000000000E+00 0.  1.
         14    1    4    4    0    0 -0.13998952507E+02  0.69264244527E+02 -0.18297901613E+03  0.19615001042E+03  0.00000000000E+00 0. -1.
         -5    1    5    5    0  502 -0.50111272941E+02 -0.66122447395E+02  0.10720461409E+02  0.83787445468E+02  0.47000000000E+01 0.  1.
         11    1    6    6    0    0  0.23906271442E+02 -0.23052135169E+02 -0.86878358944E+02  0.93009461899E+02  0.00000000000E+00 0. -1.
        -12    1    6    6    0    0  0.17005253411E+02  0.55565281906E+01  0.15875525754E+02  0.23918318651E+02  0.00000000000E+00 0.  1.
</event>
<event>
12    1  0.8684423E-002  0.2121434E+03  0.7818608E-02  0.1141572E+00
         21   -1    0    0  501  502  0.00000000000E+00  0.00000000000E+00  0.30053572730E+03  0.30053572730E+03  0.00000000000E+00 0.  1.
         21   -1    0    0  502  503 -0.00000000000E+00 -0.00000000000E+00 -0.17449911485E+03  0.17449911485E+03  0.00000000000E+00 0.  1.
         -6    2    1    2    0  503 -0.35108298999E+02  0.10429189534E+03  0.16152143928E+03  0.25994420739E+03  0.17138384847E+03 0.  0.
        -24    2    3    3    0    0 -0.49540658277E+02  0.20548365678E+02  0.14315041330E+03  0.17287609411E+03  0.80731598105E+02 0.  0.
          6    2    1    2  501    0  0.35108298999E+02 -0.10429189534E+03 -0.35484826834E+02  0.21509063477E+03  0.18137093521E+03 0.  0.
         24    2    5    5    0    0  0.22202784136E+02 -0.62059626018E+02 -0.96050525872E+02  0.13998796647E+03  0.77630963092E+02 0.  0.
          5    1    5    5  501    0  0.12905514863E+02 -0.42232269319E+02  0.60565699039E+02  0.75102668300E+02  0.47000000000E+01 0. -1.
        -11    1    6    6    0    0  0.47246217721E+02 -0.60412763446E+02 -0.70520097878E+02  0.10418728944E+03  0.00000000000E+00 0.  1.
         12    1    6    6    0    0 -0.25043433585E+02 -0.16468625712E+01 -0.25530427994E+02  0.35800677027E+02  0.00000000000E+00 0. -1.
         -5    1    3    3    0  503  0.14432359278E+02  0.83743529659E+02  0.18371025981E+02  0.87068113278E+02  0.47000000000E+01 0.  1.
         13    1    4    4    0    0 -0.15374515128E+02 -0.29551487046E+02  0.72386297086E+02  0.79683386649E+02  0.00000000000E+00 0. -1.
        -14    1    4    4    0    0 -0.34166143149E+02  0.50099852723E+02  0.70764116215E+02  0.93192707463E+02  0.00000000000E+00 0.  1.
</event>
<event>
12    1  0.8684423E-002  0.2038628E+03  0.7818608E-02  0.1147152E+00
         21   -1    0    0  503  502  0.00000000000E+00  0.00000000000E+00  0.15364247574E+03  0.15364247574E+03  0.00000000000E+00 0. -1.
         21   -1    0    0  501  503 -0.00000000000E+00 -0.00000000000E+00 -0.28380065298E+03  0.28380065298E+03  0.00000000000E+00 0.  1.
          6    2    1    2  501    0  0.87889080767E+02 -0.54904585172E+02 -0.11866199022E+03  0.23325640701E+03  0.17201418401E+03 0.  0.
         24    2    3    3    0    0  0.10529525151E+03  0.10465356595E+02 -0.71614262610E+02  0.15072288207E+03  0.79951053089E+02 0.  0.
         -6    2    1    2    0  502 -0.87889080767E+02  0.54904585172E+02 -0.11496187022E+02  0.20418672171E+03  0.17555925215E+03 0.  0.
        -24    2    5    5    0    0 -0.11589583658E+03  0.28830065597E+02 -0.48022705666E+02  0.15107800767E+03  0.79090875105E+02 0.  0.
          5    1    3    3  501    0 -0.17406170746E+02 -0.65369941768E+02 -0.47047727606E+02  0.82533524944E+02  0.47000000000E+01 0. -1.
        -13    1    4    4    0    0  0.90895379480E+02 -0.17332800172E+02 -0.75166204980E+02  0.11921557928E+03  0.00000000000E+00 0.  1.
         14    1    4    4    0    0  0.14399872033E+02  0.27798156767E+02  0.35519423704E+01  0.31507302786E+02  0.00000000000E+00 0. -1.
         -5    1    5    5    0  502  0.28006755809E+02  0.26074519575E+02  0.36526518644E+02  0.53108714033E+02  0.47000000000E+01 0.  1.
         13    1    6    6    0    0 -0.99015472569E+02  0.19874568502E+02 -0.17396692220E+01  0.10100538961E+03  0.00000000000E+00 0. -1.
        -14    1    6    6    0    0 -0.16880364007E+02  0.89554970952E+01 -0.46283036444E+02  0.50072618063E+02  0.00000000000E+00 0.  1.
</event>
<event>
12    1  0.8684423E-002  0.3090571E+03  0.7818608E-02  0.1080869E+00
         21   -1    0    0  503  502  0.00000000000E+00  0.00000000000E+00  0.71924618520E+03  0.71924618520E+03  0.00000000000E+00 0. -1.
         21   -1    0    0  501  503 -0.00000000000E+00 -0.00000000000E+00 -0.15650056798E+03  0.15650056798E+03  0.00000000000E+00 0.  1.
          6    2    1    2  501    0  0.83981294953E+02 -0.24186906110E+03  0.10984830993E+03  0.32744732296E+03  0.17205114792E+03 0.  0.
         24    2    3    3    0    0  0.57068658801E+02 -0.40941636679E+02  0.22010198784E+02  0.10646374068E+03  0.76922232139E+02 0.  0.
         -6    2    1    2    0  502 -0.83981294953E+02  0.24186906110E+03  0.45289730729E+03  0.54829943022E+03  0.17309764186E+03 0.  0.
        -24    2    5    5    0    0  0.22418571666E+02  0.10259921422E+03  0.21827617975E+03  0.25540664207E+03  0.80986857286E+02 0.  0.
          5    1    3    3  501    0  0.26912636152E+02 -0.20092742442E+03  0.87838111149E+02  0.22098358228E+03  0.47000000000E+01 0. -1.
        -13    1    4    4    0    0 -0.14173862982E+02 -0.11193407570E+02 -0.12431552379E+02  0.21925652999E+02  0.00000000000E+00 0.  1.
         14    1    4    4    0    0  0.71242521783E+02 -0.29748229109E+02  0.34441751163E+02  0.84538087679E+02  0.00000000000E+00 0. -1.
         -5    1    5    5    0  502 -0.10639986662E+03  0.13926984688E+03  0.23462112753E+03  0.29289278815E+03  0.47000000000E+01 0.  1.
         11    1    6    6    0    0  0.45622644373E+02  0.97888052419E+02  0.16628921665E+03  0.19828161806E+03  0.00000000000E+00 0. -1.
        -12    1    6    6    0    0 -0.23204072707E+02  0.47111617959E+01  0.51986963104E+02  0.57125024012E+02  0.00000000000E+00 0.  1.
</event>
<event>
12    1  0.8684423E-002  0.2564860E+03  0.7818608E-02  0.1109359E+00
         21   -1    0    0  503  502  0.00000000000E+00  0.00000000000E+00  0.81915752205E+02  0.81915752205E+02  0.00000000000E+00 0.  1.
         21   -1    0    0  501  503 -0.00000000000E+00 -0.00000000000E+00 -0.89276542163E+03  0.89276542163E+03  0.00000000000E+00 0.  1.
          6    2    1    2  501    0 -0.10882455181E+03 -0.15772268962E+03 -0.56179062664E+03  0.61757087028E+03  0.17048707206E+03 0.  0.
         24    2    3    3    0    0  0.11669610680E+02 -0.69389376606E+02 -0.26631135140E+03  0.28643387524E+03  0.78559299927E+02 0.  0.
         -6    2    1    2    0  502  0.10882455181E+03  0.15772268962E+03 -0.24905904278E+03  0.35711030355E+03  0.16964118667E+03 0.  0.
        -24    2    5    5    0    0  0.72976231869E+02  0.96079732371E+02 -0.63424286038E+02  0.15819497199E+03  0.80288004782E+02 0.  0.
          5    1    3    3  501    0 -0.12049416249E+03 -0.88333313012E+02 -0.29547927525E+03  0.33113699504E+03  0.47000000000E+01 0. -1.
        -11    1    4    4    0    0 -0.63913724615E+01  0.30539357348E+01  0.24498111062E+01  0.74951811099E+01  0.00000000000E+00 0.  1.
         12    1    4    4    0    0  0.18060983141E+02 -0.72443312341E+02 -0.26876116250E+03  0.27893869413E+03  0.00000000000E+00 0. -1.
         -5    1    5    5    0  502  0.35848319945E+02  0.61642957247E+02 -0.18563475675E+03  0.19891533157E+03  0.47000000000E+01 0.  1.
         13    1    6    6    0    0 -0.14345635721E+02  0.31762725313E+02 -0.25947695890E+02  0.43450557022E+02  0.00000000000E+00 0. -1.
        -14    1    6    6    0    0  0.87321867590E+02  0.64317007059E+02 -0.37476590148E+02  0.11474441496E+03  0.00000000000E+00 0.  1.
</event>
<event>
12    1  0.8684423E-002  0.2334365E+03  0.7818608E-02  0.1125319E+00
         21   -1    0    0  503  502  0.00000000000E+00  0.00000000000E+00  0.13729650286E+03  0.13729650286E+03  0.00000000000E+00 0. -1.
         21   -1    0    0  501  503 -0.00000000000E+00 -0.00000000000E+00 -0.39276497370E+03  0.39276497370E+03  0.00000000000E+00 0.  1.
          6    2    1    2  501    0  0.99850169285E+02  0.11116442105E+03 -0.92668841112E+02  0.24546297325E+03  0.17128039091E+03 0.  0.
         24    2    3    3    0    0  0.43701880747E+01  0.63425753711E+02  0.27968860044E+01  0.10217584115E+03  0.79938446104E+02 0.  0.
         -6    2    1    2    0  502 -0.99850169285E+02 -0.11116442105E+03 -0.16279962972E+03  0.28459850332E+03  0.17934604495E+03 0.  0.
        -24    2    5    5    0    0 -0.58776727560E+02 -0.13783332116E+03 -0.16326944246E+03  0.23539922921E+03  0.79392431317E+02 0.  0.
          5    1    3    3  501    0  0.95479981210E+02  0.47738667336E+02 -0.95465727116E+02  0.14328713210E+03  0.47000000000E+01 0. -1.
        -13    1    4    4    0    0  0.98438478790E+01  0.78314155829E+02 -0.12763061045E+02  0.79955638147E+02  0.00000000000E+00 0.  1.
         14    1    4    4    0    0 -0.54736598043E+01 -0.14888402117E+02  0.15559947050E+02  0.22220203002E+02  0.00000000000E+00 0. -1.
         -5    1    5    5    0  502 -0.41073441725E+02  0.26668900108E+02  0.46981273621E+00  0.49199274102E+02  0.47000000000E+01 0.  1.
         13    1    6    6    0    0 -0.19089741821E+02 -0.21769685682E+02  0.26353007583E+01  0.29073738452E+02  0.00000000000E+00 0. -1.
        -14    1    6    6    0    0 -0.39686985739E+02 -0.11606363547E+03 -0.16590474322E+03  0.20632549076E+03  0.00000000000E+00 0.  1.
</event>
<event>
12    1  0.8684423E-002  0.2052848E+03  0.7818608E-02  0.1146070E+00
         21   -1    0    0  501  502  0.00000000000E+00  0.00000000000E+00  0.18418557201E+03  0.18418557201E+03  0.00000000000E+00 0.  1.
         21   -1    0    0  502  503 -0.00000000000E+00 -0.00000000000E+00 -0.54331868620E+03  0.54331868620E+03  0.00000000000E+00 0. -1.
         -6    2    1    2    0  503  0.16557400925E+02  0.11240375526E+03 -0.45864598020E+03  0.50249179273E+03  0.17097694257E+03 0.  0.
        -24    2    3    3    0    0  0.25317779794E+02  0.22703865659E+02 -0.96046929106E+02  0.12883021284E+03  0.78840063809E+02 0.  0.
          6    2    1    2  501    0 -0.16557400925E+02 -0.11240375526E+03  0.99512866012E+02  0.22501246548E+03  0.16679042957E+03 0.  0.
         24    2    5    5    0    0 -0.11986015839E+02 -0.93197662923E+02  0.13609678263E+03  0.18317654192E+03  0.78751776610E+02 0.  0.
          5    1    5    5  501    0 -0.45713850862E+01 -0.19206092342E+02 -0.36583916617E+02  0.41835923555E+02  0.47000000000E+01 0. -1.
        -11    1    6    6    0    0 -0.41516752043E+02 -0.41477459583E+02  0.43376544618E+02  0.72976331619E+02  0.00000000000E+00 0.  1.
         12    1    6    6    0    0  0.29530736204E+02 -0.51720203340E+02  0.92720238012E+02  0.11020021030E+03  0.00000000000E+00 0. -1.
         -5    1    3    3    0  503 -0.87603788692E+01  0.89699889606E+02 -0.36259905109E+03  0.37366157989E+03  0.47000000000E+01 0.  1.
         13    1    4    4    0    0 -0.79267919097E+01 -0.12780144054E+02 -0.73873748219E+02  0.75388969935E+02  0.00000000000E+00 0. -1.
        -14    1    4    4    0    0  0.33244571704E+02  0.35484009713E+02 -0.22173180887E+02  0.53441242910E+02  0.00000000000E+00 0.  1.
</event>
<event>
12    1  0.8684423E-002  0.1810040E+03  0.7818608E-02  0.1166879E+00
         21   -1    0    0  501  502  0.00000000000E+00  0.00000000000E+00  0.22139626685E+03  0.22139626685E+03  0.00000000000E+00 0. -1.
         21   -1    0    0  502  503 -0.00000000000E+00 -0.00000000000E+00 -0.14873929309E+03  0.14873929309E+03  0.00000000000E+00 0. -1.
         -6    2    1    2    0  503  0.54391220439E+02 -0.10558024623E+02  0.50796510037E+02  0.18799661929E+03  0.17231531183E+03 0.  0.
        -24    2    3    3    0    0  0.69633601885E+02 -0.55029072426E+02  0.68356288767E+02  0.13759384046E+03  0.79890208388E+02 0.  0.
          6    2    1    2  501    0 -0.54391220439E+02  0.10558024623E+02  0.21860463720E+02  0.18213894065E+03  0.17212448136E+03 0.  0.
         24    2    5    5    0    0  0.25016224092E+02 -0.31069616773E+02  0.18524619317E+02  0.92296742143E+02  0.81144282208E+02 0.  0.
          5    1    5    5  501    0 -0.79407444531E+02  0.41627641396E+02  0.33358444033E+01  0.89842198509E+02  0.47000000000E+01 0. -1.
        -13    1    6    6    0    0  0.72740875704E+00 -0.21771446257E+02 -0.30098900223E+02  0.37154660411E+02  0.00000000000E+00 0.  1.
         14    1    6    6    0    0  0.24288815335E+02 -0.92981705156E+01  0.48623519540E+02  0.55142081732E+02  0.00000000000E+00 0. -1.
         -5    1    3    3    0  503 -0.15242381446E+02  0.44471047803E+02 -0.17559778729E+02  0.50402778830E+02  0.47000000000E+01 0.  1.
         11    1    4    4    0    0  0.84131814103E+02 -0.29995473908E+02  0.59565046684E+02  0.10735867634E+03  0.00000000000E+00 0. -1.
        -12    1    4    4    0    0 -0.14498212217E+02 -0.25033598517E+02  0.87912420828E+01  0.30235164124E+02  0.00000000000E+00 0.  1.
</event>
<event>
12    1  0.8684423E-002  0.2334043E+03  0.7818608E-02  0.1124406E+00
         21   -1    0    0  503  502  0.00000000000E+00  0.00000000000E+00  0.74949510737E+03  0.74949510737E+03  0.00000000000E+00 0. -1.
         21   -1    0    0  501  503 -0.00000000000E+00 -0.00000000000E+00 -0.86846765043E+02  0.86846765043E+02  0.00000000000E+00 0. -1.
          6    2    1    2  501    0  0.11091858091E+03 -0.11130479294E+03  0.16049706452E+03  0.28259692781E+03  0.17149351990E+03 0.  0.
         24    2    3    3    0    0  0.32036561332E+02  0.27820620411E+01  0.98468537387E+02  0.13058438994E+03  0.79511941929E+02 0.  0.
         -6    2    1    2    0  502 -0.11091858091E+03  0.11130479294E+03  0.50215127781E+03  0.55374494460E+03  0.17258583180E+03 0.  0.
        -24    2    5    5    0    0 -0.89509475764E+02  0.12333436328E+03  0.27066964239E+03  0.32091690100E+03  0.80636782077E+02 0.  0.
          5    1    3    3  501    0  0.78882019581E+02 -0.11408685498E+03  0.62028527130E+02  0.15201253788E+03  0.47000000000E+01 0. -1.
        -13    1    4    4    0    0 -0.25732206622E+02 -0.29030573380E+01  0.43591423353E+02  0.50702922889E+02  0.00000000000E+00 0.  1.
         14    1    4    4    0    0  0.57768767954E+02  0.56851193791E+01  0.54877114034E+02  0.79881467050E+02  0.00000000000E+00 0. -1.
         -5    1    5    5    0  502 -0.21409105149E+02 -0.12029570335E+02  0.23148163542E+03  0.23282804359E+03  0.47000000000E+01 0.  1.
         13    1    6    6    0    0 -0.45287311040E+02  0.85496481250E+02  0.23111078108E+03  0.25054496997E+03  0.00000000000E+00 0. -1.
        -14    1    6    6    0    0 -0.44222164724E+02  0.37837882028E+02  0.39558861307E+02  0.70371931032E+02  0.00000000000E+00 0.  1.
</event>
<event>
12    1  0.8684423E-002  0.1947228E+03  0.7818608E-02  0.1154884E+00
         21   -1    0    0  503  502  0.00000000000E+00  0.00000000000E+00  0.40646722351E+03  0.40646722351E+03  0.00000000000E+00 0.  1.
         21   -1    0    0  501  503 -0.00000000000E+00 -0.00000000000E+00 -0.11999735966E+03  0.11999735966E+03  0.00000000000E+00 0.  1.
          6    2    1    2  501    0  0.75039770179E+02 -0.37295947604E+02  0.15183032755E+02  0.19252817082E+03  0.17266909759E+03 0.  0.
         24    2    3    3    0    0 -0.11750021710E+02 -0.50394782031E+02  0.36608934697E+02  0.10205603858E+03  0.79984522528E+02 0.  0.
         -6    2    1    2    0  502 -0.75039770179E+02  0.37295947604E+02  0.27128683109E+03  0.33393641235E+03  0.17576981524E+03 0.  0.
        -24    2    5    5    0    0 -0.39403481312E+02 -0.33053701649E+02  0.71882066748E+02  0.11945245426E+03  0.80353442835E+02 0.  0.
          5    1    3    3  501    0  0.86789791889E+02  0.13098834428E+02 -0.21425901942E+02  0.90472132248E+02  0.47000000000E+01 0. -1.
        -13    1    4    4    0    0  0.11528462956E+02  0.68067314643E+01 -0.16047057886E+02  0.20898447745E+02  0.00000000000E+00 0.  1.
         14    1    4    4    0    0 -0.23278484666E+02 -0.57201513495E+02  0.52655992583E+02  0.81157590831E+02  0.00000000000E+00 0. -1.
         -5    1    5    5    0  502 -0.35636288867E+02  0.70349649252E+02  0.19940476435E+03  0.21448395809E+03  0.47000000000E+01 0.  1.
         13    1    6    6    0    0 -0.30549257702E+02  0.22979797762E+02  0.23334816648E+02  0.44786626568E+02  0.00000000000E+00 0. -1.
        -14    1    6    6    0    0 -0.88542236101E+01 -0.56033499411E+02  0.48547250101E+02  0.74665827688E+02  0.00000000000E+00 0.  1.
</event>
<event>
12    1  0.8684423E-002  0.2312093E+03  0.7818608E-02  0.1126269E+00
         21   -1    0    0  501  502  0.00000000000E+00  0.00000000000E+00  0.12313462959E+04  0.12313462959E+04  0.00000000000E+00 0. -1.
         21   -1    0    0  502  503 -0.00000000000E+00 -0.00000000000E+00 -0.84525839898E+02  0.84525839898E+02  0.00000000000E+00 0. -1.
         -6    2    1    2    0  503 -0.47644916106E+02 -0.14436328589E+03  0.11345388896E+03  0.25754517583E+03  0.17420372076E+03 0.  0.
        -24    2    3    3    0    0 -0.74499745239E+01 -0.10415809109E+03  0.14108225720E+03  0.19416136284E+03  0.83006153160E+02 0.  0.
          6    2    1    2  501    0  0.47644916106E+02  0.14436328589E+03  0.10333665670E+04  0.10583269600E+04  0.17058339889E+03 0.  0.
         24    2    5    5    0    0  0.72383753069E+01  0.76611218142E+01  0.26843666433E+03  0.28021384720E+03  0.79689839641E+02 0.  0.
          5    1    5    5  501    0  0.40406540799E+02  0.13670216408E+03  0.76492990270E+03  0.77811311276E+03  0.47000000000E+01 0. -1.
        -11    1    6    6    0    0 -0.10086471702E+02 -0.28463414889E+02  0.18736563433E+03  0.18978351832E+03  0.00000000000E+00 0.  1.
         12    1    6    6    0    0  0.17324847009E+02  0.36124536704E+02  0.81071029997E+02  0.90430328877E+02  0.00000000000E+00 0. -1.
         -5    1    3    3    0  503 -0.40194941582E+02 -0.40205194798E+02 -0.27628368237E+02  0.63383812988E+02  0.47000000000E+01 0.  1.
         11    1    4    4    0    0 -0.40898678053E+02 -0.48676149878E+02  0.43510569235E+02  0.77040502780E+02  0.00000000000E+00 0. -1.
        -12    1    4    4    0    0  0.33448703529E+02 -0.55481941216E+02  0.97571687961E+02  0.11712086006E+03  0.00000000000E+00 0.  1.
</event>
<event>
12    1  0.8684423E-002  0.2402877E+03  0.7818608E-02  0.1119661E+00
         21   -1    0    0  501  502  0.00000000000E+00  0.00000000000E+00  0.74036186567E+03  0.74036186567E+03  0.00000000000E+00 0. -1.
         21   -1    0    0  502  503 -0.00000000000E+00 -0.00000000000E+00 -0.79354137179E+02  0.79354137179E+02  0.00000000000E+00 0.  1.
         -6    2    1    2    0  503  0.84940846631E+00  0.16575483641E+03  0.38632178839E+03  0.45476320576E+03  0.17346371909E+03 0.  0.
        -24    2    3    3    0    0 -0.19348940608E+02  0.19064346532E+03  0.34030192595E+03  0.39848412533E+03  0.79151026295E+02 0.  0.
          6    2    1    2  501    0 -0.84940846631E+00 -0.16575483641E+03  0.27468594010E+03  0.36495279709E+03  0.17396203933E+03 0.  0.
         24    2    5    5    0    0  0.58505677060E+02 -0.12503004662E+03  0.14187237838E+03  0.21381356704E+03  0.80827241077E+02 0.  0.
          5    1    5    5  501    0 -0.59355085526E+02 -0.40724789794E+02  0.13281356172E+03  0.15113923005E+03  0.47000000000E+01 0. -1.
        -13    1    6    6    0    0  0.14606642643E+01 -0.23579780284E+02 -0.71900146755E+01  0.24694855524E+02  0.00000000000E+00 0.  1.
         14    1    6    6    0    0  0.57045012795E+02 -0.10145026633E+03  0.14906239305E+03  0.18911871152E+03  0.00000000000E+00 0. -1.
         -5    1    3    3    0  503  0.20198349074E+02 -0.24888628915E+02  0.46019862435E+02  0.56279080422E+02  0.47000000000E+01 0.  1.
         11    1    4    4    0    0 -0.35857373615E+02  0.37195799720E+02  0.66870527838E+02  0.84504119738E+02  0.00000000000E+00 0. -1.
        -12    1    4    4    0    0  0.16508433007E+02  0.15344766560E+03  0.27343139811E+03  0.31398000560E+03  0.00000000000E+00 0.  1.
</event>
<event>
12    1  0.8684423E-002  0.1862669E+03  0.7818608E-02  0.1162098E+00
         21   -1    0    0  501  502  0.00000000000E+00  0.00000000000E+00  0.47234340309E+02  0.47234340309E+02  0.00000000000E+00 0. -1.
         21   -1    0    0  502  503 -0.00000000000E+00 -0.00000000000E+00 -0.18276976391E+04  0.18276976391E+04  0.00000000000E+00 0. -1.
         -6    2    1    2    0  503 -0.38487326423E+02 -0.59276462484E+02 -0.16155812658E+04  0.16261721531E+04  0.17128360005E+03 0.  0.
        -24    2    3    3    0    0 -0.28834824131E+02  0.83502373934E+01 -0.13160253032E+04  0.13188898625E+04  0.81527279356E+02 0.  0.
          6    2    1    2  501    0  0.38487326423E+02  0.59276462484E+02 -0.16488203296E+03  0.24875982633E+03  0.17233801990E+03 0.  0.
         24    2    5    5    0    0 -0.44173124703E+02  0.23720247261E+02 -0.10250156217E+03  0.13916782043E+03  0.79669297218E+02 0.  0.
          5    1    5    5  501    0  0.82660451126E+02  0.35556215223E+02 -0.62380470789E+02  0.10959200590E+03  0.47000000000E+01 0. -1.
        -11    1    6    6    0    0 -0.21941242196E+02 -0.29320813320E+02 -0.40027501134E+02  0.54252456625E+02  0.00000000000E+00 0.  1.
         12    1    6    6    0    0 -0.22231882507E+02  0.53041060581E+02 -0.62474061038E+02  0.84915363804E+02  0.00000000000E+00 0. -1.
         -5    1    3    3    0  503 -0.96525022914E+01 -0.67626699878E+02 -0.29955596265E+03  0.30728229057E+03  0.47000000000E+01 0.  1.
         13    1    4    4    0    0 -0.26965796910E+02 -0.33441231434E+02 -0.52269668399E+03  0.52445904856E+03  0.00000000000E+00 0. -1.
        -14    1    4    4    0    0 -0.18690272212E+01  0.41791468827E+02 -0.79332861916E+03  0.79443081393E+03  0.00000000000E+00 0.  1.
</event>
<event>
12    1  0.8684423E-002  0.2048089E+03  0.7818608E-02  0.1145775E+00
         21   -1    0    0  501  502  0.00000000000E+00  0.00000000000E+00  0.20037934607E+02  0.20037934607E+02  0.00000000000E+00 0.  1.
         21   -1    0    0  502  503 -0.00000000000E+00 -0.00000000000E+00 -0.41948752180E+04  0.41948752180E+04  0.00000000000E+00 0.  1.
         -6    2    1    2    0  503 -0.75526262349E+02 -0.82251617413E+02 -0.35800006835E+04  0.35858543710E+04  0.17168905215E+03 0.  0.
        -24    2    3    3    0    0 -0.48449071215E+02 -0.63413251600E+02 -0.11630848654E+04  0.11687089015E+04  0.82131233001E+02 0.  0.
          6    2    1    2  501    0  0.75526262349E+02  0.82251617413E+02 -0.59483659984E+03  0.62905878165E+03  0.17150750825E+03 0.  0.
         24    2    5    5    0    0  0.63834610799E+02  0.11354942439E+03 -0.56031004311E+03  0.58078435201E+03  0.79967429705E+02 0.  0.
          5    1    5    5  501    0  0.11691651550E+02 -0.31297806972E+02 -0.34526556731E+02  0.48274429638E+02  0.47000000000E+01 0. -1.
        -13    1    6    6    0    0  0.36240650398E+02  0.64315958315E+02 -0.15637012590E+03  0.17292062778E+03  0.00000000000E+00 0.  1.
         14    1    6    6    0    0  0.27593960401E+02  0.49233466070E+02 -0.40393991721E+03  0.40786372423E+03  0.00000000000E+00 0. -1.
         -5    1    3    3    0  503 -0.27077191134E+02 -0.18838365813E+02 -0.24169158182E+04  0.24171454695E+04  0.47000000000E+01 0.  1.
         13    1    4    4    0    0 -0.70433857648E+02 -0.56989608217E+02 -0.98477295130E+03  0.98893200442E+03  0.00000000000E+00 0. -1.
        -14    1    4    4    0    0  0.21984786434E+02 -0.64236433835E+01 -0.17831191406E+03  0.17977689708E+03  0.00000000000E+00 0.  1.
</event>
<event>
12    1  0.8684423E-002  0.1760244E+03  0.7818608E-02  0.1171735E+00
         21   -1    0    0  503  502  0.00000000000E+00  0.00000000000E+00  0.23253802245E+03  0.23253802245E+03  0.00000000000E+00 0.  1.
         21   -1    0    0  501  503 -0.00000000000E+00 -0.00000000000E+00 -0.14598780562E+03  0.14598780562E+03  0.00000000000E+00 0.  1.
          6    2    1    2  501    0  0.31713666085E+02 -0.29187569296E+02  0.99390534541E+02  0.20214615683E+03  0.17066610544E+03 0.  0.
         24    2    3    3    0    0 -0.28393764327E+02 -0.59542556177E+02  0.41065510185E+02  0.11293726217E+03  0.81956861891E+02 0.  0.
         -6    2    1    2    0  502 -0.31713666085E+02  0.29187569296E+02 -0.12840317719E+02  0.17637967125E+03  0.17054982806E+03 0.  0.
        -24    2    5    5    0    0  0.32646372939E+02 -0.10081509825E+01 -0.46980441121E+02  0.97375657600E+02  0.78791210237E+02 0.  0.
          5    1    3    3  501    0  0.60107430412E+02  0.30354986882E+02  0.58325024356E+02  0.89208894654E+02  0.47000000000E+01 0. -1.
        -11    1    4    4    0    0  0.16575933396E+01 -0.50570384766E+01 -0.23012024844E+02  0.23619367927E+02  0.00000000000E+00 0.  1.
         12    1    4    4    0    0 -0.30051357666E+02 -0.54485517701E+02  0.64077535029E+02  0.89317894244E+02  0.00000000000E+00 0. -1.
         -5    1    5    5    0  502 -0.64360039024E+02  0.30195720278E+02  0.34140123402E+02  0.79004013646E+02  0.47000000000E+01 0.  1.
         11    1    6    6    0    0 -0.34538762889E+01 -0.35282529994E+02 -0.17710497597E+02  0.39628877215E+02  0.00000000000E+00 0. -1.
        -12    1    6    6    0    0  0.36100249228E+02  0.34274379011E+02 -0.29269943524E+02  0.57746780385E+02  0.00000000000E+00 0.  1.
</event>
<event>
12    1  0.8684423E-002  0.1748198E+03  0.7818608E-02  0.1173166E+00
         21   -1    0    0  503  502  0.00000000000E+00  0.00000000000E+00  0.40858166404E+03  0.40858166404E+03  0.00000000000E+00 0. -1.
         21   -1    0    0  501  503 -0.00000000000E+00 -0.00000000000E+00 -0.12028340842E+03  0.12028340842E+03  0.00000000000E+00 0. -1.
          6    2    1    2  501    0 -0.12052892673E+02  0.28634854096E+02 -0.18966061089E+02  0.17584557094E+03  0.17203699095E+03 0.  0.
         24    2    3    3    0    0  0.21099317564E+02  0.50235777419E+02  0.39706471725E+02  0.10492149154E+03  0.80393413634E+02 0.  0.
         -6    2    1    2    0  502  0.12052892673E+02 -0.28634854096E+02  0.30726431672E+03  0.35301950152E+03  0.17101514856E+03 0.  0.
        -24    2    5    5    0    0  0.48554797771E+02  0.17963672946E+02  0.26150069095E+03  0.27805143338E+03  0.79055210467E+02 0.  0.
          5    1    3    3  501    0 -0.33152210237E+02 -0.21600923322E+02 -0.58672532814E+02  0.70924079400E+02  0.47000000000E+01 0. -1.
        -13    1    4    4    0    0  0.14785028006E+02 -0.93334631811E+01  0.41456683327E+02  0.44992968124E+02  0.00000000000E+00 0.  1.
         14    1    4    4    0    0  0.63142895576E+01  0.59569240600E+02 -0.17502116023E+01  0.59928523417E+02  0.00000000000E+00 0. -1.
         -5    1    5    5    0  502 -0.36501905098E+02 -0.46598527042E+02  0.45763625765E+02  0.74968068146E+02  0.47000000000E+01 0.  1.
         13    1    6    6    0    0  0.33064811317E+02 -0.26277269227E+02  0.78473220654E+02  0.89116906282E+02  0.00000000000E+00 0. -1.
        -14    1    6    6    0    0  0.15489986454E+02  0.44240942173E+02  0.18302747030E+03  0.18893452709E+03  0.00000000000E+00 0.  1.
</event>
<event>
12    1  0.8684423E-002  0.1794280E+03  0.7818608E-02  0.1168951E+00
         21   -1    0    0  501  502  0.00000000000E+00  0.00000000000E+00  0.41560493368E+02  0.41560493368E+02  0.00000000000E+00 0. -1.
         21   -1    0    0  502  503 -0.00000000000E+00 -0.00000000000E+00 -0.14270662134E+04  0.14270662134E+04  0.00000000000E+00 0. -1.
         -6    2    1    2    0  503 -0.52958473538E+02  0.50793415274E+01 -0.11906831566E+04  0.12037678064E+04  0.16881988244E+03 0.  0.
        -24    2    3    3    0    0 -0.81789995271E+02 -0.20961953871E+02 -0.10818026292E+04  0.10880679147E+04  0.80410518306E+02 0.  0.
          6    2    1    2  501    0  0.52958473538E+02 -0.50793415274E+01 -0.19482256346E+03  0.26485890039E+03  0.17135928994E+03 0.  0.
         24    2    5    5    0    0  0.23282683387E+02 -0.46867030768E+02 -0.41439085632E+02  0.10307062898E+03  0.78535054732E+02 0.  0.
          5    1    5    5  501    0  0.29675790151E+02  0.41787689241E+02 -0.15338347783E+03  0.16178827140E+03  0.47000000000E+01 0. -1.
        -13    1    6    6    0    0 -0.21099211503E+02  0.52032229069E+00 -0.30712079209E+02  0.37264987196E+02  0.00000000000E+00 0.  1.
         14    1    6    6    0    0  0.44381894890E+02 -0.47387353059E+02 -0.10727006422E+02  0.65805641785E+02  0.00000000000E+00 0. -1.
         -5    1    3    3    0  503  0.28831521732E+02  0.26041295398E+02 -0.10888052732E+03  0.11569989171E+03  0.47000000000E+01 0.  1.
         13    1    4    4    0    0 -0.35529935666E+02 -0.13133735032E+02 -0.13813298185E+03  0.14323264990E+03  0.00000000000E+00 0. -1.
        -14    1    4    4    0    0 -0.46260059604E+02 -0.78282188391E+01 -0.94366964738E+03  0.94483526475E+03  0.00000000000E+00 0.  1.
</event>
<event>
12    1  0.8684423E-002  0.3887083E+03  0.7818608E-02  0.1047768E+00
         21   -1    0    0  501  502  0.00000000000E+00  0.00000000000E+00  0.60729273286E+03  0.60729273286E+03  0.00000000000E+00 0. -1.
         21   -1    0    0  502  503 -0.00000000000E+00 -0.00000000000E+00 -0.37744417800E+03  0.37744417800E+03  0.00000000000E+00 0.  1.
         -6    2    1    2    0  503  0.44079047667E+02 -0.34551849071E+03 -0.17257262419E+03  0.42529453117E+03  0.17253445383E+03 0.  0.
        -24    2    3    3    0    0  0.64455180676E+02 -0.28073519307E+03 -0.78608297903E+02  0.30926243620E+03  0.80605651175E+02 0.  0.
          6    2    1    2  501    0 -0.44079047667E+02  0.34551849071E+03  0.40242117905E+03  0.55944237969E+03  0.17235713207E+03 0.  0.
         24    2    5    5    0    0  0.39001234801E+02  0.17869363064E+03  0.17633817813E+03  0.26640913827E+03  0.80163370303E+02 0.  0.
          5    1    5    5  501    0 -0.83080282468E+02  0.16682486008E+03  0.22608300091E+03  0.29303324142E+03  0.47000000000E+01 0. -1.
        -11    1    6    6    0    0 -0.17832259047E+02  0.46293892068E+02  0.19150547776E+02  0.53177602294E+02  0.00000000000E+00 0.  1.
         12    1    6    6    0    0  0.56833493849E+02  0.13239973857E+03  0.15718763036E+03  0.21323153597E+03  0.00000000000E+00 0. -1.
         -5    1    3    3    0  503 -0.20376133009E+02 -0.64783297649E+02 -0.93964326287E+02  0.11603209498E+03  0.47000000000E+01 0.  1.
         13    1    4    4    0    0  0.24349172657E+02 -0.22915109957E+03 -0.41590177228E+02  0.23416415499E+03  0.00000000000E+00 0. -1.
        -14    1    4    4    0    0  0.40106008019E+02 -0.51584093498E+02 -0.37018120675E+02  0.75098281202E+02  0.00000000000E+00 0.  1.
</event>
<event>
12    1  0.8684423E-002  0.1767990E+03  0.7818608E-02  0.1171127E+00
         21   -1    0    0  503  502  0.00000000000E+00  0.00000000000E+00  0.85674461669E+02  0.85674461669E+02  0.00000000000E+00 0. -1.
         21   -1    0    0  501  503 -0.00000000000E+00 -0.00000000000E+00 -0.45488262396E+03  0.45488262396E+03  0.00000000000E+00 0. -1.
          6    2    1    2  501    0 -0.40277210947E+02 -0.56891918550E+01 -0.30621454312E+03  0.35358905654E+03  0.17205596143E+03 0.  0.
         24    2    3    3    0    0 -0.36312968314E+02 -0.23340549934E+02 -0.31853569829E+03  0.33120186095E+03  0.79788900672E+02 0.  0.
         -6    2    1    2    0  502  0.40277210947E+02  0.56891918550E+01 -0.62993619174E+02  0.18696802909E+03  0.17127237728E+03 0.  0.
        -24    2    5    5    0    0  0.85425015937E+02 -0.20999198438E+02 -0.62594659299E+02  0.13431023156E+03  0.79892097512E+02 0.  0.
          5    1    3    3  501    0 -0.39642426329E+01  0.17651358079E+02  0.12321155175E+02  0.22387195593E+02  0.47000000000E+01 0. -1.
        -11    1    4    4    0    0  0.10924646882E+02 -0.24855279660E+01 -0.31796384222E+01  0.11646280920E+02  0.00000000000E+00 0.  1.
         12    1    4    4    0    0 -0.47237615196E+02 -0.20855021968E+02 -0.31535605987E+03  0.31955558003E+03  0.00000000000E+00 0. -1.
         -5    1    5    5    0  502 -0.45147804991E+02  0.26688390293E+02 -0.39895987468E+00  0.52657797531E+02  0.47000000000E+01 0.  1.
         13    1    6    6    0    0  0.68427874782E+02  0.22236802198E+02 -0.43530589563E+02  0.84093766991E+02  0.00000000000E+00 0. -1.
        -14    1    6    6    0    0  0.16997141156E+02 -0.43236000636E+02 -0.19064069737E+02  0.50216464564E+02  0.00000000000E+00 0.  1.
</event>
<event>
12    1  0.8684423E-002  0.2333032E+03  0.7818608E-02  0.1124398E+00
         21   -1    0    0  503  502  0.00000000000E+00  0.00000000000E+00  0.44671673981E+03  0.44671673981E+03  0.00000000000E+00 0.  1.
         21   -1    0    0  501  503 -0.00000000000E+00 -0.00000000000E+00 -0.18107581604E+03  0.18107581604E+03  0.00000000000E+00 0.  1.
          6    2    1    2  501    0  0.11685148342E+03 -0.10238160865E+03 -0.47055446943E+02  0.23765229387E+03  0.17357457973E+03 0.  0.
         24    2    3    3    0    0  0.14283103605E+03 -0.77908923720E+02 -0.35321937354E+01  0.18117032301E+03  0.79622260042E+02 0.  0.
         -6    2    1    2    0  502 -0.11685148342E+03  0.10238160865E+03  0.31269637072E+03  0.39014026198E+03  0.17405212091E+03 0.  0.
        -24    2    5    5    0    0 -0.20127263712E+02  0.23195098948E+01  0.55334314783E+02  0.97522224057E+02  0.77705925911E+02 0.  0.
          5    1    3    3  501    0 -0.25979552624E+02 -0.24472684925E+02 -0.43523253208E+02  0.56481970856E+02  0.47000000000E+01 0. -1.
        -13    1    4    4    0    0  0.14896372975E+03 -0.79819899077E+02 -0.13251719391E+02  0.16951996088E+03  0.00000000000E+00 0.  1.
         14    1    4    4    0    0 -0.61326937028E+01  0.19109753566E+01  0.97195256553E+01  0.11650362133E+02  0.00000000000E+00 0. -1.
         -5    1    5    5    0  502 -0.96724219711E+02  0.10006209875E+03  0.25736205594E+03  0.29261803793E+03  0.47000000000E+01 0.  1.
         13    1    6    6    0    0 -0.39151527838E+02 -0.68183831112E+01  0.15788945826E+01  0.39772168515E+02  0.00000000000E+00 0. -1.
        -14    1    6    6    0    0  0.19024264126E+02  0.91378930061E+01  0.53755420201E+02  0.57750055542E+02  0.00000000000E+00 0.  1.
</event>
<event>
12    1  0.8684423E-002  0.1813464E+03  0.7818608E-02  0.1167389E+00
         21   -1    0    0  503  502  0.00000000000E+00  0.00000000000E+00  0.11625455737E+04  0.11625455737E+04  0.00000000000E+00 0. -1.
         21   -1    0    0  501  503 -0.00000000000E+00 -0.00000000000E+00 -0.77044078710E+02  0.77044078710E+02  0.00000000000E+00 0. -1.
          6    2    1    2  501    0  0.24266307401E+02 -0.52588222196E+02  0.44877591274E+02  0.18328258642E+03  0.16800039731E+03 0.  0.
         24    2    3    3    0    0 -0.40601389193E+01 -0.56972353904E+02  0.86716216236E+02  0.13234960387E+03  0.82063278328E+02 0.  0.
         -6    2    1    2    0  502 -0.24266307401E+02  0.52588222196E+02  0.10406239037E+04  0.10563070660E+04  0.17184916029E+03 0.  0.
        -24    2    5    5    0    0  0.71255515907E+01  0.94683246240E+02  0.83423132198E+03  0.84328728368E+03  0.78586599631E+02 0.  0.
          5    1    3    3  501    0  0.28326446321E+02  0.43841317081E+01 -0.41838624962E+02  0.50932982543E+02  0.47000000000E+01 0. -1.
        -13    1    4    4    0    0  0.31141531829E+02 -0.48677092403E+02  0.74268898994E+02  0.94101666761E+02  0.00000000000E+00 0.  1.
         14    1    4    4    0    0 -0.35201670749E+02 -0.82952615011E+01  0.12447317242E+02  0.38247937113E+02  0.00000000000E+00 0. -1.
         -5    1    5    5    0  502 -0.31391858992E+02 -0.42095024044E+02  0.20639258172E+03  0.21301978230E+03  0.47000000000E+01 0.  1.
         13    1    6    6    0    0  0.42420417678E+02  0.40928027692E+02  0.39683400331E+03  0.40118801262E+03  0.00000000000E+00 0. -1.
        -14    1    6    6    0    0 -0.35294866087E+02  0.53755218548E+02  0.43739731867E+03  0.44209927106E+03  0.00000000000E+00 0.  1.
</event>
<event>
12    1  0.8684423E-002  0.2853394E+03  0.7818608E-02  0.1092910E+00
         21   -1    0    0  503  502  0.00000000000E+00  0.00000000000E+00  0.12735368082E+04  0.12735368082E+04  0.00000000000E+00 0.  1.
         21   -1    0    0  501  503 -0.00000000000E+00 -0.00000000000E+00 -0.63968784017E+02  0.63968784017E+02  0.00000000000E+00 0. -1.
          6    2    1    2  501    0 -0.22586624759E+03  0.20622127472E+02  0.64219114713E+03  0.70241892667E+03  0.17187799495E+03 0.  0.
         24    2    3    3    0    0 -0.15573670988E+03 -0.25730441391E+02  0.54907862861E+03  0.57688509137E+03  0.79956799780E+02 0.  0.
         -6    2    1    2    0  502  0.22586624759E+03 -0.20622127472E+02  0.56737687704E+03  0.63508666554E+03  0.17314074680E+03 0.  0.
        -24    2    5    5    0    0  0.17037434573E+03 -0.30380823817E+02  0.26010912413E+03  0.32266044176E+03  0.80638651297E+02 0.  0.
          5    1    3    3  501    0 -0.70129537707E+02  0.46352568864E+02  0.93112518521E+02  0.12553383530E+03  0.47000000000E+01 0. -1.
        -13    1    4    4    0    0 -0.12407192087E+03 -0.41298130831E+00  0.30185594909E+03  0.32636027041E+03  0.00000000000E+00 0.  1.
         14    1    4    4    0    0 -0.31664789012E+02 -0.25317460083E+02  0.24722267951E+03  0.25052482096E+03  0.00000000000E+00 0. -1.
         -5    1    5    5    0  502  0.55491901861E+02  0.97586963449E+01  0.30726775291E+03  0.31242622378E+03  0.47000000000E+01 0.  1.
         13    1    6    6    0    0  0.13992018824E+03  0.50003493790E+01  0.22169348560E+03  0.26220347848E+03  0.00000000000E+00 0. -1.
        -14    1    6    6    0    0  0.30454157490E+02 -0.35381173196E+02  0.38415638531E+02  0.60456963279E+02  0.00000000000E+00 0.  1.
</event>
<event>
12    1  0.8684423E-002  0.1850747E+03  0.7818608E-02  0.1163732E+00
         21   -1    0    0  501  502  0.00000000000E+00  0.00000000000E+00  0.15983262909E+03  0.15983262909E+03  0.00000000000E+00 0. -1.
         21   -1    0    0  502  503 -0.00000000000E+00 -0.00000000000E+00 -0.26340117258E+03  0.26340117258E+03  0.00000000000E+00 0. -1.
         -6    2    1    2    0  503 -0.20878561425E+02  0.53689396244E+02 -0.14614780164E+03  0.23332425001E+03  0.17251828923E+03 0.  0.
        -24    2    3    3    0    0  0.16764668538E+02  0.94316211757E+02 -0.81913833915E+02  0.14837930601E+03  0.78293935609E+02 0.  0.
          6    2    1    2  501    0  0.20878561425E+02 -0.53689396244E+02  0.42579258151E+02  0.18990955166E+03  0.17588115019E+03 0.  0.
         24    2    5    5    0    0  0.53872490480E+02 -0.32734916159E+02 -0.30358357084E+02  0.10702604723E+03  0.80988424946E+02 0.  0.
          5    1    5    5  501    0 -0.32993929054E+02 -0.20954480086E+02  0.72937615235E+02  0.82883504428E+02  0.47000000000E+01 0. -1.
        -11    1    6    6    0    0  0.33207701835E+02 -0.58055541050E+02 -0.78471012223E+01  0.67340732884E+02  0.00000000000E+00 0.  1.
         12    1    6    6    0    0  0.20664788644E+02  0.25320624891E+02 -0.22511255862E+02  0.39685314350E+02  0.00000000000E+00 0. -1.
         -5    1    3    3    0  503 -0.37643229964E+02 -0.40626815512E+02 -0.64233967727E+02  0.84944943998E+02  0.47000000000E+01 0.  1.
         13    1    4    4    0    0  0.12626728863E+02  0.72305436339E+02 -0.96804105587E+02  0.12148475322E+03  0.00000000000E+00 0. -1.
        -14    1    4    4    0    0  0.41379396756E+01  0.22010775418E+02  0.14890271672E+02  0.26894552789E+02  0.00000000000E+00 0.  1.
</event>
<event>
12    1  0.8684423E-002  0.1748427E+03  0.7818608E-02  0.1173015E+00
         21   -1    0    0  503  502  0.00000000000E+00  0.00000000000E+00  0.63178352477E+02  0.63178352477E+02  0.00000000000E+00 0. -1.
         21   -1    0    0  501  503 -0.00000000000E+00 -0.00000000000E+00 -0.52510293241E+03  0.52510293241E+03  0.00000000000E+00 0. -1.
          6    2    1    2  501    0  0.18245089620E+02  0.23181057160E+02 -0.31505281869E+03  0.36031688444E+03  0.17233610747E+03 0.  0.
         24    2    3    3    0    0 -0.48978354317E+02  0.80885764103E+00 -0.23519764141E+03  0.25345975522E+03  0.80773656275E+02 0.  0.
         -6    2    1    2    0  502 -0.18245089620E+02 -0.23181057160E+02 -0.14687176124E+03  0.22796440045E+03  0.17183192054E+03 0.  0.
        -24    2    5    5    0    0  0.44638488530E+02 -0.32885931251E+02 -0.40293769972E+02  0.10374891347E+03  0.77885621369E+02 0.  0.
          5    1    3    3  501    0  0.67223443937E+02  0.22372199519E+02 -0.79855177285E+02  0.10685712922E+03  0.47000000000E+01 0. -1.
        -11    1    4    4    0    0 -0.40393157127E+01 -0.17960112669E+02 -0.63280931807E+01  0.19466034055E+02  0.00000000000E+00 0.  1.
         12    1    4    4    0    0 -0.44939038604E+02  0.18768970310E+02 -0.22886954823E+03  0.23399372116E+03  0.00000000000E+00 0. -1.
         -5    1    5    5    0  502 -0.62883578150E+02  0.97048740913E+01 -0.10657799127E+03  0.12421548697E+03  0.47000000000E+01 0.  1.
         13    1    6    6    0    0  0.28316592359E+02 -0.50399679398E+02 -0.10978321343E+01  0.57820085797E+02  0.00000000000E+00 0. -1.
        -14    1    6    6    0    0  0.16321896171E+02  0.17513748146E+02 -0.39195937838E+02  0.45928827677E+02  0.00000000000E+00 0.  1.
</event>
<event>
12    1  0.8684423E-002  0.2905153E+03  0.7818608E-02  0.1091324E+00
         21   -1    0    0  501  502  0.00000000000E+00  0.00000000000E+00  0.11912487352E+04  0.11912487352E+04  0.00000000000E+00 0. -1.
         21   -1    0    0  502  503 -0.00000000000E+00 -0.00000000000E+00 -0.70846419782E+02  0.70846419782E+02  0.00000000000E+00 0.  1.
         -6    2    1    2    0  503  0.72845884199E+02  0.21022632756E+03  0.45622976974E+03  0.54087407554E+03  0.18680880907E+03 0.  0.
        -24    2    3    3    0    0  0.56812275960E+02  0.65926856696E+02  0.32095365164E+03  0.34237689164E+03  0.81465970178E+02 0.  0.
          6    2    1    2  501    0 -0.72845884199E+02 -0.21022632756E+03  0.66417254566E+03  0.72122107943E+03  0.17185180639E+03 0.  0.
         24    2    5    5    0    0 -0.75355772434E+02 -0.49999200874E+02  0.27919175936E+03  0.30419430872E+03  0.80048275670E+02 0.  0.
          5    1    5    5  501    0  0.25098882355E+01 -0.16022712669E+03  0.38498078630E+03  0.41702677070E+03  0.47000000000E+01 0. -1.
        -11    1    6    6    0    0 -0.45850665604E+01  0.10466399630E+02  0.17577312350E+01  0.11561054263E+02  0.00000000000E+00 0.  1.
         12    1    6    6    0    0 -0.70770705874E+02 -0.60465600504E+02  0.27743402813E+03  0.29263325446E+03  0.00000000000E+00 0. -1.
         -5    1    3    3    0  503  0.16033608239E+02  0.14429947086E+03  0.13527611810E+03  0.19849718389E+03  0.47000000000E+01 0.  1.
         11    1    4    4    0    0  0.25340603850E+01  0.55688669245E+02  0.98625010085E+02  0.11328963747E+03  0.00000000000E+00 0. -1.
        -12    1    4    4    0    0  0.54278215575E+02  0.10238187451E+02  0.22232864155E+03  0.22908725417E+03  0.00000000000E+00 0.  1.
</event>
<event>
12    1  0.8684423E-002  0.2259948E+03  0.7818608E-02  0.1130019E+00
         21   -1    0    0  501  502  0.00000000000E+00  0.00000000000E+00  0.87689987552E+02  0.87689987552E+02  0.00000000000E+00 0.  1.
         21   -1    0    0  502  503 -0.00000000000E+00 -0.00000000000E+00 -0.91607559698E+03  0.91607559698E+03  0.00000000000E+00 0.  1.
         -6    2    1    2    0  503  0.13827389056E+03  0.28720318281E+02 -0.72214006785E+03  0.75667689976E+03  0.17643448512E+03 0.  0.
        -24    2    3    3    0    0  0.11259266843E+03  0.69507146002E+02 -0.35846521281E+03  0.38979193049E+03  0.77020049017E+02 0.  0.
          6    2    1    2  501    0 -0.13827389056E+03 -0.28720318281E+02 -0.10624554158E+03  0.24708868478E+03  0.17268519782E+03 0.  0.
         24    2    5    5    0    0 -0.97962027104E+02 -0.61054921729E+02 -0.12857451735E+03  0.19059756977E+03  0.80447280058E+02 0.  0.
          5    1    5    5  501    0 -0.40311863452E+02  0.32334603448E+02  0.22328975776E+02  0.56491115003E+02  0.47000000000E+01 0. -1.
        -11    1    6    6    0    0  0.34076713812E+01 -0.11792860546E+02  0.71284452965E+01  0.14195017310E+02  0.00000000000E+00 0.  1.
         12    1    6    6    0    0 -0.10136969849E+03 -0.49262061183E+02 -0.13570296265E+03  0.17640255246E+03  0.00000000000E+00 0. -1.
         -5    1    3    3    0  503  0.25681222122E+02 -0.40786827721E+02 -0.36367485504E+03  0.36688496927E+03  0.47000000000E+01 0.  1.
         13    1    4    4    0    0  0.45011866727E+02 -0.12597791014E+02 -0.10654964442E+03  0.11635118912E+03  0.00000000000E+00 0. -1.
        -14    1    4    4    0    0  0.67580801706E+02  0.82104937016E+02 -0.25191556839E+03  0.27344074137E+03  0.00000000000E+00 0.  1.
</event>
<event>
12    1  0.8684423E-002  0.1784397E+03  0.7818608E-02  0.1169719E+00
         21   -1    0    0  503  502  0.00000000000E+00  0.00000000000E+00  0.30706691435E+02  0.30706691435E+02  0.00000000000E+00 0.  1.
         21   -1    0    0  501  503 -0.00000000000E+00 -0.00000000000E+00 -0.12969950801E+04  0.12969950801E+04  0.00000000000E+00 0.  1.
          6    2    1    2  501    0  0.17373493254E+02 -0.44852050064E+02 -0.93798941759E+03  0.95481143520E+03  0.17183475963E+03 0.  0.
         24    2    3    3    0    0  0.29029807243E+02 -0.52003828409E+02 -0.29270197040E+03  0.30936198165E+03  0.80518720411E+02 0.  0.
         -6    2    1    2    0  502 -0.17373493254E+02  0.44852050064E+02 -0.32829897104E+03  0.37289033629E+03  0.17015711521E+03 0.  0.
        -24    2    5    5    0    0 -0.28729624479E+02  0.61737299663E+02 -0.33452745824E+03  0.35109681838E+03  0.81996768627E+02 0.  0.
          5    1    3    3  501    0 -0.11656313989E+02  0.71517783445E+01 -0.64528744718E+03  0.64544945354E+03  0.47000000000E+01 0. -1.
        -13    1    4    4    0    0  0.20430640806E+02  0.14476098223E+02 -0.14518927269E+03  0.14733259452E+03  0.00000000000E+00 0.  1.
         14    1    4    4    0    0  0.85991664378E+01 -0.66479926632E+02 -0.14751269772E+03  0.16202938714E+03  0.00000000000E+00 0. -1.
         -5    1    5    5    0  502  0.11356131225E+02 -0.16885249599E+02  0.62284872034E+01  0.21793517918E+02  0.47000000000E+01 0.  1.
         13    1    6    6    0    0 -0.51093008339E+02  0.25714717762E+02 -0.25086943252E+03  0.25730762597E+03  0.00000000000E+00 0. -1.
        -14    1    6    6    0    0  0.22363383860E+02  0.36022581901E+02 -0.83658025723E+02  0.93789192407E+02  0.00000000000E+00 0.  1.
</event>
<event>
12    1  0.8684423E-002  0.1863866E+03  0.7818608E-02  0.1162128E+00
         21   -1    0    0  501  502  0.00000000000E+00  0.00000000000E+00  0.40536707305E+03  0.40536707305E+03  0.00000000000E+00 0. -1.
         21   -1    0    0  502  503 -0.00000000000E+00 -0.00000000000E+00 -0.88940535953E+02  0.88940535953E+02  0.00000000000E+00 0. -1.
         -6    2    1    2    0  503 -0.53812827289E+02 -0.43354869414E+02  0.10667789760E+03  0.21475602241E+03  0.17310260034E+03 0.  0.
        -24    2    3    3    0    0 -0.70967145667E+02 -0.48603801148E+02  0.13931293450E+03  0.17721993902E+03  0.67824389528E+02 0.  0.
          6    2    1    2  501    0  0.53812827289E+02  0.43354869414E+02  0.20974863949E+03  0.27955158659E+03  0.17140342094E+03 0.  0.
         24    2    5    5    0    0  0.51109277910E+02  0.37101376465E+02  0.23433855862E+03  0.25360607684E+03  0.73571813436E+02 0.  0.
          5    1    5    5  501    0  0.27035493788E+01  0.62534929494E+01 -0.24589919125E+02  0.25945509744E+02  0.47000000000E+01 0. -1.
        -13    1    6    6    0    0  0.36336991268E+02 -0.17338453117E+02  0.88033848450E+02  0.96803705320E+02  0.00000000000E+00 0.  1.
         14    1    6    6    0    0  0.14772286643E+02  0.54439829582E+02  0.14630471017E+03  0.15680237152E+03  0.00000000000E+00 0. -1.
         -5    1    3    3    0  503  0.17154318378E+02  0.52489317342E+01 -0.32635036901E+02  0.37536083398E+02  0.47000000000E+01 0.  1.
         13    1    4    4    0    0 -0.66272051923E+02 -0.91284215436E+01  0.10604407925E+03  0.12538205490E+03  0.00000000000E+00 0. -1.
        -14    1    4    4    0    0 -0.46950937442E+01 -0.39475379605E+02  0.33268855252E+02  0.51837884120E+02  0.00000000000E+00 0.  1.
</event>
<event>
12    1  0.8684423E-002  0.1762434E+03  0.7818608E-02  0.1171911E+00
         21   -1    0    0  503  502  0.00000000000E+00  0.00000000000E+00  0.16845447309E+03  0.16845447309E+03  0.00000000000E+00 0. -1.
         21   -1    0    0  501  503 -0.00000000000E+00 -0.00000000000E+00 -0.33880749057E+03  0.33880749057E+03  0.00000000000E+00 0. -1.
          6    2    1    2  501    0 -0.31669874812E+02  0.49432925166E+01 -0.25715431496E+03  0.31080278484E+03  0.17158849685E+03 0.  0.
         24    2    3    3    0    0 -0.10356056925E+02  0.23903430501E+02 -0.26748117476E+03  0.28010262688E+03  0.78947329487E+02 0.  0.
         -6    2    1    2    0  502  0.31669874812E+02 -0.49432925166E+01  0.86801297476E+02  0.19645917883E+03  0.17330414476E+03 0.  0.
        -24    2    5    5    0    0 -0.49241308032E+02 -0.19669533248E+02  0.63915050591E+02  0.11096443061E+03  0.73596020370E+02 0.  0.
          5    1    3    3  501    0 -0.21313817887E+02 -0.18960137984E+02  0.10326859797E+02  0.30700157957E+02  0.47000000000E+01 0. -1.
        -13    1    4    4    0    0 -0.10516064847E+02 -0.24964270281E+02 -0.15666727202E+03  0.15899193857E+03  0.00000000000E+00 0.  1.
         14    1    4    4    0    0  0.16000792136E+00  0.48867700782E+02 -0.11081390274E+03  0.12111068831E+03  0.00000000000E+00 0. -1.
         -5    1    5    5    0  502  0.80911182844E+02  0.14726240732E+02  0.22886246884E+02  0.85494748212E+02  0.47000000000E+01 0.  1.
         11    1    6    6    0    0 -0.31814549098E+01 -0.59213886591E+01 -0.16197973953E+02  0.17537356106E+02  0.00000000000E+00 0. -1.
        -12    1    6    6    0    0 -0.46059853122E+02 -0.13748144589E+02  0.80113024545E+02  0.93427074507E+02  0.00000000000E+00 0.  1.
</event>
<event>
12    1  0.8684423E-002  0.2078975E+03  0.7818608E-02  0.1143429E+00
         21   -1    0    0  503  502  0.00000000000E+00  0.00000000000E+00  0.30122098159E+03  0.30122098159E+03  0.00000000000E+00 0.  1.
         21   -1    0    0  501  503 -0.00000000000E+00 -0.00000000000E+00 -0.17897097495E+03  0.17897097495E+03  0.00000000000E+00 0.  1.
          6    2    1    2  501    0 -0.35306901756E+02  0.10916454635E+03 -0.46855579554E+02  0.21220303317E+03  0.17225332060E+03 0.  0.
         24    2    3    3    0    0 -0.85021545927E+01  0.93202040963E+01  0.28357574749E+02  0.84271427493E+02  0.78347741569E+02 0.  0.
         -6    2    1    2    0  502  0.35306901756E+02 -0.10916454635E+03  0.16910558620E+03  0.26798892338E+03  0.17337210929E+03 0.  0.
        -24    2    5    5    0    0  0.61758122855E+02 -0.83607896301E+02  0.18575448836E+03  0.22734306993E+03  0.79848578157E+02 0.  0.
          5    1    3    3  501    0 -0.26804747164E+02  0.99844342252E+02 -0.75213154303E+02  0.12793160567E+03  0.47000000000E+01 0. -1.
        -13    1    4    4    0    0 -0.16884664267E+01  0.12165781892E+02 -0.26347791063E+02  0.29069971823E+02  0.00000000000E+00 0.  1.
         14    1    4    4    0    0 -0.68136881660E+01 -0.28455777956E+01  0.54705365812E+02  0.55201455670E+02  0.00000000000E+00 0. -1.
         -5    1    5    5    0  502 -0.26451221098E+02 -0.25556650048E+02 -0.16648902168E+02  0.40645853450E+02  0.47000000000E+01 0.  1.
         11    1    6    6    0    0  0.37227637374E+01  0.15457444985E+02  0.17452561051E+02  0.23608969960E+02  0.00000000000E+00 0. -1.
        -12    1    6    6    0    0  0.58035359117E+02 -0.99065341286E+02  0.16830192731E+03  0.20373409997E+03  0.00000000000E+00 0.  1.
</event>
<event>
12    1  0.8684423E-002  0.2529143E+03  0.7818608E-02  0.1111884E+00
         21   -1    0    0  501  502  0.00000000000E+00  0.00000000000E+00  0.36497352489E+03  0.36497352489E+03  0.00000000000E+00 0. -1.
         21   -1    0    0  502  503 -0.00000000000E+00 -0.00000000000E+00 -0.17422561003E+03  0.17422561003E+03  0.00000000000E+00 0. -1.
         -6    2    1    2    0  503  0.90304258574E+02  0.16193931814E+03  0.78047263101E+02  0.26468285381E+03  0.17200708110E+03 0.  0.
        -24    2    3    3    0    0  0.10648494942E+03  0.54511542525E+02  0.53866003259E+02  0.15328552415E+03  0.79273910490E+02 0.  0.
          6    2    1    2  501    0 -0.90304258574E+02 -0.16193931814E+03  0.11270065176E+03  0.27451628111E+03  0.16816227226E+03 0.  0.
         24    2    5    5    0    0 -0.37244632279E+02 -0.12245932072E+03  0.91897256661E+01  0.15159111704E+03  0.80696764776E+02 0.  0.
          5    1    5    5  501    0 -0.53059626295E+02 -0.39479997421E+02  0.10351092609E+03  0.12292516406E+03  0.47000000000E+01 0. -1.
        -13    1    6    6    0    0 -0.50026182812E+02 -0.31328652714E+02  0.79571623525E+01  0.59560220620E+02  0.00000000000E+00 0.  1.
         14    1    6    6    0    0  0.12781550533E+02 -0.91130668001E+02  0.12325633137E+01  0.92030896424E+02  0.00000000000E+00 0. -1.
         -5    1    3    3    0  503 -0.16180690848E+02  0.10742777561E+03  0.24181259841E+02  0.11139732967E+03  0.47000000000E+01 0.  1.
         13    1    4    4    0    0  0.65798929398E+02  0.70525738821E+02  0.51868182690E+02  0.10951569441E+03  0.00000000000E+00 0. -1.
        -14    1    4    4    0    0  0.40686020023E+02 -0.16014196296E+02  0.19978205695E+01  0.43769829739E+02  0.00000000000E+00 0.  1.
</event>
<event>
12    1  0.8684423E-002  0.1970627E+03  0.7818608E-02  0.1152242E+00
         21   -1    0    0  503  502  0.00000000000E+00  0.00000000000E+00  0.44219748788E+03  0.44219748788E+03  0.00000000000E+00 0.  1.
         21   -1    0    0  501  503 -0.00000000000E+00 -0.00000000000E+00 -0.15412548398E+03  0.15412548398E+03  0.00000000000E+00 0.  1.
          6    2    1    2  501    0  0.63786674243E+02  0.71583169212E+02 -0.51530777677E+02  0.20368605227E+03  0.17216183351E+03 0.  0.
         24    2    3    3    0    0 -0.69138990028E+01  0.50530448544E+01  0.23830518982E+02  0.80697257909E+02  0.76621266874E+02 0.  0.
         -6    2    1    2    0  502 -0.63786674243E+02 -0.71583169212E+02  0.33960278158E+03  0.39263691959E+03  0.17216507034E+03 0.  0.
        -24    2    5    5    0    0 -0.67379684820E+02 -0.58432708388E+02  0.10860457012E+03  0.16118906793E+03  0.78946561874E+02 0.  0.
          5    1    3    3  501    0  0.70700573245E+02  0.66530124358E+02 -0.75361296659E+02  0.12298879436E+03  0.47000000000E+01 0. -1.
        -13    1    4    4    0    0 -0.10047946195E+02 -0.12327768595E+02 -0.24517768344E+02  0.29224237643E+02  0.00000000000E+00 0.  1.
         14    1    4    4    0    0  0.31340471922E+01  0.17380813449E+02  0.48348287326E+02  0.51473020266E+02  0.00000000000E+00 0. -1.
         -5    1    5    5    0  502  0.35930105771E+01 -0.13150460824E+02  0.23099821146E+03  0.23144785167E+03  0.47000000000E+01 0.  1.
         13    1    6    6    0    0 -0.44910816757E+02  0.10398217242E+02  0.50280806298E+02  0.68214836111E+02  0.00000000000E+00 0. -1.
        -14    1    6    6    0    0 -0.22468868062E+02 -0.68830925631E+02  0.58323763825E+02  0.92974231817E+02  0.00000000000E+00 0.  1.
</event>
<event>
12    1  0.8684423E-002  0.2107533E+03  0.7818608E-02  0.1140982E+00
         21   -1    0    0  503  502  0.00000000000E+00  0.00000000000E+00  0.35101125430E+02  0.35101125430E+02  0.00000000000E+00 0. -1.
         21   -1    0    0  501  503 -0.00000000000E+00 -0.00000000000E+00 -0.16745813153E+04  0.16745813153E+04  0.00000000000E+00 0.  1.
          6    2    1    2  501    0 -0.11757448591E+03 -0.31460470138E+02 -0.39692740684E+03  0.44938311809E+03  0.17198924270E+03 0.  0.
         24    2    3    3    0    0 -0.50331570563E+01 -0.34375700255E+02 -0.23766270005E+03  0.25428984272E+03  0.83502956089E+02 0.  0.
         -6    2    1    2    0  502  0.11757448591E+03  0.31460470138E+02 -0.12425527830E+04  0.12602993226E+04  0.17205651140E+03 0.  0.
        -24    2    5    5    0    0  0.56305091957E+01 -0.23803945708E+02 -0.59981536007E+03  0.60553287997E+03  0.79330146079E+02 0.  0.
          5    1    3    3  501    0 -0.11254132885E+03  0.29152301168E+01 -0.15926470679E+03  0.19509327537E+03  0.47000000000E+01 0. -1.
        -13    1    4    4    0    0 -0.18635221651E+02 -0.28490044577E+02 -0.23702287001E+03  0.23945520465E+03  0.00000000000E+00 0.  1.
         14    1    4    4    0    0  0.13602064595E+02 -0.58856556774E+01 -0.63983003680E+00  0.14834638063E+02  0.00000000000E+00 0. -1.
         -5    1    5    5    0  502  0.11194397672E+03  0.55264415845E+02 -0.64273742296E+03  0.65476644268E+03  0.47000000000E+01 0.  1.
         13    1    6    6    0    0  0.35771251845E+01 -0.24705705436E+01  0.89648812515E+00  0.44388325442E+01  0.00000000000E+00 0. -1.
        -14    1    6    6    0    0  0.20533840112E+01 -0.21333375164E+02 -0.60071184820E+03  0.60109404742E+03  0.00000000000E+00 0.  1.
</event>
<event>
12    1  0.8684423E-002  0.1740809E+03  0.7818608E-02  0.1174147E+00
         21   -1    0    0  501  502  0.00000000000E+00  0.00000000000E+00  0.36909656115E+03  0.36909656115E+03  0.00000000000E+00 0.  1.
         21   -1    0    0  502  503 -0.00000000000E+00 -0.00000000000E+00 -0.37138129003E+03  0.37138129003E+03  0.00000000000E+00 0.  1.
         -6    2    1    2    0  503  0.22818622264E+02  0.24424539375E+00 -0.32841408252E+03  0.37169877820E+03  0.17257874419E+03 0.  0.
        -24    2    3    3    0    0 -0.29213473235E+01  0.55910919920E+02 -0.12165264528E+03  0.15598205049E+03  0.79977926550E+02 0.  0.
          6    2    1    2  501    0 -0.22818622264E+02 -0.24424539375E+00  0.32612935364E+03  0.36877907298E+03  0.17063674920E+03 0.  0.
         24    2    5    5    0    0  0.27332849247E+02 -0.45875607531E+02  0.24435656741E+03  0.26244812793E+03  0.79481015369E+02 0.  0.
          5    1    5    5  501    0 -0.50151471510E+02  0.45631362137E+02  0.81772786232E+02  0.10633094504E+03  0.47000000000E+01 0. -1.
        -13    1    6    6    0    0  0.42728925415E+01  0.11981095872E+01  0.17720202300E+03  0.17725758103E+03  0.00000000000E+00 0.  1.
         14    1    6    6    0    0  0.23059956705E+02 -0.47073717118E+02  0.67154544412E+02  0.85190546904E+02  0.00000000000E+00 0. -1.
         -5    1    3    3    0  503  0.25739969587E+02 -0.55666674526E+02 -0.20676143723E+03  0.21571672771E+03  0.47000000000E+01 0.  1.
         13    1    4    4    0    0 -0.26444775431E+02 -0.45126578493E+01 -0.13874477486E+02  0.30202505757E+02  0.00000000000E+00 0. -1.
        -14    1    4    4    0    0  0.23523428108E+02  0.60423577769E+02 -0.10777816780E+03  0.12577954474E+03  0.00000000000E+00 0.  1.
</event>
<event>
12    1  0.8684423E-002  0.2046788E+03  0.7818608E-02  0.1146260E+00
         21   -1    0    0  501  502  0.00000000000E+00  0.00000000000E+00  0.31697420926E+03  0.31697420926E+03  0.00000000000E+00 0.  1.
         21   -1    0    0  502  503 -0.00000000000E+00 -0.00000000000E+00 -0.16050329381E+03  0.16050329381E+03  0.00000000000E+00 0.  1.
         -6    2    1    2    0  503  0.10639797206E+03  0.93433443165E+01 -0.24009408218E+02  0.20608214130E+03  0.17460117622E+03 0.  0.
        -24    2    3    3    0    0 -0.11070801311E+02  0.16954687515E+02 -0.32656063876E+02  0.87956361231E+02  0.79119396501E+02 0.  0.
          6    2    1    2  501    0 -0.10639797206E+03 -0.93433443165E+01  0.18048032367E+03  0.27139536178E+03  0.17226278943E+03 0.  0.
         24    2    5    5    0    0 -0.10483705821E+03 -0.22260160224E+02  0.20424750228E+03  0.24389537333E+03  0.79256466225E+02 0.  0.
          5    1    5    5  501    0 -0.15609138512E+01  0.12916815908E+02 -0.23767178615E+02  0.27499988446E+02  0.47000000000E+01 0. -1.
        -13    1    6    6    0    0  0.59959324811E+00 -0.23564791072E+02  0.65599749352E+02  0.69706427289E+02  0.00000000000E+00 0.  1.
         14    1    6    6    0    0 -0.10543665145E+03  0.13046308481E+01  0.13864775293E+03  0.17418894605E+03  0.00000000000E+00 0. -1.
         -5    1    3    3    0  503  0.11746877337E+03 -0.76113431987E+01  0.86466556579E+01  0.11812578006E+03  0.47000000000E+01 0.  1.
         11    1    4    4    0    0 -0.43529289147E+01 -0.30913274532E+02 -0.32731887454E+01  0.31389365986E+02  0.00000000000E+00 0. -1.
        -12    1    4    4    0    0 -0.67178723961E+01  0.47867962048E+02 -0.29382875131E+02  0.56566995245E+02  0.00000000000E+00 0.  1.
</event>
<event>
12    1  0.8684423E-002  0.1741195E+03  0.7818608E-02  0.1174272E+00
         21   -1    0    0  501  502  0.00000000000E+00  0.00000000000E+00  0.28425492819E+03  0.28425492819E+03  0.00000000000E+00 0. -1.
         21   -1    0    0  502  503 -0.00000000000E+00 -0.00000000000E+00 -0.39511226540E+03  0.39511226540E+03  0.00000000000E+00 0. -1.
         -6    2    1    2    0  503 -0.19975155225E+02 -0.89844086859E+01 -0.34634119928E+03  0.38650160643E+03  0.17015151786E+03 0.  0.
        -24    2    3    3    0    0 -0.10316433516E+02  0.12210342863E+02 -0.35324255646E+03  0.36175838252E+03  0.76376058778E+02 0.  0.
          6    2    1    2  501    0  0.19975155225E+02  0.89844086859E+01  0.23548386207E+03  0.29286558716E+03  0.17273643628E+03 0.  0.
         24    2    5    5    0    0  0.66079178280E+02  0.47361969807E+02  0.15733596721E+03  0.19423698274E+03  0.79773334500E+02 0.  0.
          5    1    5    5  501    0 -0.46104023056E+02 -0.38377561121E+02  0.78147894856E+02  0.98628604420E+02  0.47000000000E+01 0. -1.
        -13    1    6    6    0    0 -0.14095220793E+02  0.65410909661E+01  0.33519735975E+01  0.15896441338E+02  0.00000000000E+00 0.  1.
         14    1    6    6    0    0  0.80174399073E+02  0.40820878841E+02  0.15398399362E+03  0.17834054140E+03  0.00000000000E+00 0. -1.
         -5    1    3    3    0  503 -0.96587217088E+01 -0.21194751549E+02  0.69013571871E+01  0.24743223906E+02  0.47000000000E+01 0.  1.
         11    1    4    4    0    0 -0.13484371168E+02 -0.31270102722E+02 -0.13739563656E+03  0.14155284715E+03  0.00000000000E+00 0. -1.
        -12    1    4    4    0    0  0.31679376520E+01  0.43480445585E+02 -0.21584691991E+03  0.22020553538E+03  0.00000000000E+00 0.  1.
</event>
<event>
12    1  0.8684423E-002  0.1860436E+03  0.7818608E-02  0.1163329E+00
         21   -1    0    0  503  502  0.00000000000E+00  0.00000000000E+00  0.18834943710E+02  0.18834943710E+02  0.00000000000E+00 0. -1.
         21   -1    0    0  501  503 -0.00000000000E+00 -0.00000000000E+00 -0.17865362274E+04  0.17865362274E+04  0.00000000000E+00 0. -1.
          6    2    1    2  501    0  0.13702029432E+02  0.53126679932E+02 -0.87570659418E+03  0.89525094965E+03  0.17776960938E+03 0.  0.
         24    2    3    3    0    0 -0.46476190448E+02  0.75646635758E+02 -0.45045347607E+03  0.46514529864E+03  0.74628178119E+02 0.  0.
         -6    2    1    2    0  502 -0.13702029432E+02 -0.53126679932E+02 -0.89199468949E+03  0.91012022144E+03  0.17220366336E+03 0.  0.
        -24    2    5    5    0    0 -0.30684124793E+02 -0.94982080232E+02 -0.75681695203E+03  0.76751805876E+03  0.79680365000E+02 0.  0.
          5    1    3    3  501    0  0.60178219880E+02 -0.22519955825E+02 -0.42525311812E+03  0.43010565100E+03  0.47000000000E+01 0. -1.
        -11    1    4    4    0    0 -0.41477912014E+02  0.68877629426E+01 -0.10956735160E+03  0.11735784166E+03  0.00000000000E+00 0.  1.
         12    1    4    4    0    0 -0.49982784339E+01  0.68758872815E+02 -0.34088612447E+03  0.34778745698E+03  0.00000000000E+00 0. -1.
         -5    1    5    5    0  502  0.16982095361E+02  0.41855400299E+02 -0.13517773746E+03  0.14260216268E+03  0.47000000000E+01 0.  1.
         13    1    6    6    0    0 -0.95392943944E+01 -0.63884183446E+02 -0.21742279330E+03  0.22681458965E+03  0.00000000000E+00 0. -1.
        -14    1    6    6    0    0 -0.21144830399E+02 -0.31097896786E+02 -0.53939415873E+03  0.54070346911E+03  0.00000000000E+00 0.  1.
</event>
<event>
12    1  0.8684423E-002  0.2303984E+03  0.7818608E-02  0.1126724E+00
         21   -1    0    0  501  502  0.00000000000E+00  0.00000000000E+00  0.68864846080E+03  0.68864846080E+03  0.00000000000E+00 0.  1.
         21   -1    0    0  502  503 -0.00000000000E+00 -0.00000000000E+00 -0.89004570890E+02  0.89004570890E+02  0.00000000000E+00 0. -1.
         -6    2    1    2    0  503  0.15127682363E+03  0.50322398690E+01  0.15231066876E+03  0.27447272666E+03  0.17095829040E+03 0.  0.
        -24    2    3    3    0    0  0.12141604876E+03 -0.93304524017E+01  0.31767926365E+02  0.14937038636E+03  0.80457423133E+02 0.  0.
          6    2    1    2  501    0 -0.15127682363E+03 -0.50322398690E+01  0.44733322115E+03  0.50318030503E+03  0.17370494472E+03 0.  0.
         24    2    5    5    0    0 -0.37571430732E+02 -0.80494535377E+01  0.32252438433E+03  0.33425027306E+03  0.78897784792E+02 0.  0.
          5    1    5    5  501    0 -0.11370539290E+03  0.30172136687E+01  0.12480883682E+03  0.16893003197E+03  0.47000000000E+01 0. -1.
        -11    1    6    6    0    0  0.20829267878E+01  0.30256891460E+02  0.80458421620E+02  0.85984740940E+02  0.00000000000E+00 0.  1.
         12    1    6    6    0    0 -0.39654357519E+02 -0.38306344998E+02  0.24206596271E+03  0.24826553212E+03  0.00000000000E+00 0. -1.
         -5    1    3    3    0  503  0.29860774873E+02  0.14362692271E+02  0.12054274240E+03  0.12510234031E+03  0.47000000000E+01 0.  1.
         13    1    4    4    0    0  0.91355526876E+02 -0.41978050973E+02  0.30149578429E+02  0.10496183180E+03  0.00000000000E+00 0. -1.
        -14    1    4    4    0    0  0.30060521879E+02  0.32647598571E+02  0.16183479358E+01  0.44408554561E+02  0.00000000000E+00 0.  1.
</event>
<event>
12    1  0.8684423E-002  0.2065482E+03  0.7818608E-02  0.1144413E+00
         21   -1    0    0  501  502  0.00000000000E+00  0.00000000000E+00  0.85670041920E+03  0.85670041920E+03  0.00000000000E+00 0.  1.
         21   -1    0    0  502  503 -0.00000000000E+00 -0.00000000000E+00 -0.19118886556E+03  0.19118886556E+03  0.00000000000E+00 0. -1.
         -6    2    1    2    0  503 -0.50933656907E+02  0.99840981358E+02 -0.11788902047E+03  0.23782338268E+03  0.17349259707E+03 0.  0.
        -24    2    3    3    0    0 -0.95969972782E+02  0.81321184314E+02 -0.11336661760E+03  0.18869299740E+03  0.83244739104E+02 0.  0.
          6    2    1    2  501    0  0.50933656907E+02 -0.99840981358E+02  0.78340057411E+03  0.81006590208E+03  0.17299666826E+03 0.  0.
         24    2    5    5    0    0  0.83508537419E+02 -0.25847560466E+02  0.37323555455E+03  0.39198267777E+03  0.81877153644E+02 0.  0.
          5    1    5    5  501    0 -0.32574880512E+02 -0.73993420892E+02  0.41016501956E+03  0.41808322431E+03  0.47000000000E+01 0. -1.
        -13    1    6    6    0    0  0.19567998306E+02  0.19610538393E+02  0.19874783027E+03  0.20066932952E+03  0.00000000000E+00 0.  1.
         14    1    6    6    0    0  0.63940539114E+02 -0.45458098859E+02  0.17448772427E+03  0.19131334824E+03  0.00000000000E+00 0. -1.
         -5    1    3    3    0  503  0.45036315875E+02  0.18519797044E+02 -0.45224028734E+01  0.49130385281E+02  0.47000000000E+01 0.  1.
         11    1    4    4    0    0 -0.50021488129E+02  0.57136311990E+02 -0.14918031425E+02  0.77390277710E+02  0.00000000000E+00 0. -1.
        -12    1    4    4    0    0 -0.45948484654E+02  0.24184872324E+02 -0.98448586171E+02  0.11130271969E+03  0.00000000000E+00 0.  1.
</event>
<event>
12    1  0.8684423E-002  0.2181659E+03  0.7818608E-02  0.1138369E+00
         21   -1    0    0  501  502  0.00000000000E+00  0.00000000000E+00  0.52597654695E+03  0.52597654695E+03  0.00000000000E+00 0.  1.
         21   -1    0    0  502  503 -0.00000000000E+00 -0.00000000000E+00 -0.11332116645E+03  0.11332116645E+03  0.00000000000E+00 0.  1.
         -6    2    1    2    0  503 -0.18859340938E+02  0.99861022974E+02  0.38134664425E+02  0.20586704809E+03  0.17492595636E+03 0.  0.
        -24    2    3    3    0    0  0.39265451691E+02  0.37056929423E+02 -0.23882526947E+02  0.10007920517E+03  0.80811388420E+02 0.  0.
          6    2    1    2  501    0  0.18859340938E+02 -0.99861022974E+02  0.37452071608E+03  0.43343066531E+03  0.19305044992E+03 0.  0.
         24    2    5    5    0    0  0.79442416358E+01 -0.14090437939E+03  0.34395973744E+03  0.38089724820E+03  0.82808559943E+02 0.  0.
          5    1    5    5  501    0  0.10915099302E+02  0.41043356414E+02  0.30560978641E+02  0.52533417117E+02  0.47000000000E+01 0. -1.
        -13    1    6    6    0    0 -0.13154601670E+02 -0.63830232450E+01  0.10377249202E+03  0.10479750298E+03  0.00000000000E+00 0.  1.
         14    1    6    6    0    0  0.21098843306E+02 -0.13452135614E+03  0.24018724542E+03  0.27609974522E+03  0.00000000000E+00 0. -1.
         -5    1    3    3    0  503 -0.58124792629E+02  0.62804093551E+02  0.62017191373E+02  0.10578784293E+03  0.47000000000E+01 0.  1.
         13    1    4    4    0    0 -0.20325112736E+02 -0.28716700757E+01  0.74048662895E+01  0.21821749277E+02  0.00000000000E+00 0. -1.
        -14    1    4    4    0    0  0.59590564427E+02  0.39928599498E+02 -0.31287393237E+02  0.78257455889E+02  0.00000000000E+00 0.  1.
</event>
<event>
12    1  0.8684423E-002  0.2355873E+03  0.7818608E-02  0.1122771E+00
         21   -1    0    0  503  502  0.00000000000E+00  0.00000000000E+00  0.11504283620E+04  0.11504283620E+04  0.00000000000E+00 0. -1.
         21   -1    0    0  501  503 -0.00000000000E+00 -0.00000000000E+00 -0.48243256410E+02  0.48243256410E+02  0.00000000000E+00 0. -1.
          6    2    1    2  501    0  0.10353060205E+03 -0.12172979323E+03  0.55563397079E+03  0.60351509337E+03  0.17310294715E+03 0.  0.
         24    2    3    3    0    0  0.47040236477E+02 -0.10449770841E+03  0.50871465680E+03  0.52793984494E+03  0.82445878774E+02 0.  0.
         -6    2    1    2    0  502 -0.10353060205E+03  0.12172979323E+03  0.54655113482E+03  0.59515652506E+03  0.17307922529E+03 0.  0.
        -24    2    5    5    0    0 -0.71404126820E+02  0.33396790722E+01  0.32245245376E+03  0.33963619633E+03  0.79167279466E+02 0.  0.
          5    1    3    3  501    0  0.56490365570E+02 -0.17232084815E+02  0.46919313991E+02  0.75575248426E+02  0.47000000000E+01 0. -1.
        -13    1    4    4    0    0  0.70866436163E+02 -0.73907016631E+02  0.36686915680E+03  0.38089011158E+03  0.00000000000E+00 0.  1.
         14    1    4    4    0    0 -0.23826199686E+02 -0.30590691783E+02  0.14184549999E+03  0.14704973337E+03  0.00000000000E+00 0. -1.
         -5    1    5    5    0  502 -0.32126475227E+02  0.11839011416E+03  0.22409868106E+03  0.25552032873E+03  0.47000000000E+01 0.  1.
         13    1    6    6    0    0 -0.65013101056E+02 -0.20673265803E+02  0.14263781636E+03  0.15811272524E+03  0.00000000000E+00 0. -1.
        -14    1    6    6    0    0 -0.63910257643E+01  0.24012944875E+02  0.17981463740E+03  0.18152347109E+03  0.00000000000E+00 0.  1.
</event>
<event>
12    1  0.8684423E-002  0.2054298E+03  0.7818608E-02  0.1145336E+00
         21   -1    0    0  501  502  0.00000000000E+00  0.00000000000E+00  0.17256090803E+03  0.17256090803E+03  0.00000000000E+00 0. -1.
         21   -1    0    0  502  503 -0.00000000000E+00 -0.00000000000E+00 -0.29378969224E+03  0.29378969224E+03  0.00000000000E+00 0. -1.
         -6    2    1    2    0  503 -0.96382541820E+02  0.57068194767E+02 -0.15668401981E+03  0.25836270469E+03  0.17220636426E+03 0.  0.
        -24    2    3    3    0    0 -0.58646697141E+02  0.32731289564E+01 -0.16515324717E+03  0.19194191810E+03  0.78204580514E+02 0.  0.
          6    2    1    2  501    0  0.96382541820E+02 -0.57068194767E+02  0.35455235605E+02  0.20798789558E+03  0.17162609870E+03 0.  0.
         24    2    5    5    0    0  0.20350006089E+02  0.59125992769E+01 -0.31699877005E+02  0.88491343085E+02  0.79854580462E+02 0.  0.
          5    1    5    5  501    0  0.76032535731E+02 -0.62980794044E+02  0.67155112610E+02  0.11949655249E+03  0.47000000000E+01 0. -1.
        -11    1    6    6    0    0 -0.92309166133E+00 -0.35561916180E+02 -0.18225320123E+02  0.39970792764E+02  0.00000000000E+00 0.  1.
         12    1    6    6    0    0  0.21273097751E+02  0.41474515457E+02 -0.13474556882E+02  0.48520550321E+02  0.00000000000E+00 0. -1.
         -5    1    3    3    0  503 -0.37735844679E+02  0.53795065811E+02  0.84692273665E+01  0.66420786591E+02  0.47000000000E+01 0.  1.
         13    1    4    4    0    0 -0.49687121499E+02  0.35554352927E+02 -0.81726594962E+02  0.10203998422E+03  0.00000000000E+00 0. -1.
        -14    1    4    4    0    0 -0.89595756417E+01 -0.32281223970E+02 -0.83426652213E+02  0.89901933884E+02  0.00000000000E+00 0.  1.
</event>
<event>
12    1  0.8684423E-002  0.2106139E+03  0.7818608E-02  0.1141156E+00
         21   -1    0    0  501  502  0.00000000000E+00  0.00000000000E+00  0.62957162708E+03  0.62957162708E+03  0.00000000000E+00 0. -1.
         21   -1    0    0  502  503 -0.00000000000E+00 -0.00000000000E+00 -0.15057389264E+03  0.15057389264E+03  0.00000000000E+00 0.  1.
         -6    2    1    2    0  503 -0.10863917296E+02  0.12073610434E+03 -0.45358234102E+02  0.21507261342E+03  0.17176620172E+03 0.  0.
        -24    2    3    3    0    0  0.47062999520E+02  0.36824482238E+02  0.16250736489E+02  0.95848273319E+02  0.73156248167E+02 0.  0.
          6    2    1    2  501    0  0.10863917296E+02 -0.12073610434E+03  0.52435596855E+03  0.56507290630E+03  0.17222942866E+03 0.  0.
         24    2    5    5    0    0 -0.37932127188E+02 -0.12870161657E+03  0.33747525360E+03  0.37170539362E+03  0.79198487813E+02 0.  0.
          5    1    5    5  501    0  0.48796044485E+02  0.79655122289E+01  0.18688071495E+03  0.19336751268E+03  0.47000000000E+01 0. -1.
        -13    1    6    6    0    0  0.56773527300E+01 -0.85094227898E+02  0.13182245365E+03  0.15700451982E+03  0.00000000000E+00 0.  1.
         14    1    6    6    0    0 -0.43609479918E+02 -0.43607388673E+02  0.20565279994E+03  0.21470087380E+03  0.00000000000E+00 0. -1.
         -5    1    3    3    0  503 -0.57926916816E+02  0.83911622104E+02 -0.61608970591E+02  0.11922434010E+03  0.47000000000E+01 0.  1.
         11    1    4    4    0    0  0.17477116851E+00  0.90166929791E+01  0.36573735182E+02  0.37669210270E+02  0.00000000000E+00 0. -1.
        -12    1    4    4    0    0  0.46888228351E+02  0.27807789259E+02 -0.20322998693E+02  0.58179063049E+02  0.00000000000E+00 0.  1.
</event>
<event>
12    1  0.8684423E-002  0.1766685E+03  0.7818608E-02  0.1171891E+00
         21   -1    0    0  503  502  0.00000000000E+00  0.00000000000E+00  0.75379672560E+02  0.75379672560E+02  0.00000000000E+00 0.  1.
         21   -1    0    0  501  503 -0.00000000000E+00 -0.00000000000E+00 -0.59710475367E+03  0.59710475367E+03  0.00000000000E+00 0. -1.
          6    2    1    2  501    0 -0.24230310853E+02 -0.34349076712E+02 -0.45255850947E+03  0.48581990341E+03  0.17159489218E+03 0.  0.
         24    2    3    3    0    0  0.51264851883E+02  0.89133441362E-01 -0.23221256766E+03  0.25032057435E+03  0.78164060677E+02 0.  0.
         -6    2    1    2    0  502  0.24230310853E+02  0.34349076712E+02 -0.69166571644E+02  0.18666452282E+03  0.16820422828E+03 0.  0.
        -24    2    5    5    0    0  0.99061888023E+01  0.64004106678E+02  0.80038010795E+01  0.10262906780E+03  0.79208626281E+02 0.  0.
          5    1    3    3  501    0 -0.75495162736E+02 -0.34438210153E+02 -0.22034594180E+03  0.23549932905E+03  0.47000000000E+01 0. -1.
        -11    1    4    4    0    0  0.56949314625E+02  0.29087180861E+01 -0.81465363705E+02  0.99439884155E+02  0.00000000000E+00 0.  1.
         12    1    4    4    0    0 -0.56844627417E+01 -0.28195846447E+01 -0.15074720396E+03  0.15088069020E+03  0.00000000000E+00 0. -1.
         -5    1    5    5    0  502  0.14324122051E+02 -0.29655029967E+02 -0.77170372724E+02  0.84035455025E+02  0.47000000000E+01 0.  1.
         11    1    6    6    0    0  0.26138437453E+02  0.30111805865E+02 -0.29451762744E+02  0.49571615806E+02  0.00000000000E+00 0. -1.
        -12    1    6    6    0    0 -0.16232248650E+02  0.33892300813E+02  0.37455563823E+02  0.53057451993E+02  0.00000000000E+00 0.  1.
</event>
<event>
12    1  0.8684423E-002  0.2098329E+03  0.7818608E-02  0.1141816E+00
         21   -1    0    0  501  502  0.00000000000E+00  0.00000000000E+00  0.33603720790E+02  0.33603720790E+02  0.00000000000E+00 0.  1.
         21   -1    0    0  502  503 -0.00000000000E+00 -0.00000000000E+00 -0.13296753959E+04  0.13296753959E+04  0.00000000000E+00 0. -1.
         -6    2    1    2    0  503 -0.11847134556E+03 -0.12761948821E+02 -0.73700322581E+03  0.76612974577E+03  0.17199623674E+03 0.  0.
        -24    2    3    3    0    0 -0.86352222117E+02  0.42714536726E+02 -0.62046951165E+03  0.63304527983E+03  0.80515051508E+02 0.  0.
          6    2    1    2  501    0  0.11847134556E+03  0.12761948821E+02 -0.55906844932E+03  0.59714937093E+03  0.17271801621E+03 0.  0.
         24    2    5    5    0    0  0.23562730184E+02 -0.10478257507E+02 -0.11134232483E+03  0.13886067915E+03  0.78868110047E+02 0.  0.
          5    1    5    5  501    0  0.94908615375E+02  0.23240206328E+02 -0.44772612449E+03  0.45828869178E+03  0.47000000000E+01 0. -1.
        -11    1    6    6    0    0  0.43478407591E+02  0.18606411519E+02 -0.70730952884E+02  0.85084888037E+02  0.00000000000E+00 0.  1.
         12    1    6    6    0    0 -0.19915677407E+02 -0.29084669026E+02 -0.40611371944E+02  0.53775791116E+02  0.00000000000E+00 0. -1.
         -5    1    3    3    0  503 -0.32119123442E+02 -0.55476485547E+02 -0.11653371416E+03  0.13308446594E+03  0.47000000000E+01 0.  1.
         13    1    4    4    0    0 -0.94766700288E+02  0.40504521131E+02 -0.42262080574E+03  0.43500538981E+03  0.00000000000E+00 0. -1.
        -14    1    4    4    0    0  0.84144781711E+01  0.22100155941E+01 -0.19784870590E+03  0.19803989002E+03  0.00000000000E+00 0.  1.
</event>
<event>
12    1  0.8684423E-002  0.1798583E+03  0.7818608E-02  0.1168893E+00
         21   -1    0    0  501  502  0.00000000000E+00  0.00000000000E+00  0.54691307412E+02  0.54691307412E+02  0.00000000000E+00 0. -1.
         21   -1    0    0  502  503 -0.00000000000E+00 -0.00000000000E+00 -0.69124832854E+03  0.69124832854E+03  0.00000000000E+00 0. -1.
         -6    2    1    2    0  503  0.16600155130E+02 -0.47603916381E+02 -0.46581171265E+03  0.49794175176E+03  0.16859341180E+03 0.  0.
        -24    2    3    3    0    0 -0.38470557179E+02 -0.30951910061E+02 -0.15270994427E+03  0.17956323485E+03  0.80527161412E+02 0.  0.
          6    2    1    2  501    0 -0.16600155130E+02  0.47603916381E+02 -0.17074530848E+03  0.24799788419E+03  0.17264788499E+03 0.  0.
         24    2    5    5    0    0  0.23902381052E+02  0.82626427804E+02 -0.14022832264E+03  0.18618843372E+03  0.87199197166E+02 0.  0.
          5    1    5    5  501    0 -0.40502536182E+02 -0.35022511422E+02 -0.30516985836E+02  0.61809450475E+02  0.47000000000E+01 0. -1.
        -11    1    6    6    0    0 -0.18451178204E+02  0.76798268580E+02 -0.80921763272E+02  0.11307852053E+03  0.00000000000E+00 0.  1.
         12    1    6    6    0    0  0.42353559256E+02  0.58281592237E+01 -0.59306559371E+02  0.73109913186E+02  0.00000000000E+00 0. -1.
         -5    1    3    3    0  503  0.55070712309E+02 -0.16652006321E+02 -0.31310176838E+03  0.31837851691E+03  0.47000000000E+01 0.  1.
         13    1    4    4    0    0 -0.27636427103E+02 -0.12996742563E+02 -0.15544353197E+03  0.15841521092E+03  0.00000000000E+00 0. -1.
        -14    1    4    4    0    0 -0.10834130077E+02 -0.17955167498E+02  0.27335876995E+01  0.21148023929E+02  0.00000000000E+00 0.  1.
</event>
<event>
12    1  0.8684423E-002  0.2085697E+03  0.7818608E-02  0.1142922E+00
         21   -1    0    0  501  502  0.00000000000E+00  0.00000000000E+00  0.49355536199E+03  0.49355536199E+03  0.00000000000E+00 0. -1.
         21   -1    0    0  502  503 -0.00000000000E+00 -0.00000000000E+00 -0.89258457032E+02  0.89258457032E+02  0.00000000000E+00 0. -1.
         -6    2    1    2    0  503  0.99249332057E+02  0.61807431244E+02  0.16390130960E+03  0.26526397414E+03  0.17271580188E+03 0.  0.
        -24    2    3    3    0    0  0.42065999218E+01  0.34240053825E+02  0.13728162799E+03  0.16267850403E+03  0.80174643868E+02 0.  0.
          6    2    1    2  501    0 -0.99249332057E+02 -0.61807431244E+02  0.24039559537E+03  0.31754984489E+03  0.17139799662E+03 0.  0.
         24    2    5    5    0    0 -0.41102266517E+02  0.25681263079E+02  0.71165546915E+02  0.11831066158E+03  0.81141567585E+02 0.  0.
          5    1    5    5  501    0 -0.58147065539E+02 -0.87488694323E+02  0.16923004845E+03  0.19923918330E+03  0.47000000000E+01 0. -1.
        -13    1    6    6    0    0 -0.47853442606E+02  0.43594625004E+02  0.74697628392E+02  0.98844215743E+02  0.00000000000E+00 0.  1.
         14    1    6    6    0    0  0.67511760884E+01 -0.17913361925E+02 -0.35320814775E+01  0.19466445839E+02  0.00000000000E+00 0. -1.
         -5    1    3    3    0  503  0.95042732135E+02  0.27567377419E+02  0.26619681602E+02  0.10258547011E+03  0.47000000000E+01 0.  1.
         13    1    4    4    0    0  0.30025778838E+02  0.45485938286E+02  0.63372813722E+02  0.83586072379E+02  0.00000000000E+00 0. -1.
        -14    1    4    4    0    0 -0.25819178916E+02 -0.11245884461E+02  0.73908814272E+02  0.79092431650E+02  0.00000000000E+00 0.  1.
</event>
<event>
12    1  0.8684423E-002  0.2223297E+03  0.7818608E-02  0.1132343E+00
         21   -1    0    0  501  502  0.00000000000E+00  0.00000000000E+00  0.22562998453E+03  0.22562998453E+03  0.00000000000E+00 0.  1.
         21   -1    0    0  502  503 -0.00000000000E+00 -0.00000000000E+00 -0.31269765165E+03  0.31269765165E+03  0.00000000000E+00 0. -1.
         -6    2    1    2    0  503  0.26080880687E+02 -0.13849547170E+03 -0.19151665338E+03  0.29268540187E+03  0.17066021190E+03 0.  0.
        -24    2    3    3    0    0  0.58424229386E+02 -0.65616196079E+02 -0.46023296637E+02  0.12670983777E+03  0.78856600153E+02 0.  0.
          6    2    1    2  501    0 -0.26080880687E+02  0.13849547170E+03  0.10444898626E+03  0.24564223432E+03  0.17195728694E+03 0.  0.
         24    2    5    5    0    0 -0.81369701912E+02  0.75234437121E+02  0.82729246271E+02  0.15873625435E+03  0.77921892553E+02 0.  0.
          5    1    5    5  501    0  0.55288821225E+02  0.63261034577E+02  0.21719739992E+02  0.86905979964E+02  0.47000000000E+01 0. -1.
        -13    1    6    6    0    0 -0.61086160183E+02  0.17249754742E+02  0.72669559560E+02  0.96488019418E+02  0.00000000000E+00 0.  1.
         14    1    6    6    0    0 -0.20283541729E+02  0.57984682379E+02  0.10059686711E+02  0.62248234934E+02  0.00000000000E+00 0. -1.
         -5    1    3    3    0  503 -0.32343348699E+02 -0.72879275619E+02 -0.14549335675E+03  0.16597556410E+03  0.47000000000E+01 0.  1.
         11    1    4    4    0    0 -0.66210405583E+00 -0.52891254272E+02 -0.39297984549E+02  0.65895787041E+02  0.00000000000E+00 0. -1.
        -12    1    4    4    0    0  0.59086333442E+02 -0.12724941808E+02 -0.67253120886E+01  0.60814050731E+02  0.00000000000E+00 0.  1.
</event>
<event>
12    1  0.8684423E-002  0.2667782E+03  0.7818608E-02  0.1103150E+00
         21   -1    0    0  503  502  0.00000000000E+00  0.00000000000E+00  0.15260426314E+03  0.15260426314E+03  0.00000000000E+00 0. -1.
         21   -1    0    0  501  503 -0.00000000000E+00 -0.00000000000E+00 -0.71366909272E+03  0.71366909272E+03  0.00000000000E+00 0.  1.
          6    2    1    2  501    0  0.18047192320E+03  0.94592968009E+02 -0.53554557020E+03  0.59827735706E+03  0.17207205918E+03 0.  0.
         24    2    3    3    0    0  0.16359863567E+03  0.13170767027E+03 -0.43496874432E+03  0.48964956660E+03  0.80296111581E+02 0.  0.
         -6    2    1    2    0  502 -0.18047192320E+03 -0.94592968009E+02 -0.25519259385E+02  0.26799599880E+03  0.17219952995E+03 0.  0.
        -24    2    5    5    0    0 -0.85593177682E+02 -0.10916486094E+03  0.19399544805E+02  0.16191063042E+03  0.81212997576E+02 0.  0.
          5    1    3    3  501    0  0.16873287525E+02 -0.37114702260E+02 -0.10057682588E+03  0.10862779046E+03  0.47000000000E+01 0. -1.
        -13    1    4    4    0    0  0.76761004191E+02  0.42780322284E+02 -0.26423877604E+03  0.27846820017E+03  0.00000000000E+00 0.  1.
         14    1    4    4    0    0  0.86837631484E+02  0.88927347985E+02 -0.17072996828E+03  0.21118136643E+03  0.00000000000E+00 0. -1.
         -5    1    5    5    0  502 -0.94878745518E+02  0.14571892933E+02 -0.44918804191E+02  0.10608536838E+03  0.47000000000E+01 0.  1.
         11    1    6    6    0    0 -0.80561938102E+02 -0.91639558439E+02 -0.15042302480E+02  0.12294025136E+03  0.00000000000E+00 0. -1.
        -12    1    6    6    0    0 -0.50312395792E+01 -0.17525302503E+02  0.34441847286E+02  0.38970379059E+02  0.00000000000E+00 0.  1.
</event>
<event>
12    1  0.8684423E-002  0.2714836E+03  0.7818608E-02  0.1100503E+00
         21   -1    0    0  503  502  0.00000000000E+00  0.00000000000E+00  0.10081572937E+04  0.10081572937E+04  0.00000000000E+00 0. -1.
         21   -1    0    0  501  503 -0.00000000000E+00 -0.00000000000E+00 -0.12750079752E+03  0.12750079752E+03  0.00000000000E+00 0. -1.
          6    2    1    2  501    0 -0.18467002857E+03 -0.98523145058E+02  0.69224713963E+02  0.28017026927E+03  0.17289733715E+03 0.  0.
         24    2    3    3    0    0 -0.43471452680E+02  0.20839936785E+02 -0.26470149473E+01  0.81745929638E+02  0.65964537147E+02 0.  0.
         -6    2    1    2    0  502  0.18467002857E+03  0.98523145058E+02  0.81143178223E+03  0.85548782197E+03  0.17212799528E+03 0.  0.
        -24    2    5    5    0    0  0.58818526346E+02 -0.17935470570E+02  0.32449808583E+03  0.33922459022E+03  0.77414564240E+02 0.  0.
          5    1    3    3  501    0 -0.14119857589E+03 -0.11936308184E+03  0.71871728911E+02  0.19842433963E+03  0.47000000000E+01 0. -1.
        -13    1    4    4    0    0  0.69059792248E+01 -0.16930405193E+02  0.29994343907E+01  0.18529106177E+02  0.00000000000E+00 0.  1.
         14    1    4    4    0    0 -0.50377431905E+02  0.37770341978E+02 -0.56464493381E+01  0.63216823462E+02  0.00000000000E+00 0. -1.
         -5    1    5    5    0  502  0.12585150223E+03  0.11645861563E+03  0.48693369640E+03  0.51626323175E+03  0.47000000000E+01 0.  1.
         13    1    6    6    0    0  0.13666384418E+02  0.21612938604E+02  0.19285910128E+03  0.19454696637E+03  0.00000000000E+00 0. -1.
        -14    1    6    6    0    0  0.45152141928E+02 -0.39548409173E+02  0.13163898455E+03  0.14467762385E+03  0.00000000000E+00 0.  1.
</event>
<event>
12    1  0.8684423E-002  0.3030204E+03  0.7818608E-02  0.1083849E+00
         21   -1    0    0  503  502  0.00000000000E+00  0.00000000000E+00  0.11054584781E+03  0.11054584781E+03  0.00000000000E+00 0. -1.
         21   -1    0    0  501  503 -0.00000000000E+00 -0.00000000000E+00 -0.91423294795E+03  0.91423294795E+03  0.00000000000E+00 0. -1.
          6    2    1    2  501    0  0.24757098119E+03 -0.29217037746E+02 -0.24520359608E+03  0.38980268966E+03  0.17226812622E+03 0.  0.
         24    2    3    3    0    0  0.11070268583E+03  0.49881600100E+02 -0.11361725361E+03  0.18406844285E+03  0.78924347690E+02 0.  0.
         -6    2    1    2    0  502 -0.24757098119E+03  0.29217037746E+02 -0.55848350406E+03  0.63497610610E+03  0.17072142512E+03 0.  0.
        -24    2    5    5    0    0 -0.23043737595E+03  0.23715614556E+02 -0.36095759383E+03  0.43657650606E+03  0.81515927833E+02 0.  0.
          5    1    3    3  501    0  0.13686829536E+03 -0.79098637846E+02 -0.13158634247E+03  0.20573424680E+03  0.47000000000E+01 0. -1.
        -13    1    4    4    0    0  0.61512266063E+02  0.16135680573E+02 -0.10643309263E+03  0.12398436301E+03  0.00000000000E+00 0.  1.
         14    1    4    4    0    0  0.49190419769E+02  0.33745919528E+02 -0.71841609768E+01  0.60084079844E+02  0.00000000000E+00 0. -1.
         -5    1    5    5    0  502 -0.17133605235E+02  0.55014231899E+01 -0.19752591023E+03  0.19839960004E+03  0.47000000000E+01 0.  1.
         11    1    6    6    0    0 -0.22739592028E+03  0.38342292036E+02 -0.33724558778E+03  0.40855063627E+03  0.00000000000E+00 0. -1.
        -12    1    6    6    0    0 -0.30414556753E+01 -0.14626677480E+02 -0.23712006050E+02  0.28025869792E+02  0.00000000000E+00 0.  1.
</event>
<event>
12    1  0.8684423E-002  0.1969699E+03  0.7818608E-02  0.1152412E+00
         21   -1    0    0  503  502  0.00000000000E+00  0.00000000000E+00  0.29317210937E+03  0.29317210937E+03  0.00000000000E+00 0.  1.
         21   -1    0    0  501  503 -0.00000000000E+00 -0.00000000000E+00 -0.19692330817E+03  0.19692330817E+03  0.00000000000E+00 0.  1.
          6    2    1    2  501    0 -0.95275818982E+02  0.32578857199E+01  0.18873666505E+03  0.27249225075E+03  0.17187903445E+03 0.  0.
         24    2    3    3    0    0 -0.11093426031E+03  0.45362903604E+01  0.20707344382E+03  0.24789248329E+03  0.79020782686E+02 0.  0.
         -6    2    1    2    0  502  0.95275818982E+02 -0.32578857199E+01 -0.92487863842E+02  0.21760316679E+03  0.17236309853E+03 0.  0.
        -24    2    5    5    0    0 -0.38797307425E+01 -0.10808260224E+02 -0.84000011430E+02  0.11768837892E+03  0.81625252299E+02 0.  0.
          5    1    3    3  501    0  0.15658441328E+02 -0.12784046405E+01 -0.18336778771E+02  0.24599767457E+02  0.47000000000E+01 0. -1.
        -13    1    4    4    0    0 -0.50252861950E+02  0.47558471637E+01  0.25712363774E+02  0.56648864660E+02  0.00000000000E+00 0.  1.
         14    1    4    4    0    0 -0.60681398360E+02 -0.21955680337E+00  0.18136108004E+03  0.19124361863E+03  0.00000000000E+00 0. -1.
         -5    1    5    5    0  502  0.99155549724E+02  0.75503745039E+01 -0.84878524123E+01  0.99914787869E+02  0.47000000000E+01 0.  1.
         13    1    6    6    0    0 -0.38603702570E+02  0.80127955526E+00 -0.66980074416E+02  0.77312471632E+02  0.00000000000E+00 0. -1.
        -14    1    6    6    0    0  0.34723971828E+02 -0.11609539779E+02 -0.17019937014E+02  0.40375907288E+02  0.00000000000E+00 0.  1.
</event>
<event>
12    1  0.8684423E-002  0.2042271E+03  0.7818608E-02  0.1146695E+00
         21   -1    0    0  503  502  0.00000000000E+00  0.00000000000E+00  0.43066140538E+02  0.43066140538E+02  0.00000000000E+00 0.  1.
         21   -1    0    0  501  503 -0.00000000000E+00 -0.00000000000E+00 -0.96471608277E+03  0.96471608277E+03  0.00000000000E+00 0. -1.
          6    2    1    2  501    0 -0.36244309381E+02  0.10461559554E+03 -0.42021808695E+03  0.46721724368E+03  0.17161188595E+03 0.  0.
         24    2    3    3    0    0 -0.49013443469E+02  0.54823515332E+02 -0.11396476709E+03  0.15664440527E+03  0.78368144601E+02 0.  0.
         -6    2    1    2    0  502  0.36244309381E+02 -0.10461559554E+03 -0.50143185528E+03  0.54056497963E+03  0.16887426956E+03 0.  0.
        -24    2    5    5    0    0  0.66026170652E+02 -0.10235016645E+03 -0.27354303548E+03  0.31067914792E+03  0.82829517147E+02 0.  0.
          5    1    3    3  501    0  0.12769134088E+02  0.49792080207E+02 -0.30625331986E+03  0.31057283841E+03  0.47000000000E+01 0. -1.
        -11    1    4    4    0    0  0.12250541685E+02 -0.16878760668E+01  0.32794419639E+01  0.12793726462E+02  0.00000000000E+00 0.  1.
         12    1    4    4    0    0 -0.61263985153E+02  0.56511391399E+02 -0.11724420906E+03  0.14385067880E+03  0.00000000000E+00 0. -1.
         -5    1    5    5    0  502 -0.29781861271E+02 -0.22654290931E+01 -0.22788881981E+03  0.22988583171E+03  0.47000000000E+01 0.  1.
         11    1    6    6    0    0  0.42383199295E+02 -0.62655738162E+02 -0.24490534853E+03  0.25632149119E+03  0.00000000000E+00 0. -1.
        -12    1    6    6    0    0  0.23642971357E+02 -0.39694428284E+02 -0.28637686947E+02  0.54357656729E+02  0.00000000000E+00 0.  1.
</event>
<event>
12    1  0.8684423E-002  0.2786881E+03  0.7818608E-02  0.1097273E+00
         21   -1    0    0  501  502  0.00000000000E+00  0.00000000000E+00  0.42090144094E+02  0.42090144094E+02  0.00000000000E+00 0. -1.
         21   -1    0    0  502  503 -0.00000000000E+00 -0.00000000000E+00 -0.18043842705E+04  0.18043842705E+04  0.00000000000E+00 0.  1.
         -6    2    1    2    0  503 -0.48407269271E+02  0.20506851616E+03 -0.88332573941E+03  0.92624588193E+03  0.18240260920E+03 0.  0.
        -24    2    3    3    0    0  0.27925798434E+02  0.98341241037E+02 -0.59562612104E+03  0.61000134222E+03  0.82947643398E+02 0.  0.
          6    2    1    2  501    0  0.48407269271E+02 -0.20506851616E+03 -0.87896838701E+03  0.92022853268E+03  0.17273901400E+03 0.  0.
         24    2    5    5    0    0 -0.39208328891E+02 -0.99655846590E+02 -0.47825325438E+03  0.49669219248E+03  0.80674518512E+02 0.  0.
          5    1    5    5  501    0  0.87615598163E+02 -0.10541266957E+03 -0.40071513264E+03  0.42353634020E+03  0.47000000000E+01 0. -1.
        -13    1    6    6    0    0 -0.16151921217E+02 -0.72982733308E+01 -0.23206863689E+03  0.23274449850E+03  0.00000000000E+00 0.  1.
         14    1    6    6    0    0 -0.23056407675E+02 -0.92357573259E+02 -0.24618461748E+03  0.26394769398E+03  0.00000000000E+00 0. -1.
         -5    1    3    3    0  503 -0.76333067705E+02  0.10672727512E+03 -0.28769961837E+03  0.31624453971E+03  0.47000000000E+01 0.  1.
         11    1    4    4    0    0 -0.13185196074E+02 -0.86433425629E+01 -0.48441715146E+02  0.50942678890E+02  0.00000000000E+00 0. -1.
        -12    1    4    4    0    0  0.41110994508E+02  0.10698458360E+03 -0.54718440589E+03  0.55905866333E+03  0.00000000000E+00 0.  1.
</event>
<event>
12    1  0.8684423E-002  0.2033489E+03  0.7818608E-02  0.1147563E+00
         21   -1    0    0  503  502  0.00000000000E+00  0.00000000000E+00  0.75682328035E+03  0.75682328035E+03  0.00000000000E+00 0. -1.
         21   -1    0    0  501  503 -0.00000000000E+00 -0.00000000000E+00 -0.72251894443E+02  0.72251894443E+02  0.00000000000E+00 0.  1.
          6    2    1    2  501    0  0.67653687273E+02  0.80912441176E+02  0.13491449332E+03  0.24403420247E+03  0.17385892824E+03 0.  0.
         24    2    3    3    0    0  0.14182081769E+02  0.73082411059E+02  0.11425527069E+02  0.10915597312E+03  0.79008313170E+02 0.  0.
         -6    2    1    2    0  502 -0.67653687273E+02 -0.80912441176E+02  0.54965689259E+03  0.58504097232E+03  0.17037134497E+03 0.  0.
        -24    2    5    5    0    0 -0.30422731397E+02 -0.34028190867E+02  0.49589271790E+03  0.50443729075E+03  0.80398583796E+02 0.  0.
          5    1    3    3  501    0  0.53471605504E+02  0.78300301175E+01  0.12348896625E+03  0.13487822935E+03  0.47000000000E+01 0. -1.
        -11    1    4    4    0    0  0.15524447885E+02  0.24880292555E+02 -0.32607637798E+02  0.43855392855E+02  0.00000000000E+00 0.  1.
         12    1    4    4    0    0 -0.13423661160E+01  0.48202118504E+02  0.44033164866E+02  0.65300580267E+02  0.00000000000E+00 0. -1.
         -5    1    5    5    0  502 -0.37230955876E+02 -0.46884250309E+02  0.53764174687E+02  0.80603681568E+02  0.47000000000E+01 0.  1.
         13    1    6    6    0    0  0.56822388208E+01 -0.24907502908E+02  0.43004081731E+02  0.50020221758E+02  0.00000000000E+00 0. -1.
        -14    1    6    6    0    0 -0.36104970218E+02 -0.91206879591E+01  0.45288863617E+03  0.45441706900E+03  0.00000000000E+00 0.  1.
</event>
<event>
12    1  0.8684423E-002  0.1855335E+03  0.7818608E-02  0.1162687E+00
         21   -1    0    0  501  502  0.00000000000E+00  0.00000000000E+00  0.30174380486E+03  0.30174380486E+03  0.00000000000E+00 0.  1.
         21   -1    0    0  502  503 -0.00000000000E+00 -0.00000000000E+00 -0.18230895260E+03  0.18230895260E+03  0.00000000000E+00 0.  1.
         -6    2    1    2    0  503 -0.19004548220E+02 -0.65840362838E+02 -0.88787858443E+02  0.20516322142E+03  0.17179213423E+03 0.  0.
        -24    2    3    3    0    0  0.22311921847E+02 -0.10162800821E+03 -0.60031494071E+02  0.14322111335E+03  0.77989955259E+02 0.  0.
          6    2    1    2  501    0  0.19004548220E+02  0.65840362838E+02  0.20822271071E+03  0.27888953604E+03  0.17241389105E+03 0.  0.
         24    2    5    5    0    0 -0.18106705336E+02  0.50777476918E+01  0.18737571137E+03  0.20455227808E+03  0.79864516255E+02 0.  0.
          5    1    5    5  501    0  0.37111253555E+02  0.60762615146E+02  0.20846999342E+02  0.74337257963E+02  0.47000000000E+01 0. -1.
        -11    1    6    6    0    0  0.13723588175E+02 -0.30656075439E+02  0.89738244360E+02  0.95817975008E+02  0.00000000000E+00 0.  1.
         12    1    6    6    0    0 -0.31830293511E+02  0.35733823131E+02  0.97637467008E+02  0.10873430307E+03  0.00000000000E+00 0. -1.
         -5    1    3    3    0  503 -0.41316470066E+02  0.35787645369E+02 -0.28756364372E+02  0.61942108066E+02  0.47000000000E+01 0.  1.
         11    1    4    4    0    0  0.17978232340E+02 -0.94514547637E+02 -0.77713489649E+02  0.12367539378E+03  0.00000000000E+00 0. -1.
        -12    1    4    4    0    0  0.43336895070E+01 -0.71134605699E+01  0.17681995578E+02  0.19545719574E+02  0.00000000000E+00 0.  1.
</event>
<event>
12    1  0.8684423E-002  0.3375576E+03  0.7818608E-02  0.1068008E+00
         21   -1    0    0  503  502  0.00000000000E+00  0.00000000000E+00  0.15181295482E+03  0.15181295482E+03  0.00000000000E+00 0. -1.
         21   -1    0    0  501  503 -0.00000000000E+00 -0.00000000000E+00 -0.74759149362E+03  0.74759149362E+03  0.00000000000E+00 0. -1.
          6    2    1    2  501    0 -0.25777151589E+03 -0.13031180805E+03 -0.28597624177E+03  0.44123130783E+03  0.17168382111E+03 0.  0.
         24    2    3    3    0    0 -0.92909725674E+02 -0.15851169621E+02 -0.15721320147E+03  0.20273045213E+03  0.86603514945E+02 0.  0.
         -6    2    1    2    0  502  0.25777151589E+03  0.13031180805E+03 -0.30980229703E+03  0.45817314062E+03  0.17469356546E+03 0.  0.
        -24    2    5    5    0    0  0.21685825551E+03  0.15029099082E+03 -0.30592579721E+03  0.41223644645E+03  0.82057354853E+02 0.  0.
          5    1    3    3  501    0 -0.16486179022E+03 -0.11446063843E+03 -0.12876304030E+03  0.23850085571E+03  0.47000000000E+01 0. -1.
        -11    1    4    4    0    0 -0.21480919494E+02  0.26356039207E+02 -0.13092547908E+02  0.36434674634E+02  0.00000000000E+00 0.  1.
         12    1    4    4    0    0 -0.71428806180E+02 -0.42207208828E+02 -0.14412065356E+03  0.16629577749E+03  0.00000000000E+00 0. -1.
         -5    1    5    5    0  502  0.40913260389E+02 -0.19979182769E+02 -0.38764998272E+01  0.45936694164E+02  0.47000000000E+01 0.  1.
         11    1    6    6    0    0  0.13852023837E+03  0.53690087563E+02 -0.19819701252E+03  0.24769444425E+03  0.00000000000E+00 0. -1.
        -12    1    6    6    0    0  0.78338017131E+02  0.96600903258E+02 -0.10772878469E+03  0.16454200220E+03  0.00000000000E+00 0.  1.
</event>
<event>
12    1  0.8684423E-002  0.1785980E+03  0.7818608E-02  0.1169589E+00
         21   -1    0    0  501  502  0.00000000000E+00  0.00000000000E+00  0.21300992726E+04  0.21300992726E+04  0.00000000000E+00 0. -1.
         21   -1    0    0  502  503 -0.00000000000E+00 -0.00000000000E+00 -0.34699853582E+02  0.34699853582E+02  0.00000000000E+00 0. -1.
         -6    2    1    2    0  503 -0.25781822418E+02 -0.34012898732E+02  0.23081454627E+03  0.29184345257E+03  0.17342337325E+03 0.  0.
        -24    2    3    3    0    0 -0.16948067775E+02 -0.58803953863E+02  0.53049184454E+02  0.11207903591E+03  0.77474849647E+02 0.  0.
          6    2    1    2  501    0  0.25781822418E+02  0.34012898732E+02  0.18645848727E+04  0.18729556736E+04  0.17165263759E+03 0.  0.
         24    2    5    5    0    0  0.34409704100E+02  0.41537263217E+02  0.18542662010E+04  0.18568429026E+04  0.81566223135E+02 0.  0.
          5    1    5    5  501    0 -0.86278816815E+01 -0.75243644850E+01  0.10318671731E+02  0.16112771006E+02  0.47000000000E+01 0. -1.
        -13    1    6    6    0    0 -0.14665721304E+02  0.46204752396E+02  0.93525068252E+03  0.93650616745E+03  0.00000000000E+00 0.  1.
         14    1    6    6    0    0  0.49075425404E+02 -0.46674891797E+01  0.91901551846E+03  0.92033673511E+03  0.00000000000E+00 0. -1.
         -5    1    3    3    0  503 -0.88337546435E+01  0.24791055132E+02  0.17776536181E+03  0.17976441666E+03  0.47000000000E+01 0.  1.
         11    1    4    4    0    0  0.22608937021E+02 -0.24506922612E+02 -0.52145873744E+01  0.33748262335E+02  0.00000000000E+00 0. -1.
        -12    1    4    4    0    0 -0.39557004796E+02 -0.34297031251E+02  0.58263771828E+02  0.78330773574E+02  0.00000000000E+00 0.  1.
</event>
<event>
12    1  0.8684423E-002  0.2288888E+03  0.7818608E-02  0.1127669E+00
         21   -1    0    0  501  502  0.00000000000E+00  0.00000000000E+00  0.81313438811E+03  0.81313438811E+03  0.00000000000E+00 0.  1.
         21   -1    0    0  502  503 -0.00000000000E+00 -0.00000000000E+00 -0.10605505523E+03  0.10605505523E+03  0.00000000000E+00 0. -1.
         -6    2    1    2    0  503 -0.12619469128E+03  0.80956027476E+02  0.63627049869E+02  0.23623928721E+03  0.17111873320E+03 0.  0.
        -24    2    3    3    0    0 -0.13910938517E+03  0.19890105577E+02  0.37110385612E+02  0.16826091110E+03  0.84779219976E+02 0.  0.
          6    2    1    2  501    0  0.12619469128E+03 -0.80956027476E+02  0.64345228301E+03  0.68295015612E+03  0.17294824875E+03 0.  0.
         24    2    5    5    0    0  0.93681704059E+01 -0.19802342618E+02  0.35436274779E+03  0.36517183949E+03  0.85426108082E+02 0.  0.
          5    1    5    5  501    0  0.11682652088E+03 -0.61153684857E+02  0.28908953522E+03  0.31777831664E+03  0.47000000000E+01 0. -1.
        -13    1    6    6    0    0  0.13158225720E+02 -0.52873342642E+02  0.20236102165E+03  0.20956791823E+03  0.00000000000E+00 0.  1.
         14    1    6    6    0    0 -0.37900553143E+01  0.33071000024E+02  0.15200172613E+03  0.15560392125E+03  0.00000000000E+00 0. -1.
         -5    1    3    3    0  503  0.12914693889E+02  0.61065921899E+02  0.26516664257E+02  0.67978376113E+02  0.47000000000E+01 0.  1.
         13    1    4    4    0    0 -0.11137321079E+03  0.47269990993E+02  0.11300959792E+02  0.12151607228E+03  0.00000000000E+00 0. -1.
        -14    1    4    4    0    0 -0.27736174381E+02 -0.27379885416E+02  0.25809425820E+02  0.46744838815E+02  0.00000000000E+00 0.  1.
</event>
<event>
12    1  0.8684423E-002  0.2050084E+03  0.7818608E-02  0.1145647E+00
         21   -1    0    0  501  502  0.00000000000E+00  0.00000000000E+00  0.47485326092E+03  0.47485326092E+03  0.00000000000E+00 0.  1.
         21   -1    0    0  502  503 -0.00000000000E+00 -0.00000000000E+00 -0.11963676309E+03  0.11963676309E+03  0.00000000000E+00 0.  1.
         -6    2    1    2    0  503  0.17746042401E+02  0.11062714959E+03  0.25542207265E+02  0.20627155078E+03  0.17129582617E+03 0.  0.
        -24    2    3    3    0    0  0.29161623165E+02 -0.14910851863E+01  0.33247972492E+02  0.93212792296E+02  0.82040071747E+02 0.  0.
          6    2    1    2  501    0 -0.17746042401E+02 -0.11062714959E+03  0.32967429057E+03  0.38821847323E+03  0.17168330392E+03 0.  0.
         24    2    5    5    0    0  0.31723271658E+02 -0.16748836809E+02  0.19215322698E+03  0.21445287372E+03  0.88205911970E+02 0.  0.
          5    1    5    5  501    0 -0.49469314059E+02 -0.93878312776E+02  0.13752106359E+03  0.17376559951E+03  0.47000000000E+01 0. -1.
        -13    1    6    6    0    0  0.57284237669E+02  0.67983653270E+01  0.93568616907E+02  0.10992173455E+03  0.00000000000E+00 0.  1.
         14    1    6    6    0    0 -0.25560966012E+02 -0.23547202136E+02  0.98584610075E+02  0.10453113917E+03  0.00000000000E+00 0. -1.
         -5    1    3    3    0  503 -0.11415580764E+02  0.11211823477E+03 -0.77057652266E+01  0.11305875848E+03  0.47000000000E+01 0.  1.
         13    1    4    4    0    0  0.16249411302E+02 -0.17227442086E+02  0.57123374029E+02  0.61837755368E+02  0.00000000000E+00 0. -1.
        -14    1    4    4    0    0  0.12912211863E+02  0.15736356900E+02 -0.23875401537E+02  0.31375036928E+02  0.00000000000E+00 0.  1.
</event>
<event>
12    1  0.8684423E-002  0.1739912E+03  0.7818608E-02  0.1173843E+00
         21   -1    0    0  503  502  0.00000000000E+00  0.00000000000E+00  0.42541888769E+03  0.42541888769E+03  0.00000000000E+00 0.  1.
         21   -1    0    0  501  503 -0.00000000000E+00 -0.00000000000E+00 -0.15595066583E+03  0.15595066583E+03  0.00000000000E+00 0.  1.
          6    2    1    2  501    0  0.27773522936E+02 -0.38890924118E+01 -0.79864140573E+02  0.19110547188E+03  0.17133746472E+03 0.  0.
         24    2    3    3    0    0  0.57903785916E+02  0.42308269711E+02 -0.14203537911E+02  0.10522512631E+03  0.75681890882E+02 0.  0.
         -6    2    1    2    0  502 -0.27773522936E+02  0.38890924118E+01  0.34933236243E+03  0.39026408163E+03  0.17171622041E+03 0.  0.
        -24    2    5    5    0    0 -0.55189372923E+02 -0.17072059030E+02  0.10978856321E+03  0.14820144418E+03  0.81072913876E+02 0.  0.
          5    1    3    3  501    0 -0.30130262980E+02 -0.46197362123E+02 -0.65660602661E+02  0.85880345576E+02  0.47000000000E+01 0. -1.
        -11    1    4    4    0    0  0.22903539656E+02 -0.57990372609E+01 -0.34978215541E+02  0.42209910262E+02  0.00000000000E+00 0.  1.
         12    1    4    4    0    0  0.35000246260E+02  0.48107306972E+02  0.20774677629E+02  0.63015216043E+02  0.00000000000E+00 0. -1.
         -5    1    5    5    0  502  0.27415849987E+02  0.20961151441E+02  0.23954379923E+03  0.24206263745E+03  0.47000000000E+01 0.  1.
         13    1    6    6    0    0 -0.39010839841E+02  0.27840911219E+02  0.34495148055E+02  0.59049785791E+02  0.00000000000E+00 0. -1.
        -14    1    6    6    0    0 -0.16178533082E+02 -0.44912970248E+02  0.75293415152E+02  0.89151658394E+02  0.00000000000E+00 0.  1.
</event>
<event>
12    1  0.8684423E-002  0.2956682E+03  0.7818608E-02  0.1087517E+00
         21   -1    0    0  501  502  0.00000000000E+00  0.00000000000E+00  0.36799594759E+03  0.36799594759E+03  0.00000000000E+00 0.  1.
         21   -1    0    0  502  503 -0.00000000000E+00 -0.00000000000E+00 -0.25048264486E+03  0.25048264486E+03  0.00000000000E+00 0.  1.
         -6    2    1    2    0  503  0.23349795569E+03  0.54915995099E+02 -0.12956372154E+02  0.29595190837E+03  0.17286585163E+03 0.  0.
        -24    2    3    3    0    0  0.20747140019E+03 -0.10652810909E+02  0.27463825386E+01  0.22352735164E+03  0.82456473584E+02 0.  0.
          6    2    1    2  501    0 -0.23349795569E+03 -0.54915995099E+02  0.13046967488E+03  0.32252668407E+03  0.17165099488E+03 0.  0.
         24    2    5    5    0    0 -0.16655462926E+03  0.29656920588E+02  0.84687029807E+02  0.20525721825E+03  0.79615671590E+02 0.  0.
          5    1    5    5  501    0 -0.66943326438E+02 -0.84572915688E+02  0.45782645076E+02  0.11726946582E+03  0.47000000000E+01 0. -1.
        -13    1    6    6    0    0 -0.11431181170E+03  0.11717898008E+02  0.14319874495E+02  0.11579964695E+03  0.00000000000E+00 0.  1.
         14    1    6    6    0    0 -0.52242817557E+02  0.17939022581E+02  0.70367155312E+02  0.89457571307E+02  0.00000000000E+00 0. -1.
         -5    1    3    3    0  503  0.26026555500E+02  0.65568806009E+02 -0.15702754692E+02  0.72424556730E+02  0.47000000000E+01 0.  1.
         13    1    4    4    0    0  0.10491214436E+03 -0.41258363832E+02 -0.18968957760E+02  0.11431811746E+03  0.00000000000E+00 0. -1.
        -14    1    4    4    0    0  0.10255925583E+03  0.30605552922E+02  0.21715340298E+02  0.10920923418E+03  0.00000000000E+00 0.  1.
</event>
<event>
12    1  0.8684423E-002  0.1929377E+03  0.7818608E-02  0.1157065E+00
         21   -1    0    0  503  502  0.00000000000E+00  0.00000000000E+00  0.55046081969E+02  0.55046081969E+02  0.00000000000E+00 0.  1.
         21   -1    0    0  501  503 -0.00000000000E+00 -0.00000000000E+00 -0.67762519152E+03  0.67762519152E+03  0.00000000000E+00 0.  1.
          6    2    1    2  501    0 -0.22462558181E+02  0.87273337408E+02 -0.37917505365E+03  0.42543939199E+03  0.17059822100E+03 0.  0.
         24    2    3    3    0    0 -0.68198534543E+02  0.91417930492E+02 -0.22198927237E+03  0.26161504392E+03  0.78453272900E+02 0.  0.
         -6    2    1    2    0  502  0.22462558181E+02 -0.87273337408E+02 -0.24340405590E+03  0.30723188149E+03  0.16439188738E+03 0.  0.
        -24    2    5    5    0    0 -0.43310981309E+02 -0.47659403705E+02 -0.18072594338E+03  0.20800457663E+03  0.80354075362E+02 0.  0.
          5    1    3    3  501    0  0.45735976362E+02 -0.41445930844E+01 -0.15718578128E+03  0.16382434808E+03  0.47000000000E+01 0. -1.
        -13    1    4    4    0    0 -0.29052944409E+01  0.27146519772E+02 -0.12598479570E+03  0.12890904941E+03  0.00000000000E+00 0.  1.
         14    1    4    4    0    0 -0.65293240102E+02  0.64271410720E+02 -0.96004476669E+02  0.13270599451E+03  0.00000000000E+00 0. -1.
         -5    1    5    5    0  502  0.65773539490E+02 -0.39613933702E+02 -0.62678112525E+02  0.99227304861E+02  0.47000000000E+01 0.  1.
         13    1    6    6    0    0 -0.16935758873E+02  0.17749232971E+02 -0.88886054890E+02  0.92209467808E+02  0.00000000000E+00 0. -1.
        -14    1    6    6    0    0 -0.26375222435E+02 -0.65408636676E+02 -0.91839888486E+02  0.11579510882E+03  0.00000000000E+00 0.  1.
</event>
<event>
12    1  0.8684423E-002  0.2218009E+03  0.7818608E-02  0.1132764E+00
         21   -1    0    0  503  502  0.00000000000E+00  0.00000000000E+00  0.15761775762E+03  0.15761775762E+03  0.00000000000E+00 0.  1.
         21   -1    0    0  501  503 -0.00000000000E+00 -0.00000000000E+00 -0.36012248504E+03  0.36012248504E+03  0.00000000000E+00 0. -1.
          6    2    1    2  501    0  0.14185529818E+03  0.45679298835E+01 -0.19714022421E+03  0.29587444555E+03  0.16891899811E+03 0.  0.
         24    2    3    3    0    0  0.14942194986E+03  0.29913621585E+02 -0.10229192445E+03  0.19729479109E+03  0.72386828411E+02 0.  0.
         -6    2    1    2    0  502 -0.14185529818E+03 -0.45679298835E+01 -0.53645032125E+01  0.22186579711E+03  0.17044606897E+03 0.  0.
        -24    2    5    5    0    0 -0.73277275861E+02 -0.63162649906E+02  0.20959994353E+02  0.12778415421E+03  0.80810823547E+02 0.  0.
          5    1    3    3  501    0 -0.75666516810E+01 -0.25345691701E+02 -0.94848299764E+02  0.98579654460E+02  0.47000000000E+01 0. -1.
        -11    1    4    4    0    0  0.86277531812E+02  0.36272603389E+02 -0.24206827493E+02  0.96672047405E+02  0.00000000000E+00 0.  1.
         12    1    4    4    0    0  0.63144418052E+02 -0.63589818045E+01 -0.78085096954E+02  0.10062274369E+03  0.00000000000E+00 0. -1.
         -5    1    5    5    0  502 -0.68578022322E+02  0.58594720022E+02 -0.26324497566E+02  0.94081642907E+02  0.47000000000E+01 0.  1.
         11    1    6    6    0    0 -0.45544690728E+02 -0.50913259653E+02 -0.24985454936E+02  0.72737554402E+02  0.00000000000E+00 0. -1.
        -12    1    6    6    0    0 -0.27732585133E+02 -0.12249390252E+02  0.45945449289E+02  0.55046599804E+02  0.00000000000E+00 0.  1.
</event>
<event>
12    1  0.8684423E-002  0.1767314E+03  0.7818608E-02  0.1171357E+00
         21   -1    0    0  503  502  0.00000000000E+00  0.00000000000E+00  0.49851345933E+02  0.49851345933E+02  0.00000000000E+00 0. -1.
         21   -1    0    0  501  503 -0.00000000000E+00 -0.00000000000E+00 -0.64027734288E+03  0.64027734288E+03  0.00000000000E+00 0. -1.
          6    2    1    2  501    0 -0.36087540870E+02  0.15451147754E+02 -0.23502237177E+03  0.29320838780E+03  0.17086425860E+03 0.  0.
         24    2    3    3    0    0 -0.74811272041E+02  0.93626710076E+01 -0.22763194644E+03  0.25304241599E+03  0.80807024545E+02 0.  0.
         -6    2    1    2    0  502  0.36087540870E+02 -0.15451147754E+02 -0.35540362517E+03  0.39692030101E+03  0.17231639504E+03 0.  0.
        -24    2    5    5    0    0  0.33843075662E+02 -0.67101668735E+02 -0.30904806607E+03  0.32732330538E+03  0.77342429401E+02 0.  0.
          5    1    3    3  501    0  0.38723731172E+02  0.60884767462E+01 -0.73904253346E+01  0.40165971812E+02  0.47000000000E+01 0. -1.
        -13    1    4    4    0    0 -0.74893156750E+02 -0.22808406816E+02 -0.15758526393E+03  0.17596114275E+03  0.00000000000E+00 0.  1.
         14    1    4    4    0    0  0.81884708474E-01  0.32171077824E+02 -0.70046682505E+02  0.77081273235E+02  0.00000000000E+00 0. -1.
         -5    1    5    5    0  502  0.22444652077E+01  0.51650520981E+02 -0.46355559104E+02  0.69596995636E+02  0.47000000000E+01 0.  1.
         11    1    6    6    0    0 -0.24442331862E+02 -0.11937175862E+02 -0.90870115621E+02  0.94854107277E+02  0.00000000000E+00 0. -1.
        -12    1    6    6    0    0  0.58285407524E+02 -0.55164492873E+02 -0.21817795045E+03  0.23246919810E+03  0.00000000000E+00 0.  1.
</event>
<event>
12    1  0.8684423E-002  0.2373205E+03  0.7818608E-02  0.1124503E+00
         21   -1    0    0  501  502  0.00000000000E+00  0.00000000000E+00  0.99105067281E+03  0.99105067281E+03  0.00000000000E+00 0.  1.
         21   -1    0    0  502  503 -0.00000000000E+00 -0.00000000000E+00 -0.75160269463E+02  0.75160269463E+02  0.00000000000E+00 0.  1.
         -6    2    1    2    0  503  0.13573801738E+03  0.26346008580E+02  0.15646781343E+03  0.27057052020E+03  0.17206774315E+03 0.  0.
        -24    2    3    3    0    0  0.44297576132E+01  0.26995193505E+01  0.12654797745E+02  0.74342874301E+02  0.73073996032E+02 0.  0.
          6    2    1    2  501    0 -0.13573801738E+03 -0.26346008580E+02  0.75942258992E+03  0.79564042207E+03  0.19287843225E+03 0.  0.
         24    2    5    5    0    0 -0.54445678025E+02  0.61764872174E-01  0.64788680274E+03  0.65504121596E+03  0.79732990534E+02 0.  0.
          5    1    5    5  501    0 -0.81292339353E+02 -0.26407773453E+02  0.11153578718E+03  0.14059920611E+03  0.47000000000E+01 0. -1.
        -13    1    6    6    0    0 -0.66429652447E+02 -0.10955042036E+02  0.61130086137E+03  0.61499728030E+03  0.00000000000E+00 0.  1.
         14    1    6    6    0    0  0.11983974421E+02  0.11016806908E+02  0.36585941373E+02  0.40043935665E+02  0.00000000000E+00 0. -1.
         -5    1    3    3    0  503  0.13130825977E+03  0.23646489230E+02  0.14381301569E+03  0.19622764590E+03  0.47000000000E+01 0.  1.
         11    1    4    4    0    0 -0.25862061629E+02  0.16600763886E+02  0.24151861347E+02  0.39086365907E+02  0.00000000000E+00 0. -1.
        -12    1    4    4    0    0  0.30291819242E+02 -0.13901244536E+02 -0.11497063603E+02  0.35256508394E+02  0.00000000000E+00 0.  1.
</event>
<event>
12    1  0.8684423E-002  0.1771973E+03  0.7818608E-02  0.1171181E+00
         21   -1    0    0  501  502  0.00000000000E+00  0.00000000000E+00  0.69770416009E+02  0.69770416009E+02  0.00000000000E+00 0.  1.
         21   -1    0    0  502  503 -0.00000000000E+00 -0.00000000000E+00 -0.44409196452E+03  0.44409196452E+03  0.00000000000E+00 0.  1.
         -6    2    1    2    0  503 -0.23221229868E+02 -0.15771830817E+02 -0.17681313938E+03  0.24851648829E+03  0.17236467889E+03 0.  0.
        -24    2    3    3    0    0  0.94204606920E+01 -0.63061187906E+02 -0.58672550912E+02  0.11705907351E+03  0.78707686799E+02 0.  0.
          6    2    1    2  501    0  0.23221229868E+02  0.15771830817E+02 -0.19750840914E+03  0.26534589225E+03  0.17495969447E+03 0.  0.
         24    2    5    5    0    0  0.61413312566E+02  0.63801743132E+02 -0.10329375944E+03  0.15281146251E+03  0.69566406753E+02 0.  0.
          5    1    5    5  501    0 -0.38192082699E+02 -0.48029912315E+02 -0.94214649701E+02  0.11253442974E+03  0.47000000000E+01 0. -1.
        -11    1    6    6    0    0  0.24578293990E+02  0.65494402811E+02 -0.42931471178E+02  0.82077527695E+02  0.00000000000E+00 0.  1.
         12    1    6    6    0    0  0.36835018576E+02 -0.16926596798E+01 -0.60362288260E+02  0.70733934814E+02  0.00000000000E+00 0. -1.
         -5    1    3    3    0  503 -0.32641690560E+02  0.47289357089E+02 -0.11814058847E+03  0.13145741478E+03  0.47000000000E+01 0.  1.
         13    1    4    4    0    0  0.71356590483E+01  0.79141282631E+01  0.12563725673E+02  0.16474169448E+02  0.00000000000E+00 0. -1.
        -14    1    4    4    0    0  0.22848016437E+01 -0.70975316169E+02 -0.71236276586E+02  0.10058490406E+03  0.00000000000E+00 0.  1.
</event>
<event>
12    1  0.8684423E-002  0.2323869E+03  0.7818608E-02  0.1125361E+00
         21   -1    0    0  501  502  0.00000000000E+00  0.00000000000E+00  0.72246754095E+02  0.72246754095E+02  0.00000000000E+00 0.  1.
         21   -1    0    0  502  503 -0.00000000000E+00 -0.00000000000E+00 -0.74425738010E+03  0.74425738010E+03  0.00000000000E+00 0.  1.
         -6    2    1    2    0  503 -0.50566553160E+02 -0.14360373743E+03 -0.36407242965E+03  0.43071974636E+03  0.17260288575E+03 0.  0.
        -24    2    3    3    0    0 -0.25530674627E+01 -0.19131180956E+02 -0.62416889934E+02  0.10084572985E+03  0.76821044265E+02 0.  0.
          6    2    1    2  501    0  0.50566553160E+02  0.14360373743E+03 -0.30793819635E+03  0.38578438784E+03  0.17556950596E+03 0.  0.
         24    2    5    5    0    0  0.94582052475E+02  0.14186791524E+03 -0.24711589848E+03  0.31053932702E+03  0.79348196699E+02 0.  0.
          5    1    5    5  501    0 -0.44015499315E+02  0.17358221895E+01 -0.60822297874E+02  0.75245060817E+02  0.47000000000E+01 0. -1.
        -13    1    6    6    0    0  0.44838133623E+02  0.10924960655E+03 -0.20849613437E+03  0.23961755530E+03  0.00000000000E+00 0.  1.
         14    1    6    6    0    0  0.49743918852E+02  0.32618308693E+02 -0.38619764106E+02  0.70921771723E+02  0.00000000000E+00 0. -1.
         -5    1    3    3    0  503 -0.48013485697E+02 -0.12447255648E+03 -0.30165553972E+03  0.32987401651E+03  0.47000000000E+01 0.  1.
         13    1    4    4    0    0 -0.10074544889E+02  0.15888399218E+02 -0.62246194692E+02  0.65027120789E+02  0.00000000000E+00 0. -1.
        -14    1    4    4    0    0  0.75214774266E+01 -0.35019580175E+02 -0.17069524190E+00  0.35818609062E+02  0.00000000000E+00 0.  1.
</event>
<event>
12    1  0.8684423E-002  0.1789907E+03  0.7818608E-02  0.1168827E+00
         21   -1    0    0  503  502  0.00000000000E+00  0.00000000000E+00  0.44721888209E+02  0.44721888209E+02  0.00000000000E+00 0.  1.
         21   -1    0    0  501  503 -0.00000000000E+00 -0.00000000000E+00 -0.87383404550E+03  0.87383404550E+03  0.00000000000E+00 0.  1.
          6    2    1    2  501    0 -0.38012755443E+02  0.27743565600E+02 -0.21932193808E+03  0.28308970177E+03  0.17269334590E+03 0.  0.
         24    2    3    3    0    0  0.31946188808E+02  0.21494685919E+02 -0.18549142914E+03  0.20498787264E+03  0.78296724994E+02 0.  0.
         -6    2    1    2    0  502  0.38012755443E+02 -0.27743565600E+02 -0.60979021921E+03  0.63546623193E+03  0.17250665343E+03 0.  0.
        -24    2    5    5    0    0  0.15689584173E+02  0.16337517520E+02 -0.55612424253E+03  0.56236634878E+03  0.80427977592E+02 0.  0.
          5    1    3    3  501    0 -0.69958944251E+02  0.62488796814E+01 -0.33830508942E+02  0.78101829129E+02  0.47000000000E+01 0. -1.
        -11    1    4    4    0    0 -0.10329070814E+02 -0.20064323583E+01  0.25488707245E+01  0.10826459100E+02  0.00000000000E+00 0.  1.
         12    1    4    4    0    0  0.42275259622E+02  0.23501118277E+02 -0.18804029986E+03  0.19416141354E+03  0.00000000000E+00 0. -1.
         -5    1    5    5    0  502  0.22323171270E+02 -0.44081083120E+02 -0.53665976679E+02  0.73099883156E+02  0.47000000000E+01 0.  1.
         13    1    6    6    0    0 -0.15990705299E+02 -0.26091590078E+02 -0.20611555508E+03  0.20837489238E+03  0.00000000000E+00 0. -1.
        -14    1    6    6    0    0  0.31680289473E+02  0.42429107598E+02 -0.35000868745E+03  0.35399145640E+03  0.00000000000E+00 0.  1.
</event>
<event>
12    1  0.8684423E-002  0.1834926E+03  0.7818608E-02  0.1164950E+00
         21   -1    0    0  501  502  0.00000000000E+00  0.00000000000E+00  0.45576728939E+02  0.45576728939E+02  0.00000000000E+00 0. -1.
         21   -1    0    0  502  503 -0.00000000000E+00 -0.00000000000E+00 -0.92243873888E+03  0.92243873888E+03  0.00000000000E+00 0.  1.
         -6    2    1    2    0  503 -0.32725777689E+02  0.51081636633E+02 -0.66112785804E+03  0.68611922108E+03  0.17317398977E+03 0.  0.
        -24    2    3    3    0    0  0.16402459944E+02 -0.66624846715E+01 -0.17064436898E+03  0.18978857492E+03  0.81158937345E+02 0.  0.
          6    2    1    2  501    0  0.32725777689E+02 -0.51081636633E+02 -0.21573415190E+03  0.28189624674E+03  0.17100865330E+03 0.  0.
         24    2    5    5    0    0  0.40711398625E+02  0.11860807793E+02 -0.19527191716E+03  0.21506575592E+03  0.79523964926E+02 0.  0.
          5    1    5    5  501    0 -0.79856209359E+01 -0.62942444426E+02 -0.20462234734E+02  0.66830490814E+02  0.47000000000E+01 0. -1.
        -13    1    6    6    0    0 -0.14478634615E+02  0.27900432271E+02 -0.52951949979E+02  0.61579006064E+02  0.00000000000E+00 0.  1.
         14    1    6    6    0    0  0.55190033240E+02 -0.16039624477E+02 -0.14231996718E+03  0.15348674986E+03  0.00000000000E+00 0. -1.
         -5    1    3    3    0  503 -0.49128237634E+02  0.57744121305E+02 -0.49048348906E+03  0.49633064616E+03  0.47000000000E+01 0.  1.
         13    1    4    4    0    0 -0.18421273010E+02 -0.12153548564E+02 -0.81692384338E+01  0.23532711246E+02  0.00000000000E+00 0. -1.
        -14    1    4    4    0    0  0.34823732954E+02  0.54910638930E+01 -0.16247513055E+03  0.16625586367E+03  0.00000000000E+00 0.  1.
</event>
<event>
12    1  0.8684423E-002  0.1970719E+03  0.7818608E-02  0.1152856E+00
         21   -1    0    0  503  502  0.00000000000E+00  0.00000000000E+00  0.24563272736E+02  0.24563272736E+02  0.00000000000E+00 0. -1.
         21   -1    0    0  501  503 -0.00000000000E+00 -0.00000000000E+00 -0.15585379240E+04  0.15585379240E+04  0.00000000000E+00 0. -1.
          6    2    1    2  501    0 -0.15082464426E+02  0.95779041183E+02 -0.76005988153E+03  0.78519320159E+03  0.17156991243E+03 0.  0.
         24    2    3    3    0    0  0.30815388544E+02  0.44531501392E+02 -0.57256478648E+03  0.58541977015E+03  0.10933082722E+03 0.  0.
         -6    2    1    2    0  502  0.15082464426E+02 -0.95779041183E+02 -0.77391476974E+03  0.79790799515E+03  0.16826167846E+03 0.  0.
        -24    2    5    5    0    0 -0.28954938009E+02 -0.11447775995E+03 -0.49396266582E+03  0.51385834212E+03  0.78151996670E+02 0.  0.
          5    1    3    3  501    0 -0.45897852970E+02  0.51247539791E+02 -0.18749509505E+03  0.19977343144E+03  0.47000000000E+01 0. -1.
        -11    1    4    4    0    0  0.21467288950E+02 -0.30560992203E+02 -0.98294530043E+02  0.10515052722E+03  0.00000000000E+00 0.  1.
         12    1    4    4    0    0  0.93480995935E+01  0.75092493594E+02 -0.47427025643E+03  0.48026924292E+03  0.00000000000E+00 0. -1.
         -5    1    5    5    0  502  0.44037402435E+02  0.18698718772E+02 -0.27995210392E+03  0.28404965303E+03  0.47000000000E+01 0.  1.
         11    1    6    6    0    0 -0.22583614915E+02 -0.75165602801E+02 -0.43913321694E+03  0.44609177276E+03  0.00000000000E+00 0. -1.
        -12    1    6    6    0    0 -0.63713230943E+01 -0.39312157153E+02 -0.54829448884E+02  0.67766569361E+02  0.00000000000E+00 0.  1.
</event>
<event>
12    1  0.8684423E-002  0.1971059E+03  0.7818608E-02  0.1152247E+00
         21   -1    0    0  503  502  0.00000000000E+00  0.00000000000E+00  0.38550348186E+03  0.38550348186E+03  0.00000000000E+00 0. -1.
         21   -1    0    0  501  503 -0.00000000000E+00 -0.00000000000E+00 -0.10975470429E+03  0.10975470429E+03  0.00000000000E+00 0. -1.
          6    2    1    2  501    0 -0.46829323454E+02  0.83289730265E+02  0.66722639390E+02  0.20809292377E+03  0.17239660557E+03 0.  0.
         24    2    3    3    0    0 -0.66254251297E+02  0.10522558864E+03  0.87811860153E+02  0.17168749922E+03  0.79395366902E+02 0.  0.
         -6    2    1    2    0  502  0.46829323454E+02 -0.83289730265E+02  0.20902613818E+03  0.28716526238E+03  0.17216793189E+03 0.  0.
        -24    2    5    5    0    0  0.58242375108E+02 -0.11534766759E+03  0.12710541781E+03  0.19833360406E+03  0.80518150658E+02 0.  0.
          5    1    3    3  501    0  0.19424927843E+02 -0.21935858371E+02 -0.21089220763E+02  0.36405424549E+02  0.47000000000E+01 0. -1.
        -11    1    4    4    0    0 -0.31581859593E+02  0.62388475344E+01 -0.38155297272E+01  0.32417515960E+02  0.00000000000E+00 0.  1.
         12    1    4    4    0    0 -0.34672391704E+02  0.98986741102E+02  0.91627389880E+02  0.13926998326E+03  0.00000000000E+00 0. -1.
         -5    1    5    5    0  502 -0.11413051654E+02  0.32057937328E+02  0.81920720373E+02  0.88831658322E+02  0.47000000000E+01 0.  1.
         11    1    6    6    0    0  0.60102378329E+02 -0.12017018070E+03  0.91979306290E+02  0.16282923876E+03  0.00000000000E+00 0. -1.
        -12    1    6    6    0    0 -0.18600032216E+01  0.48225131070E+01  0.35126111521E+02  0.35504365298E+02  0.00000000000E+00 0.  1.
</event>
<event>
12    1  0.8684423E-002  0.2543406E+03  0.7818608E-02  0.1110609E+00
         21   -1    0    0  501  502  0.00000000000E+00  0.00000000000E+00  0.86039136784E+03  0.86039136784E+03  0.00000000000E+00 0.  1.
         21   -1    0    0  502  503 -0.00000000000E+00 -0.00000000000E+00 -0.12123439149E+03  0.12123439149E+03  0.00000000000E+00 0.  1.
         -6    2    1    2    0  503  0.11489311402E+03  0.15016821873E+03  0.67031878615E+02  0.26302548778E+03  0.17011235377E+03 0.  0.
        -24    2    3    3    0    0  0.26496537485E+02  0.11425069252E+03 -0.64761441374E+01  0.14248693444E+03  0.80655432576E+02 0.  0.
          6    2    1    2  501    0 -0.11489311402E+03 -0.15016821873E+03  0.67212509774E+03  0.71860027155E+03  0.16995082143E+03 0.  0.
         24    2    5    5    0    0 -0.44058431801E+02 -0.11827342027E+03  0.57612563988E+03  0.59501703530E+03  0.78706874021E+02 0.  0.
          5    1    5    5  501    0 -0.70834682216E+02 -0.31894798462E+02  0.95999457859E+02  0.12358323625E+03  0.47000000000E+01 0. -1.
        -13    1    6    6    0    0 -0.44987074866E+02 -0.57519378810E+02  0.43900967220E+03  0.44504135553E+03  0.00000000000E+00 0.  1.
         14    1    6    6    0    0  0.92864306501E+00 -0.60754041457E+02  0.13711596768E+03  0.14997567977E+03  0.00000000000E+00 0. -1.
         -5    1    3    3    0  503  0.88396576532E+02  0.35917526207E+02  0.73508022753E+02  0.12053855334E+03  0.47000000000E+01 0.  1.
         13    1    4    4    0    0 -0.25694414900E+02  0.54310555946E+02 -0.16686334714E+02  0.62356019841E+02  0.00000000000E+00 0. -1.
        -14    1    4    4    0    0  0.52190952385E+02  0.59940136577E+02  0.10210190577E+02  0.80130914604E+02  0.00000000000E+00 0.  1.
</event>
<event>
12    1  0.8684423E-002  0.3413536E+03  0.7818608E-02  0.1066258E+00
         21   -1    0    0  503  502  0.00000000000E+00  0.00000000000E+00  0.94504858394E+02  0.94504858394E+02  0.00000000000E+00 0.  1.
         21   -1    0    0  501  503 -0.00000000000E+00 -0.00000000000E+00 -0.18772427145E+04  0.18772427145E+04  0.00000000000E+00 0.  1.
          6    2    1    2  501    0 -0.11129549056E+03 -0.27238946219E+03 -0.14691933698E+04  0.15082473948E+04  0.17233206514E+03 0.  0.
         24    2    3    3    0    0 -0.47177658251E+01 -0.89318995021E+02 -0.36730676577E+03  0.38617351776E+03  0.78838984339E+02 0.  0.
         -6    2    1    2    0  502  0.11129549056E+03  0.27238946219E+03 -0.31354448629E+03  0.46350017809E+03  0.17303053164E+03 0.  0.
        -24    2    5    5    0    0  0.75928459100E+02  0.11422027574E+03 -0.23480186140E+03  0.28324810618E+03  0.79285391115E+02 0.  0.
          5    1    3    3  501    0 -0.10657772473E+03 -0.18307046717E+03 -0.11018866041E+04  0.11220738771E+04  0.47000000000E+01 0. -1.
        -11    1    4    4    0    0 -0.18563289607E+02 -0.10000249042E+03 -0.31024818618E+03  0.32649507016E+03  0.00000000000E+00 0.  1.
         12    1    4    4    0    0  0.13845523782E+02  0.10683495401E+02 -0.57058579586E+02  0.59678447594E+02  0.00000000000E+00 0. -1.
         -5    1    5    5    0  502  0.35367031458E+02  0.15816918645E+03 -0.78742624886E+02  0.18025207192E+03  0.47000000000E+01 0.  1.
         13    1    6    6    0    0  0.13672324033E+02 -0.11585006106E+02 -0.30446646537E+02  0.35329068715E+02  0.00000000000E+00 0. -1.
        -14    1    6    6    0    0  0.62256135067E+02  0.12580528185E+03 -0.20435521486E+03  0.24791903746E+03  0.00000000000E+00 0.  1.
</event>
<event>
12    1  0.8684423E-002  0.1746291E+03  0.7818608E-02  0.1174081E+00
         21   -1    0    0  501  502  0.00000000000E+00  0.00000000000E+00  0.38451031329E+03  0.38451031329E+03  0.00000000000E+00 0.  1.
         21   -1    0    0  502  503 -0.00000000000E+00 -0.00000000000E+00 -0.87883673167E+02  0.87883673167E+02  0.00000000000E+00 0.  1.
         -6    2    1    2    0  503 -0.19881769679E+02  0.12881275457E+02  0.23063998644E+03  0.28929244550E+03  0.17301474982E+03 0.  0.
        -24    2    3    3    0    0  0.44590472009E+02  0.19921783643E+02  0.19480938906E+03  0.21504852041E+03  0.76876396946E+02 0.  0.
          6    2    1    2  501    0  0.19881769679E+02 -0.12881275457E+02  0.65986653682E+02  0.18310154096E+03  0.16914704790E+03 0.  0.
         24    2    5    5    0    0  0.64903804984E+02 -0.32255717026E+01 -0.10882821326E+01  0.10160704242E+03  0.78101846946E+02 0.  0.
          5    1    5    5  501    0 -0.45022035305E+02 -0.96557037542E+01  0.67074935814E+02  0.81494498541E+02  0.47000000000E+01 0. -1.
        -11    1    6    6    0    0  0.58774302330E+02  0.24907165955E+01  0.32349375306E+02  0.67134971261E+02  0.00000000000E+00 0.  1.
         12    1    6    6    0    0  0.61295026534E+01 -0.57162882981E+01 -0.33437657439E+02  0.34472071154E+02  0.00000000000E+00 0. -1.
         -5    1    3    3    0  503 -0.64472241689E+02 -0.70405081865E+01  0.35830597378E+02  0.74243925087E+02  0.47000000000E+01 0.  1.
         11    1    4    4    0    0  0.79654221232E+01 -0.83747144088E+01  0.15060431317E+03  0.15104715468E+03  0.00000000000E+00 0. -1.
        -12    1    4    4    0    0  0.36625049886E+02  0.28296498052E+02  0.44205075891E+02  0.64001365733E+02  0.00000000000E+00 0.  1.
</event>
<event>
12    1  0.8684423E-002  0.2554819E+03  0.7818608E-02  0.1110050E+00
         21   -1    0    0  503  502  0.00000000000E+00  0.00000000000E+00  0.17958779746E+04  0.17958779746E+04  0.00000000000E+00 0.  1.
         21   -1    0    0  501  503 -0.00000000000E+00 -0.00000000000E+00 -0.36240000899E+02  0.36240000899E+02  0.00000000000E+00 0.  1.
          6    2    1    2  501    0  0.17883754248E+03  0.61677938229E+02  0.84619988567E+03  0.88362436353E+03  0.17014915414E+03 0.  0.
         24    2    3    3    0    0  0.19952700579E+03  0.30230508205E+02  0.72134415129E+03  0.75313283448E+03  0.78401352688E+02 0.  0.
         -6    2    1    2    0  502 -0.17883754248E+03 -0.61677938229E+02  0.91343808806E+03  0.94849361200E+03  0.17170892992E+03 0.  0.
        -24    2    5    5    0    0 -0.78979684608E+02 -0.86782382732E+00  0.65920304385E+03  0.66862398253E+03  0.79188593211E+02 0.  0.
          5    1    3    3  501    0 -0.20689463311E+02  0.31447430024E+02  0.12485573438E+03  0.13049152905E+03  0.47000000000E+01 0. -1.
        -13    1    4    4    0    0  0.30214250745E+02  0.24375038667E+02  0.23360690268E+03  0.23681053278E+03  0.00000000000E+00 0.  1.
         14    1    4    4    0    0  0.16931275505E+03  0.58554695385E+01  0.48773724861E+03  0.51632230170E+03  0.00000000000E+00 0. -1.
         -5    1    5    5    0  502 -0.99857857873E+02 -0.60810114401E+02  0.25423504421E+03  0.27986962947E+03  0.47000000000E+01 0.  1.
         13    1    6    6    0    0 -0.81049722909E+02 -0.26900029993E+02  0.52566906559E+03  0.53256045264E+03  0.00000000000E+00 0. -1.
        -14    1    6    6    0    0  0.20700383013E+01  0.26032206166E+02  0.13353397826E+03  0.13606352989E+03  0.00000000000E+00 0.  1.
</event>
<event>
12    1  0.8684423E-002  0.1886415E+03  0.7818608E-02  0.1159863E+00
         21   -1    0    0  503  502  0.00000000000E+00  0.00000000000E+00  0.14846146015E+04  0.14846146015E+04  0.00000000000E+00 0. -1.
         21   -1    0    0  501  503 -0.00000000000E+00 -0.00000000000E+00 -0.50475492802E+02  0.50475492802E+02  0.00000000000E+00 0. -1.
          6    2    1    2  501    0  0.31956526305E+02 -0.69492103565E+02  0.15919242203E+03  0.24626324132E+03  0.17161871914E+03 0.  0.
         24    2    3    3    0    0 -0.27092685138E+02 -0.79392312699E+02  0.14325864023E+03  0.18412791388E+03  0.79642311407E+02 0.  0.
         -6    2    1    2    0  502 -0.31956526305E+02  0.69492103565E+02  0.12749466867E+04  0.12888268530E+04  0.17243906490E+03 0.  0.
        -24    2    5    5    0    0 -0.25595866656E+02  0.69810766151E+02  0.12755404890E+04  0.12808894643E+04  0.90252918389E+02 0.  0.
          5    1    3    3  501    0  0.59049211443E+02  0.99002091347E+01  0.15933781805E+02  0.62135327436E+02  0.47000000000E+01 0. -1.
        -11    1    4    4    0    0 -0.42091566058E+02 -0.59972189544E+02  0.52567816092E+02  0.90176153947E+02  0.00000000000E+00 0.  1.
         12    1    4    4    0    0  0.14998880920E+02 -0.19420123155E+02  0.90690824135E+02  0.93951759933E+02  0.00000000000E+00 0. -1.
         -5    1    5    5    0  502 -0.63606596498E+01 -0.31866258625E+00 -0.59380236515E+00  0.79373886306E+01  0.47000000000E+01 0.  1.
         13    1    6    6    0    0  0.22678266190E+02  0.13333351002E+02  0.71028982001E+03  0.71077683588E+03  0.00000000000E+00 0. -1.
        -14    1    6    6    0    0 -0.48274132845E+02  0.56477415149E+02  0.56525066901E+03  0.57011262847E+03  0.00000000000E+00 0.  1.
</event>
<event>
12    1  0.8684423E-002  0.2431450E+03  0.7818608E-02  0.1117973E+00
         21   -1    0    0  501  502  0.00000000000E+00  0.00000000000E+00  0.54015402526E+02  0.54015402526E+02  0.00000000000E+00 0.  1.
         21   -1    0    0  502  503 -0.00000000000E+00 -0.00000000000E+00 -0.11399546716E+04  0.11399546716E+04  0.00000000000E+00 0. -1.
         -6    2    1    2    0  503  0.15143794223E+03 -0.80672230484E+02 -0.41317739865E+03  0.47861840714E+03  0.17005457295E+03 0.  0.
        -24    2    3    3    0    0  0.12543513670E+03 -0.15537067186E+01 -0.32520475943E+03  0.35738655510E+03  0.78934318800E+02 0.  0.
          6    2    1    2  501    0 -0.15143794223E+03  0.80672230484E+02 -0.67276187040E+03  0.71535166696E+03  0.17227307986E+03 0.  0.
         24    2    5    5    0    0 -0.34836308373E+02  0.25617828387E+01 -0.38970679394E+03  0.39937785577E+03  0.80069690432E+02 0.  0.
          5    1    5    5  501    0 -0.11660163385E+03  0.78110447645E+02 -0.28305507646E+03  0.31597381119E+03  0.47000000000E+01 0. -1.
        -13    1    6    6    0    0  0.47092099162E+01  0.49820737800E+01  0.76785532472E+00  0.68983562523E+01  0.00000000000E+00 0.  1.
         14    1    6    6    0    0 -0.39545518289E+02 -0.24202909414E+01 -0.39047464926E+03  0.39247949952E+03  0.00000000000E+00 0. -1.
         -5    1    3    3    0  503  0.26002805526E+02 -0.79118523765E+02 -0.87972639216E+02  0.12123185204E+03  0.47000000000E+01 0.  1.
         11    1    4    4    0    0  0.27086049425E+02  0.31223028382E+02 -0.12926481707E+03  0.13571265419E+03  0.00000000000E+00 0. -1.
        -12    1    4    4    0    0  0.98349087276E+02 -0.32776735101E+02 -0.19593994236E+03  0.22167390091E+03  0.00000000000E+00 0.  1.
</event>
<event>
12    1  0.8684423E-002  0.2067032E+03  0.7818608E-02  0.1144294E+00
         21   -1    0    0  501  502  0.00000000000E+00  0.00000000000E+00  0.72925175000E+03  0.72925175000E+03  0.00000000000E+00 0. -1.
         21   -1    0    0  502  503 -0.00000000000E+00 -0.00000000000E+00 -0.10992669372E+03  0.10992669372E+03  0.00000000000E+00 0. -1.
         -6    2    1    2    0  503  0.11170396319E+03  0.22703366023E+02  0.22387310690E+02  0.20746578128E+03  0.17189427129E+03 0.  0.
        -24    2    3    3    0    0  0.51973695576E+02 -0.16221439243E+01  0.81115429136E+02  0.12011294962E+03  0.71718278275E+02 0.  0.
          6    2    1    2  501    0 -0.11170396319E+03 -0.22703366023E+02  0.59693774559E+03  0.63171266245E+03  0.17243258848E+03 0.  0.
         24    2    5    5    0    0 -0.40366457690E+02 -0.75586876623E+02  0.31826440475E+03  0.33919492576E+03  0.80113291698E+02 0.  0.
          5    1    5    5  501    0 -0.71337505496E+02  0.52883510600E+02  0.27867334084E+03  0.29251773669E+03  0.47000000000E+01 0. -1.
        -11    1    6    6    0    0 -0.40099950409E+02 -0.86155751700E+02  0.21102270194E+03  0.23143336040E+03  0.00000000000E+00 0.  1.
         12    1    6    6    0    0 -0.26650728111E+00  0.10568875077E+02  0.10724170281E+03  0.10776156536E+03  0.00000000000E+00 0. -1.
         -5    1    3    3    0  503  0.59730267610E+02  0.24325509947E+02 -0.58728118447E+02  0.87352831661E+02  0.47000000000E+01 0.  1.
         13    1    4    4    0    0  0.47097222917E+02  0.13323603360E+00  0.91709136165E+01  0.47981994695E+02  0.00000000000E+00 0. -1.
        -14    1    4    4    0    0  0.48764726590E+01 -0.17553799579E+01  0.71944515520E+02  0.72130954921E+02  0.00000000000E+00 0.  1.
</event>
<event>
12    1  0.8684423E-002  0.2876820E+03  0.7818608E-02  0.1091654E+00
         21   -1    0    0  501  502  0.00000000000E+00  0.00000000000E+00  0.13049607957E+03  0.13049607957E+03  0.00000000000E+00 0. -1.
         21   -1    0    0  502  503 -0.00000000000E+00 -0.00000000000E+00 -0.64616305320E+03  0.64616305320E+03  0.00000000000E+00 0.  1.
         -6    2    1    2    0  503 -0.15479070025E+03  0.16963705591E+03 -0.31412512186E+03  0.42595247241E+03  0.17327442093E+03 0.  0.
        -24    2    3    3    0    0 -0.11692616527E+02  0.50750554401E+02 -0.15050303050E+03  0.17815146235E+03  0.79840123340E+02 0.  0.
          6    2    1    2  501    0  0.15479070025E+03 -0.16963705591E+03 -0.20154185178E+03  0.35070666035E+03  0.17216025086E+03 0.  0.
         24    2    5    5    0    0  0.74583006138E+02 -0.78296015461E+02 -0.18837095600E+03  0.22834644476E+03  0.70466949175E+02 0.  0.
          5    1    5    5  501    0  0.80207694112E+02 -0.91341040451E+02 -0.13170895774E+02  0.12236021560E+03  0.47000000000E+01 0. -1.
        -13    1    6    6    0    0  0.68195200804E+02 -0.38248854565E+02 -0.16225392455E+03  0.18011078902E+03  0.00000000000E+00 0.  1.
         14    1    6    6    0    0  0.63878053341E+01 -0.40047160896E+02 -0.26117031454E+02  0.48235655741E+02  0.00000000000E+00 0. -1.
         -5    1    3    3    0  503 -0.14309808372E+03  0.11888650151E+03 -0.16362209136E+03  0.24780101006E+03  0.47000000000E+01 0.  1.
         13    1    4    4    0    0 -0.22175169233E+02 -0.14386430201E+02 -0.25095929261E+02  0.36448774601E+02  0.00000000000E+00 0. -1.
        -14    1    4    4    0    0  0.10482552706E+02  0.65136984602E+02 -0.12540710124E+03  0.14170268775E+03  0.00000000000E+00 0.  1.
</event>
<event>
12    1  0.8684423E-002  0.2700992E+03  0.7818608E-02  0.1101725E+00
         21   -1    0    0  501  502  0.00000000000E+00  0.00000000000E+00  0.37570749008E+02  0.37570749008E+02  0.00000000000E+00 0.  1.
         21   -1    0    0  502  503 -0.00000000000E+00 -0.00000000000E+00 -0.19690079991E+04  0.19690079991E+04  0.00000000000E+00 0. -1.
         -6    2    1    2    0  503 -0.73298819816E+02  0.19448293916E+03 -0.11352231818E+04  0.11669126899E+04  0.17250281934E+03 0.  0.
        -24    2    3    3    0    0 -0.40887701041E+02  0.33590117002E+02 -0.27689959124E+03  0.29302570808E+03  0.79941115256E+02 0.  0.
          6    2    1    2  501    0  0.73298819816E+02 -0.19448293916E+03 -0.79621406832E+03  0.83966605826E+03  0.16699076679E+03 0.  0.
         24    2    5    5    0    0  0.66712498045E+02 -0.58760255576E+02 -0.49492521238E+03  0.50911940318E+03  0.79676067992E+02 0.  0.
          5    1    5    5  501    0  0.65863217710E+01 -0.13572268359E+03 -0.30128885594E+03  0.33054665508E+03  0.47000000000E+01 0. -1.
        -13    1    6    6    0    0 -0.33169665413E+01  0.39156058031E+01  0.21776781114E+00  0.51363078822E+01  0.00000000000E+00 0.  1.
         14    1    6    6    0    0  0.70029464586E+02 -0.62675861379E+02 -0.49514298019E+03  0.50398309529E+03  0.00000000000E+00 0. -1.
         -5    1    3    3    0  503 -0.32411118774E+02  0.16089282216E+03 -0.85832359056E+03  0.87388698179E+03  0.47000000000E+01 0.  1.
         13    1    4    4    0    0 -0.44244920313E+02 -0.12626496805E+02 -0.17732246674E+03  0.18319470136E+03  0.00000000000E+00 0. -1.
        -14    1    4    4    0    0  0.33572192713E+01  0.46216613807E+02 -0.99577124501E+02  0.10983100672E+03  0.00000000000E+00 0.  1.
</event>
<event>
12    1  0.8684423E-002  0.1752451E+03  0.7818608E-02  0.1172727E+00
         21   -1    0    0  503  502  0.00000000000E+00  0.00000000000E+00  0.10286788339E+03  0.10286788339E+03  0.00000000000E+00 0.  1.
         21   -1    0    0  501  503 -0.00000000000E+00 -0.00000000000E+00 -0.32523160301E+03  0.32523160301E+03  0.00000000000E+00 0.  1.
          6    2    1    2  501    0 -0.22092435918E+02  0.12894559883E+02 -0.17406211512E+03  0.24631967616E+03  0.17239900680E+03 0.  0.
         24    2    3    3    0    0  0.34337020893E+02 -0.42504895992E+02 -0.38878112434E+02  0.89634680425E+02  0.59474121443E+02 0.  0.
         -6    2    1    2    0  502  0.22092435918E+02 -0.12894559883E+02 -0.48301604510E+02  0.18177981024E+03  0.17336813148E+03 0.  0.
        -24    2    5    5    0    0 -0.51006585800E+02 -0.29766328561E+02 -0.23666821244E+02  0.10267806500E+03  0.80591317724E+02 0.  0.
          5    1    3    3  501    0 -0.56429456810E+02  0.55399455876E+02 -0.13518400268E+03  0.15668499573E+03  0.47000000000E+01 0. -1.
        -13    1    4    4    0    0  0.29622107681E+01 -0.31799111816E+02 -0.45734772911E+02  0.55781965349E+02  0.00000000000E+00 0.  1.
         14    1    4    4    0    0  0.31374810124E+02 -0.10705784176E+02  0.68566604773E+01  0.33852715077E+02  0.00000000000E+00 0. -1.
         -5    1    5    5    0  502  0.73099021718E+02  0.16871768678E+02 -0.24634783266E+02  0.79101745246E+02  0.47000000000E+01 0.  1.
         13    1    6    6    0    0 -0.55736150170E+02 -0.49634034661E+02 -0.46585064604E+01  0.74778055036E+02  0.00000000000E+00 0. -1.
        -14    1    6    6    0    0  0.47295643701E+01  0.19867706100E+02 -0.19008314784E+02  0.27900009960E+02  0.00000000000E+00 0.  1.
</event>
<event>
12    1  0.8684423E-002  0.2027764E+03  0.7818608E-02  0.1148602E+00
         21   -1    0    0  501  502  0.00000000000E+00  0.00000000000E+00  0.91589397740E+02  0.91589397740E+02  0.00000000000E+00 0.  1.
         21   -1    0    0  502  503 -0.00000000000E+00 -0.00000000000E+00 -0.43710956459E+03  0.43710956459E+03  0.00000000000E+00 0.  1.
         -6    2    1    2    0  503  0.74771202865E+01  0.95309869644E+02 -0.16585039555E+03  0.26196298731E+03  0.17882498270E+03 0.  0.
        -24    2    3    3    0    0 -0.41873242387E+02  0.11431558879E+03 -0.91276002295E+02  0.17042006959E+03  0.76748089585E+02 0.  0.
          6    2    1    2  501    0 -0.74771202865E+01 -0.95309869644E+02 -0.17966977129E+03  0.26673597501E+03  0.17241512425E+03 0.  0.
         24    2    5    5    0    0 -0.71470042499E+02 -0.43540080713E+02 -0.10559707948E+03  0.15590250168E+03  0.78429211594E+02 0.  0.
          5    1    5    5  501    0  0.63992922212E+02 -0.51769788931E+02 -0.74072691811E+02  0.11083347333E+03  0.47000000000E+01 0. -1.
        -11    1    6    6    0    0 -0.39523476695E+02 -0.49837301814E+02 -0.10567482209E+03  0.12334111190E+03  0.00000000000E+00 0.  1.
         12    1    6    6    0    0 -0.31946565804E+02  0.62972211004E+01  0.77742605308E-01  0.32561389776E+02  0.00000000000E+00 0. -1.
         -5    1    3    3    0  503  0.49350362673E+02 -0.19005719143E+02 -0.74574393260E+02  0.91542917729E+02  0.47000000000E+01 0.  1.
         13    1    4    4    0    0 -0.22139317457E+02  0.48302915357E+01  0.51039750029E+01  0.23227820703E+02  0.00000000000E+00 0. -1.
        -14    1    4    4    0    0 -0.19733924930E+02  0.10948529725E+03 -0.96379977297E+02  0.14719224888E+03  0.00000000000E+00 0.  1.
</event>
<event>
12    1  0.8684423E-002  0.2347300E+03  0.7818608E-02  0.1123495E+00
         21   -1    0    0  501  502  0.00000000000E+00  0.00000000000E+00  0.56325292992E+02  0.56325292992E+02  0.00000000000E+00 0.  1.
         21   -1    0    0  502  503 -0.00000000000E+00 -0.00000000000E+00 -0.10281024876E+04  0.10281024876E+04  0.00000000000E+00 0. -1.
         -6    2    1    2    0  503 -0.84166467555E+02 -0.13576133237E+03 -0.36160928872E+03  0.43066710057E+03  0.17087346253E+03 0.  0.
        -24    2    3    3    0    0  0.42212623921E+01 -0.11243320572E+03 -0.24834267874E+03  0.28503740842E+03  0.83145615113E+02 0.  0.
          6    2    1    2  501    0  0.84166467555E+02  0.13576133237E+03 -0.61016790587E+03  0.65376068000E+03  0.17199715038E+03 0.  0.
         24    2    5    5    0    0  0.91201211754E+02  0.40626126043E+02 -0.24681511266E+03  0.27806460944E+03  0.80212742375E+02 0.  0.
          5    1    5    5  501    0 -0.70347441993E+01  0.95135206330E+02 -0.36335279320E+03  0.37569607057E+03  0.47000000000E+01 0. -1.
        -11    1    6    6    0    0  0.96783555693E+02  0.48478179809E+02 -0.17618825177E+03  0.20678368077E+03  0.00000000000E+00 0.  1.
         12    1    6    6    0    0 -0.55823439393E+01 -0.78520537659E+01 -0.70626860893E+02  0.71280928668E+02  0.00000000000E+00 0. -1.
         -5    1    3    3    0  503 -0.88387729947E+02 -0.23328126652E+02 -0.11326660999E+03  0.14562969215E+03  0.47000000000E+01 0.  1.
         11    1    4    4    0    0  0.37858822244E+02 -0.23016511455E+02 -0.74837317170E+02  0.86969386927E+02  0.00000000000E+00 0. -1.
        -12    1    4    4    0    0 -0.33637559852E+02 -0.89416694266E+02 -0.17350536157E+03  0.19806802149E+03  0.00000000000E+00 0.  1.
</event>
<event>
12    1  0.8684423E-002  0.1725901E+03  0.7818608E-02  0.1175201E+00
         21   -1    0    0  501  502  0.00000000000E+00  0.00000000000E+00  0.64277922590E+02  0.64277922590E+02  0.00000000000E+00 0. -1.
         21   -1    0    0  502  503 -0.00000000000E+00 -0.00000000000E+00 -0.50668496095E+03  0.50668496095E+03  0.00000000000E+00 0. -1.
         -6    2    1    2    0  503 -0.73999004865E+01 -0.13144838021E+02 -0.13743464070E+03  0.22054098301E+03  0.17182112626E+03 0.  0.
        -24    2    3    3    0    0 -0.36771975224E+02  0.31175867288E+02 -0.11685379585E+03  0.16333342347E+03  0.10343541345E+03 0.  0.
          6    2    1    2  501    0  0.73999004865E+01  0.13144838021E+02 -0.30497239766E+03  0.35042190053E+03  0.17192963602E+03 0.  0.
         24    2    5    5    0    0 -0.27249637458E+02 -0.50304341492E+02 -0.20108181575E+03  0.22376594184E+03  0.79776127945E+02 0.  0.
          5    1    5    5  501    0  0.34649537944E+02  0.63449179513E+02 -0.10389058191E+03  0.12665595868E+03  0.47000000000E+01 0. -1.
        -13    1    6    6    0    0 -0.72055462154E+01 -0.60958918155E+02 -0.81399534023E+02  0.10194995703E+03  0.00000000000E+00 0.  1.
         14    1    6    6    0    0 -0.20044091242E+02  0.10654576663E+02 -0.11968228172E+03  0.12181598481E+03  0.00000000000E+00 0. -1.
         -5    1    3    3    0  503  0.29372074738E+02 -0.44320705308E+02 -0.20580844850E+02  0.57207559537E+02  0.47000000000E+01 0.  1.
         11    1    4    4    0    0 -0.47488715906E+02 -0.27050808946E+02 -0.50586913242E+02  0.74471203793E+02  0.00000000000E+00 0. -1.
        -12    1    4    4    0    0  0.10716740682E+02  0.58226676234E+02 -0.66266882609E+02  0.88862219682E+02  0.00000000000E+00 0.  1.
</event>
<event>
12    1  0.8684423E-002  0.3040590E+03  0.7818608E-02  0.1083235E+00
         21   -1    0    0  501  502  0.00000000000E+00  0.00000000000E+00  0.29760895789E+03  0.29760895789E+03  0.00000000000E+00 0. -1.
         21   -1    0    0  502  503 -0.00000000000E+00 -0.00000000000E+00 -0.31141909966E+03  0.31141909966E+03  0.00000000000E+00 0. -1.
         -6    2    1    2    0  503  0.24788038671E+03  0.39622079192E+02 -0.22549977943E+02  0.30484347311E+03  0.17148307880E+03 0.  0.
        -24    2    3    3    0    0  0.67370292600E+02 -0.42882132426E+01 -0.51483176018E+02  0.11677107267E+03  0.80173692073E+02 0.  0.
          6    2    1    2  501    0 -0.24788038671E+03 -0.39622079192E+02  0.87398361700E+01  0.30418458444E+03  0.17157296231E+03 0.  0.
         24    2    5    5    0    0 -0.49459901078E+02  0.24016231700E+02  0.15342216506E+02  0.95651121514E+02  0.76750845206E+02 0.  0.
          5    1    5    5  501    0 -0.19842048563E+03 -0.63638310892E+02 -0.66023803356E+01  0.20853346292E+03  0.47000000000E+01 0. -1.
        -11    1    6    6    0    0  0.39672438156E+01  0.42795671162E+01  0.34935199398E+02  0.35419230302E+02  0.00000000000E+00 0.  1.
         12    1    6    6    0    0 -0.53427144893E+02  0.19736664584E+02 -0.19592982892E+02  0.60231891212E+02  0.00000000000E+00 0. -1.
         -5    1    3    3    0  503  0.18051009411E+03  0.43910292435E+02  0.28933198076E+02  0.18807240044E+03  0.47000000000E+01 0.  1.
         11    1    4    4    0    0  0.71092681825E+02  0.35874570839E+01 -0.67780609789E+02  0.98291659467E+02  0.00000000000E+00 0. -1.
        -12    1    4    4    0    0 -0.37223892247E+01 -0.78756703265E+01  0.16297433771E+02  0.18479413198E+02  0.00000000000E+00 0.  1.
</event>
<event>
12    1  0.8684423E-002  0.1730096E+03  0.7818608E-02  0.1175145E+00
         21   -1    0    0  503  502  0.00000000000E+00  0.00000000000E+00  0.15081051780E+04  0.15081051780E+04  0.00000000000E+00 0. -1.
         21   -1    0    0  501  503 -0.00000000000E+00 -0.00000000000E+00 -0.35535477360E+02  0.35535477360E+02  0.00000000000E+00 0. -1.
          6    2    1    2  501    0  0.70382104913E+00 -0.15062989576E+02  0.21870610781E+03  0.27789729836E+03  0.17078395071E+03 0.  0.
         24    2    3    3    0    0  0.11477073652E+02  0.15259588851E+02  0.22942339960E+03  0.24365591875E+03  0.79803083832E+02 0.  0.
         -6    2    1    2    0  502 -0.70382104913E+00  0.15062989576E+02  0.12538635928E+04  0.12657433570E+04  0.17235123257E+03 0.  0.
        -24    2    5    5    0    0 -0.17209314639E+02  0.19001124409E+02  0.12418631588E+04  0.12444351276E+04  0.75746144160E+02 0.  0.
          5    1    3    3  501    0 -0.10773252603E+02 -0.30322578427E+02 -0.10717291780E+02  0.34241379605E+02  0.47000000000E+01 0. -1.
        -11    1    4    4    0    0 -0.30877805577E+02 -0.71268742808E+01  0.12173571602E+03  0.12579274928E+03  0.00000000000E+00 0.  1.
         12    1    4    4    0    0  0.42354879229E+02  0.22386463132E+02  0.10768768357E+03  0.11786316948E+03  0.00000000000E+00 0. -1.
         -5    1    5    5    0  502  0.16505493589E+02 -0.39381348330E+01  0.12000434057E+02  0.21308229446E+02  0.47000000000E+01 0.  1.
         13    1    6    6    0    0  0.15228036425E+02  0.35320556443E+02  0.41608764612E+03  0.41786165660E+03  0.00000000000E+00 0. -1.
        -14    1    6    6    0    0 -0.32437351063E+02 -0.16319432034E+02  0.82577551265E+03  0.82657347097E+03  0.00000000000E+00 0.  1.
</event>
<event>
12    1  0.8684423E-002  0.2838945E+03  0.7818608E-02  0.1093629E+00
         21   -1    0    0  501  502  0.00000000000E+00  0.00000000000E+00  0.25117203981E+03  0.25117203981E+03  0.00000000000E+00 0.  1.
         21   -1    0    0  502  503 -0.00000000000E+00 -0.00000000000E+00 -0.34585973791E+03  0.34585973791E+03  0.00000000000E+00 0.  1.
         -6    2    1    2    0  503 -0.20244639049E+03  0.98742225549E+02  0.33501247791E+02  0.28586434488E+03  0.17280486665E+03 0.  0.
        -24    2    3    3    0    0 -0.35373653147E+02  0.28797560004E+02 -0.26168509037E+02  0.95107626300E+02  0.79246923701E+02 0.  0.
          6    2    1    2  501    0  0.20244639049E+03 -0.98742225549E+02 -0.12818894589E+03  0.31116743284E+03  0.17221555469E+03 0.  0.
         24    2    5    5    0    0  0.17297932246E+03 -0.68364334186E+02 -0.15987620581E+03  0.25808921863E+03  0.80337509303E+02 0.  0.
          5    1    5    5  501    0  0.29467068028E+02 -0.30377891363E+02  0.31687259919E+02  0.53078214203E+02  0.47000000000E+01 0. -1.
        -11    1    6    6    0    0  0.14096521360E+03 -0.59120893492E+02 -0.82184919135E+02  0.17355354339E+03  0.00000000000E+00 0.  1.
         12    1    6    6    0    0  0.32014108867E+02 -0.92434406938E+01 -0.77691286677E+02  0.84535675239E+02  0.00000000000E+00 0. -1.
         -5    1    3    3    0  503 -0.16707273734E+03  0.69944665545E+02  0.59669756828E+02  0.19075671858E+03  0.47000000000E+01 0.  1.
         11    1    4    4    0    0 -0.41041930460E+02 -0.17152905389E+01  0.14842850300E+02  0.43677139129E+02  0.00000000000E+00 0. -1.
        -12    1    4    4    0    0  0.56682773127E+01  0.30512850543E+02 -0.41011359337E+02  0.51430487171E+02  0.00000000000E+00 0.  1.
</event>
<event>
12    1  0.8684423E-002  0.2239930E+03  0.7818608E-02  0.1131093E+00
         21   -1    0    0  501  502  0.00000000000E+00  0.00000000000E+00  0.53786762957E+02  0.53786762957E+02  0.00000000000E+00 0. -1.
         21   -1    0    0  502  503 -0.00000000000E+00 -0.00000000000E+00 -0.93663794864E+03  0.93663794864E+03  0.00000000000E+00 0. -1.
         -6    2    1    2    0  503  0.18699992537E+02  0.14114593995E+03 -0.39685710321E+03  0.45529566890E+03  0.17183340670E+03 0.  0.
        -24    2    3    3    0    0 -0.39204684340E+02  0.12494523700E+03 -0.33394443367E+03  0.36814345510E+03  0.82839599407E+02 0.  0.
          6    2    1    2  501    0 -0.18699992537E+02 -0.14114593995E+03 -0.48599408247E+03  0.53512904270E+03  0.17291899277E+03 0.  0.
         24    2    5    5    0    0  0.41193542793E+02 -0.11608130575E+03 -0.25291525677E+03  0.29313048806E+03  0.82386761115E+02 0.  0.
          5    1    5    5  501    0 -0.59893535329E+02 -0.25064634201E+02 -0.23307882569E+03  0.24199855464E+03  0.47000000000E+01 0. -1.
        -11    1    6    6    0    0  0.17133956133E+02 -0.12082284683E+03 -0.22509036412E+03  0.25604180281E+03  0.00000000000E+00 0.  1.
         12    1    6    6    0    0  0.24059586660E+02  0.47415410734E+01 -0.27824892651E+02  0.37088685242E+02  0.00000000000E+00 0. -1.
         -5    1    3    3    0  503  0.57904676877E+02  0.16200702948E+02 -0.62912669541E+02  0.87152213793E+02  0.47000000000E+01 0.  1.
         13    1    4    4    0    0  0.73589797297E+01  0.12747253138E+02 -0.12948975531E+03  0.13032361174E+03  0.00000000000E+00 0. -1.
        -14    1    4    4    0    0 -0.46563664070E+02  0.11219798387E+03 -0.20445467836E+03  0.23781984337E+03  0.00000000000E+00 0.  1.
</event>
<event>
12    1  0.8684423E-002  0.2234061E+03  0.7818608E-02  0.1131582E+00
         21   -1    0    0  503  502  0.00000000000E+00  0.00000000000E+00  0.26453644011E+03  0.26453644011E+03  0.00000000000E+00 0.  1.
         21   -1    0    0  501  503 -0.00000000000E+00 -0.00000000000E+00 -0.22264076240E+03  0.22264076240E+03  0.00000000000E+00 0. -1.
          6    2    1    2  501    0 -0.12035719874E+03 -0.74441061675E+02 -0.75519455027E+02  0.23582508983E+03  0.17286687928E+03 0.  0.
         24    2    3    3    0    0 -0.53945095365E+02 -0.52050564143E+02  0.25300552562E+02  0.11294846152E+03  0.80609568030E+02 0.  0.
         -6    2    1    2    0  502  0.12035719874E+03  0.74441061675E+02  0.11741513274E+03  0.25135211269E+03  0.17135998425E+03 0.  0.
        -24    2    5    5    0    0  0.24000874873E+02  0.84442523647E+02  0.94087734742E+02  0.15159827622E+03  0.80143332415E+02 0.  0.
          5    1    3    3  501    0 -0.66412103380E+02 -0.22390497532E+02 -0.10082000759E+03  0.12287662831E+03  0.47000000000E+01 0. -1.
        -13    1    4    4    0    0 -0.71862126461E+02 -0.52170289082E+02  0.99570107627E+01  0.89359086532E+02  0.00000000000E+00 0.  1.
         14    1    4    4    0    0  0.17917031096E+02  0.11972493908E+00  0.15343541799E+02  0.23589374987E+02  0.00000000000E+00 0. -1.
         -5    1    5    5    0  502  0.96356323872E+02 -0.10001461972E+02  0.23327397995E+02  0.99753836462E+02  0.47000000000E+01 0.  1.
         11    1    6    6    0    0 -0.33094161495E+01 -0.15114363923E+02  0.97017645807E+01  0.18262542759E+02  0.00000000000E+00 0. -1.
        -12    1    6    6    0    0  0.27310291022E+02  0.99556887571E+02  0.84385970161E+02  0.13333573346E+03  0.00000000000E+00 0.  1.
</event>
<event>
12    1  0.8684423E-002  0.1868386E+03  0.7818608E-02  0.1161413E+00
         21   -1    0    0  501  502  0.00000000000E+00  0.00000000000E+00  0.17154993933E+03  0.17154993933E+03  0.00000000000E+00 0. -1.
         21   -1    0    0  502  503 -0.00000000000E+00 -0.00000000000E+00 -0.20428943491E+03  0.20428943491E+03  0.00000000000E+00 0. -1.
         -6    2    1    2    0  503  0.47085907313E+02  0.56900043925E+02 -0.24023564100E+01  0.18655386926E+03  0.17129470848E+03 0.  0.
        -24    2    3    3    0    0 -0.29969130125E+02  0.65964227747E+02 -0.11134645154E+02  0.10833634507E+03  0.79770641458E+02 0.  0.
          6    2    1    2  501    0 -0.47085907313E+02 -0.56900043925E+02 -0.30337139169E+02  0.18928550499E+03  0.17162156834E+03 0.  0.
         24    2    5    5    0    0 -0.39150383410E+02 -0.44925172949E+02  0.46412287496E+02  0.11106188600E+03  0.81422468673E+02 0.  0.
          5    1    5    5  501    0 -0.79355239029E+01 -0.11974870976E+02 -0.76749426665E+02  0.78223618990E+02  0.47000000000E+01 0. -1.
        -11    1    6    6    0    0 -0.22201609982E+02  0.73430655960E+01  0.50815842940E+02  0.55938197968E+02  0.00000000000E+00 0.  1.
         12    1    6    6    0    0 -0.16948773428E+02 -0.52268238545E+02 -0.44035554444E+01  0.55123688028E+02  0.00000000000E+00 0. -1.
         -5    1    3    3    0  503  0.77055037437E+02 -0.90641838220E+01  0.87322887441E+01  0.78217524185E+02  0.47000000000E+01 0.  1.
         13    1    4    4    0    0 -0.23618564246E+02 -0.21654111654E+01  0.21964821775E+02  0.32326134600E+02  0.00000000000E+00 0. -1.
        -14    1    4    4    0    0 -0.63505658786E+01  0.68129638912E+02 -0.33099466929E+02  0.76010210474E+02  0.00000000000E+00 0.  1.
</event>
<event>
12    1  0.8684423E-002  0.1798679E+03  0.7818608E-02  0.1168318E+00
         21   -1    0    0  501  502  0.00000000000E+00  0.00000000000E+00  0.19880238671E+03  0.19880238671E+03  0.00000000000E+00 0.  1.
         21   -1    0    0  502  503 -0.00000000000E+00 -0.00000000000E+00 -0.16466473780E+03  0.16466473780E+03  0.00000000000E+00 0. -1.
         -6    2    1    2    0  503  0.45900247776E+02  0.12915135767E+02 -0.89828545219E+01  0.17850274464E+03  0.17178156097E+03 0.  0.
        -24    2    3    3    0    0  0.74799028916E+02  0.43716735854E+02  0.28337771816E+02  0.12194483388E+03  0.81002873270E+02 0.  0.
          6    2    1    2  501    0 -0.45900247776E+02 -0.12915135767E+02  0.43120503425E+02  0.18496437987E+03  0.17343243793E+03 0.  0.
         24    2    5    5    0    0 -0.55832047417E+02  0.39619519509E+02  0.68926347282E+02  0.12541135958E+03  0.79311057969E+02 0.  0.
          5    1    5    5  501    0  0.99317996405E+01 -0.52534655276E+02 -0.25805843857E+02  0.59553020295E+02  0.47000000000E+01 0. -1.
        -13    1    6    6    0    0 -0.67393350622E+02  0.39599740903E+02  0.28235332804E+02  0.83109790074E+02  0.00000000000E+00 0.  1.
         14    1    6    6    0    0  0.11561303206E+02  0.19778605978E-01  0.40691014478E+02  0.42301569502E+02  0.00000000000E+00 0. -1.
         -5    1    3    3    0  503 -0.28898781140E+02 -0.30801600087E+02 -0.37320626338E+02  0.56557910760E+02  0.47000000000E+01 0.  1.
         11    1    4    4    0    0  0.50300600334E+02  0.14917443008E+02 -0.23741641079E+02  0.57587724569E+02  0.00000000000E+00 0. -1.
        -12    1    4    4    0    0  0.24498428581E+02  0.28799292846E+02  0.52079412895E+02  0.64357109311E+02  0.00000000000E+00 0.  1.
</event>
<event>
12    1  0.8684423E-002  0.1879821E+03  0.7818608E-02  0.1160385E+00
         21   -1    0    0  501  502  0.00000000000E+00  0.00000000000E+00  0.71240693958E+02  0.71240693958E+02  0.00000000000E+00 0.  1.
         21   -1    0    0  502  503 -0.00000000000E+00 -0.00000000000E+00 -0.49700497137E+03  0.49700497137E+03  0.00000000000E+00 0.  1.
         -6    2    1    2    0  503 -0.17692541877E+00  0.77308718937E+02 -0.23081420554E+03  0.29742692800E+03  0.17091199694E+03 0.  0.
        -24    2    3    3    0    0  0.72559065947E+01  0.11504234613E+03 -0.14827525577E+03  0.20624665688E+03  0.85233458313E+02 0.  0.
          6    2    1    2  501    0  0.17692541877E+00 -0.77308718937E+02 -0.19495007188E+03  0.27081873733E+03  0.17134931758E+03 0.  0.
         24    2    5    5    0    0  0.58762792180E+02 -0.14590728860E+02 -0.13334341327E+03  0.16506751772E+03  0.76163406114E+02 0.  0.
          5    1    5    5  501    0 -0.58585866761E+02 -0.62717990077E+02 -0.61606658607E+02  0.10575121961E+03  0.47000000000E+01 0. -1.
        -13    1    6    6    0    0 -0.34403754404E+00 -0.26087178436E+02 -0.10241045014E+02  0.28027455174E+02  0.00000000000E+00 0.  1.
         14    1    6    6    0    0  0.59106829724E+02  0.11496449576E+02 -0.12310236826E+03  0.13704006255E+03  0.00000000000E+00 0. -1.
         -5    1    3    3    0  503 -0.74328320135E+01 -0.37733627198E+02 -0.82538949767E+02  0.91180271122E+02  0.47000000000E+01 0.  1.
         13    1    4    4    0    0  0.64484953211E+01  0.21089620946E+02  0.83667037722E+01  0.23587219750E+02  0.00000000000E+00 0. -1.
        -14    1    4    4    0    0  0.80741127362E+00  0.93952725189E+02 -0.15664195954E+03  0.18265943713E+03  0.00000000000E+00 0.  1.
</event>
<event>
12    1  0.8684423E-002  0.2214611E+03  0.7818608E-02  0.1132913E+00
         21   -1    0    0  501  502  0.00000000000E+00  0.00000000000E+00  0.43037751957E+03  0.43037751957E+03  0.00000000000E+00 0. -1.
         21   -1    0    0  502  503 -0.00000000000E+00 -0.00000000000E+00 -0.15982518219E+03  0.15982518219E+03  0.00000000000E+00 0. -1.
         -6    2    1    2    0  503 -0.12946618011E+03 -0.51567154449E+02 -0.23492308677E+02  0.22208958402E+03  0.17132201129E+03 0.  0.
        -24    2    3    3    0    0 -0.16648058024E+02 -0.65421472271E+02 -0.23173446727E+02  0.10832639812E+03  0.81489097588E+02 0.  0.
          6    2    1    2  501    0  0.12946618011E+03  0.51567154449E+02  0.29404464606E+03  0.36811311774E+03  0.17211725761E+03 0.  0.
         24    2    5    5    0    0  0.68031168957E+00 -0.19400767889E+01  0.13366161967E+03  0.15552518569E+03  0.79488540613E+02 0.  0.
          5    1    5    5  501    0  0.12878586842E+03  0.53507231238E+02  0.16038302639E+03  0.21258793205E+03  0.47000000000E+01 0. -1.
        -13    1    6    6    0    0 -0.21484826561E+02  0.32242440545E+02  0.63009875257E+02  0.73969028144E+02  0.00000000000E+00 0.  1.
         14    1    6    6    0    0  0.22165138250E+02 -0.34182517334E+02  0.70651744418E+02  0.81556157549E+02  0.00000000000E+00 0. -1.
         -5    1    3    3    0  503 -0.11281812209E+03  0.13854317822E+02 -0.31886195046E+00  0.11376318590E+03  0.47000000000E+01 0.  1.
         11    1    4    4    0    0 -0.28016452589E+02  0.58852978559E+01 -0.22007969743E+02  0.36109681232E+02  0.00000000000E+00 0. -1.
        -12    1    4    4    0    0  0.11368394565E+02 -0.71306770127E+02 -0.11654769840E+01  0.72216716884E+02  0.00000000000E+00 0.  1.
</event>
<event>
12    1  0.8684423E-002  0.2065688E+03  0.7818608E-02  0.1145348E+00
         21   -1    0    0  501  502  0.00000000000E+00  0.00000000000E+00  0.36252986989E+03  0.36252986989E+03  0.00000000000E+00 0. -1.
         21   -1    0    0  502  503 -0.00000000000E+00 -0.00000000000E+00 -0.11786691329E+03  0.11786691329E+03  0.00000000000E+00 0. -1.
         -6    2    1    2    0  503  0.83370321559E+02 -0.70321567685E+02  0.16228641560E+03  0.26269289321E+03  0.17542788277E+03 0.  0.
        -24    2    3    3    0    0  0.56512877703E+02 -0.10198303835E+03  0.16729210234E+03  0.22061061766E+03  0.84191161435E+02 0.  0.
          6    2    1    2  501    0 -0.83370321559E+02  0.70321567685E+02  0.82376540999E+02  0.21770388998E+03  0.16945015730E+03 0.  0.
         24    2    5    5    0    0 -0.30623476984E+02 -0.64540852373E+01  0.90251411641E+02  0.12410456262E+03  0.79228609745E+02 0.  0.
          5    1    5    5  501    0 -0.52746844575E+02  0.76775652922E+02 -0.78748706426E+01  0.93599327358E+02  0.47000000000E+01 0. -1.
        -11    1    6    6    0    0 -0.29872339600E+01 -0.77404514324E+01  0.95571974394E+02  0.95931436165E+02  0.00000000000E+00 0.  1.
         12    1    6    6    0    0 -0.27636243024E+02  0.12863661951E+01 -0.53205627529E+01  0.28173126459E+02  0.00000000000E+00 0. -1.
         -5    1    3    3    0  503  0.26857443857E+02  0.31661470662E+02 -0.50056867375E+01  0.42082275541E+02  0.47000000000E+01 0.  1.
         13    1    4    4    0    0  0.56104772181E+02 -0.94951572601E+02  0.88236095009E+02  0.14124147784E+03  0.00000000000E+00 0. -1.
        -14    1    4    4    0    0  0.40810552182E+00 -0.70314657462E+01  0.79056007332E+02  0.79369139821E+02  0.00000000000E+00 0.  1.
</event>
<event>
12    1  0.8684423E-002  0.2501857E+03  0.7818608E-02  0.1113407E+00
         21   -1    0    0  503  502  0.00000000000E+00  0.00000000000E+00  0.67593401939E+03  0.67593401939E+03  0.00000000000E+00 0.  1.
         21   -1    0    0  501  503 -0.00000000000E+00 -0.00000000000E+00 -0.92652760983E+02  0.92652760983E+02  0.00000000000E+00 0.  1.
          6    2    1    2  501    0  0.12749669054E+03  0.12733762383E+03  0.26248088794E+03  0.36261426837E+03  0.17355867755E+03 0.  0.
         24    2    3    3    0    0  0.13019841499E+03  0.15141210423E+03  0.19367156722E+03  0.28951370381E+03  0.80201347686E+02 0.  0.
         -6    2    1    2    0  502 -0.12749669054E+03 -0.12733762383E+03  0.32080037047E+03  0.40597251200E+03  0.17155327529E+03 0.  0.
        -24    2    5    5    0    0 -0.87111484624E+02 -0.10659579750E+02  0.20086821340E+03  0.23377918133E+03  0.81256563268E+02 0.  0.
          5    1    3    3  501    0 -0.27017244489E+01 -0.24074480400E+02  0.68809320715E+02  0.73100564559E+02  0.47000000000E+01 0. -1.
        -13    1    4    4    0    0  0.44161052221E+02  0.25120602530E+02  0.12160094852E+02  0.52240895011E+02  0.00000000000E+00 0.  1.
         14    1    4    4    0    0  0.86037362771E+02  0.12629150170E+03  0.18151147237E+03  0.23727280880E+03  0.00000000000E+00 0. -1.
         -5    1    5    5    0  502 -0.40385205919E+02 -0.11667804408E+03  0.11993215707E+03  0.17219333067E+03  0.47000000000E+01 0.  1.
         11    1    6    6    0    0 -0.50405895575E+02  0.15353298915E+02  0.38407480901E+02  0.65204391612E+02  0.00000000000E+00 0. -1.
        -12    1    6    6    0    0 -0.36705589049E+02 -0.26012878665E+02  0.16246073250E+03  0.16857478972E+03  0.00000000000E+00 0.  1.
</event>
<event>
12    1  0.8684423E-002  0.1792924E+03  0.7818608E-02  0.1168503E+00
         21   -1    0    0  501  502  0.00000000000E+00  0.00000000000E+00  0.54914881817E+02  0.54914881817E+02  0.00000000000E+00 0. -1.
         21   -1    0    0  502  503 -0.00000000000E+00 -0.00000000000E+00 -0.79603175527E+03  0.79603175527E+03  0.00000000000E+00 0. -1.
         -6    2    1    2    0  503  0.14188155377E+02  0.45779625444E+02 -0.58957193130E+03  0.61623114169E+03  0.17276770517E+03 0.  0.
        -24    2    3    3    0    0  0.40677506585E+02 -0.22982318861E+02 -0.43916406930E+03  0.44867665603E+03  0.79137951580E+02 0.  0.
          6    2    1    2  501    0 -0.14188155377E+02 -0.45779625444E+02 -0.15154494215E+03  0.23471549540E+03  0.17270905138E+03 0.  0.
         24    2    5    5    0    0 -0.43882974187E+02  0.17732455813E+02 -0.13424037701E+03  0.16234765237E+03  0.78077692065E+02 0.  0.
          5    1    5    5  501    0  0.29694818811E+02 -0.63512081257E+02 -0.17304565143E+02  0.72367843028E+02  0.47000000000E+01 0. -1.
        -11    1    6    6    0    0 -0.43553795225E+02 -0.22786505454E+02 -0.88548763777E+02  0.10127705306E+03  0.00000000000E+00 0.  1.
         12    1    6    6    0    0 -0.32917896194E+00  0.40518961267E+02 -0.45691613233E+02  0.61070599315E+02  0.00000000000E+00 0. -1.
         -5    1    3    3    0  503 -0.26489351209E+02  0.68761944305E+02 -0.15040786200E+03  0.16755448566E+03  0.47000000000E+01 0.  1.
         13    1    4    4    0    0  0.52939394135E+02 -0.42325367023E+02 -0.29360627898E+03  0.30132816530E+03  0.00000000000E+00 0. -1.
        -14    1    4    4    0    0 -0.12261887550E+02  0.19343048161E+02 -0.14555779032E+03  0.14734849073E+03  0.00000000000E+00 0.  1.
</event>
<event>
12    1  0.8684423E-002  0.2003380E+03  0.7818608E-02  0.1149503E+00
         21   -1    0    0  501  502  0.00000000000E+00  0.00000000000E+00  0.36691169306E+02  0.36691169306E+02  0.00000000000E+00 0. -1.
         21   -1    0    0  502  503 -0.00000000000E+00 -0.00000000000E+00 -0.13743681027E+04  0.13743681027E+04  0.00000000000E+00 0. -1.
         -6    2    1    2    0  503 -0.98532487707E+02 -0.28656434522E+02 -0.34907658738E+03  0.40236408955E+03  0.17179218355E+03 0.  0.
        -24    2    3    3    0    0 -0.83677939006E+02  0.85297510630E+01 -0.11608424098E+03  0.16590903357E+03  0.83519472506E+02 0.  0.
          6    2    1    2  501    0  0.98532487707E+02  0.28656434522E+02 -0.98860034606E+03  0.10086951825E+04  0.17206244390E+03 0.  0.
         24    2    5    5    0    0  0.63669692892E+02 -0.12119628532E+02 -0.29538518303E+03  0.31339132516E+03  0.82225307198E+02 0.  0.
          5    1    5    5  501    0  0.34862794815E+02  0.40776063053E+02 -0.69321516303E+03  0.69530385734E+03  0.47000000000E+01 0. -1.
        -11    1    6    6    0    0  0.31071238082E+01 -0.19292150055E+02 -0.19468844144E+03  0.19566663104E+03  0.00000000000E+00 0.  1.
         12    1    6    6    0    0  0.60562569084E+02  0.71725215233E+01 -0.10069674159E+03  0.11772469412E+03  0.00000000000E+00 0. -1.
         -5    1    3    3    0  503 -0.14854548701E+02 -0.37186185585E+02 -0.23299234640E+03  0.23645505598E+03  0.47000000000E+01 0.  1.
         11    1    4    4    0    0 -0.33434966851E+02  0.81599102470E+00 -0.10969158841E+03  0.11467696986E+03  0.00000000000E+00 0. -1.
        -12    1    4    4    0    0 -0.50242972156E+02  0.77137600383E+01 -0.63926525712E+01  0.51232063709E+02  0.00000000000E+00 0.  1.
</event>
<event>
12    1  0.8684423E-002  0.2597984E+03  0.7818608E-02  0.1107383E+00
         21   -1    0    0  501  502  0.00000000000E+00  0.00000000000E+00  0.46616689659E+02  0.46616689659E+02  0.00000000000E+00 0.  1.
         21   -1    0    0  502  503 -0.00000000000E+00 -0.00000000000E+00 -0.14872969420E+04  0.14872969420E+04  0.00000000000E+00 0.  1.
         -6    2    1    2    0  503  0.13103371869E+03  0.14436644106E+03 -0.85088269695E+03  0.88943217885E+03  0.17051900793E+03 0.  0.
        -24    2    3    3    0    0  0.69863156191E+01  0.85353766427E+02 -0.46859014551E+03  0.48318110025E+03  0.80951696221E+02 0.  0.
          6    2    1    2  501    0 -0.13103371869E+03 -0.14436644106E+03 -0.58979755537E+03  0.64448145279E+03  0.17170813006E+03 0.  0.
         24    2    5    5    0    0 -0.60118399554E+02 -0.13186222873E+03 -0.27561098919E+03  0.32211423022E+03  0.82427487046E+02 0.  0.
          5    1    5    5  501    0 -0.70915319140E+02 -0.12504212333E+02 -0.31418656618E+03  0.32236722256E+03  0.47000000000E+01 0. -1.
        -13    1    6    6    0    0 -0.17168868852E+02 -0.67837139195E+02 -0.20839919010E+03  0.21983373250E+03  0.00000000000E+00 0.  1.
         14    1    6    6    0    0 -0.42949530702E+02 -0.64025089536E+02 -0.67211799092E+02  0.10228049772E+03  0.00000000000E+00 0. -1.
         -5    1    3    3    0  503  0.12404740307E+03  0.59012674637E+02 -0.38229255145E+03  0.40625107861E+03  0.47000000000E+01 0.  1.
         11    1    4    4    0    0 -0.29473215887E+02  0.56413574824E+01 -0.10818183040E+03  0.11226666379E+03  0.00000000000E+00 0. -1.
        -12    1    4    4    0    0  0.36459531506E+02  0.79712408945E+02 -0.36040831511E+03  0.37091443646E+03  0.00000000000E+00 0.  1.
</event>
<event>
12    1  0.8684423E-002  0.1888562E+03  0.7818608E-02  0.1161861E+00
         21   -1    0    0  501  502  0.00000000000E+00  0.00000000000E+00  0.19624786829E+03  0.19624786829E+03  0.00000000000E+00 0. -1.
         21   -1    0    0  502  503 -0.00000000000E+00 -0.00000000000E+00 -0.43938717378E+03  0.43938717378E+03  0.00000000000E+00 0. -1.
         -6    2    1    2    0  503 -0.39995405704E+02 -0.22193586803E+02 -0.36808024713E+03  0.40919101160E+03  0.17280633053E+03 0.  0.
        -24    2    3    3    0    0 -0.56124828799E+02 -0.44197296070E+02 -0.36597190342E+03  0.38142670674E+03  0.80296333247E+02 0.  0.
          6    2    1    2  501    0  0.39995405704E+02  0.22193586803E+02  0.12494094164E+03  0.22644403048E+03  0.18323338197E+03 0.  0.
         24    2    5    5    0    0 -0.24195561319E+02  0.66032796652E+02  0.94929116357E+02  0.14298651899E+03  0.80547203915E+02 0.  0.
          5    1    5    5  501    0  0.64190967023E+02 -0.43839209849E+02  0.30011825283E+02  0.83457511491E+02  0.47000000000E+01 0. -1.
        -11    1    6    6    0    0 -0.68896312509E+01 -0.58141359371E+01 -0.10750727265E+02  0.14030300503E+02  0.00000000000E+00 0.  1.
         12    1    6    6    0    0 -0.17305930068E+02  0.71846932589E+02  0.10567984362E+03  0.12895621848E+03  0.00000000000E+00 0. -1.
         -5    1    3    3    0  503  0.16129423095E+02  0.22003709266E+02 -0.21083437088E+01  0.27764304855E+02  0.47000000000E+01 0.  1.
         11    1    4    4    0    0 -0.72159988465E+00 -0.12645340307E+02 -0.23910175462E+03  0.23943699463E+03  0.00000000000E+00 0. -1.
        -12    1    4    4    0    0 -0.55403228915E+02 -0.31551955763E+02 -0.12687014881E+03  0.14198971211E+03  0.00000000000E+00 0.  1.
</event>
<event>
12    1  0.8684423E-002  0.2375510E+03  0.7818608E-02  0.1121948E+00
         21   -1    0    0  503  502  0.00000000000E+00  0.00000000000E+00  0.34092119649E+03  0.34092119649E+03  0.00000000000E+00 0. -1.
         21   -1    0    0  501  503 -0.00000000000E+00 -0.00000000000E+00 -0.19180165352E+03  0.19180165352E+03  0.00000000000E+00 0.  1.
          6    2    1    2  501    0 -0.53178812725E+02 -0.15126498297E+03 -0.28290766204E+02  0.23623527236E+03  0.17116557849E+03 0.  0.
         24    2    3    3    0    0 -0.64887907708E+02 -0.57779635726E+02 -0.64735650091E+02  0.13510697456E+03  0.80710986306E+02 0.  0.
         -6    2    1    2    0  502  0.53178812725E+02  0.15126498297E+03  0.17741030918E+03  0.29648757766E+03  0.17527516854E+03 0.  0.
        -24    2    5    5    0    0 -0.19352828277E+02  0.12262053244E+03  0.15834614743E+03  0.21607069040E+03  0.78757310188E+02 0.  0.
          5    1    3    3  501    0  0.11709094982E+02 -0.93485347242E+02  0.36444883887E+02  0.10112829780E+03  0.47000000000E+01 0. -1.
        -13    1    4    4    0    0 -0.79915518925E+02 -0.27030503805E+02 -0.46205613218E+02  0.96187821443E+02  0.00000000000E+00 0.  1.
         14    1    4    4    0    0  0.15027611217E+02 -0.30749131921E+02 -0.18530036873E+02  0.38919153117E+02  0.00000000000E+00 0. -1.
         -5    1    5    5    0  502  0.72531641002E+02  0.28644450530E+02  0.19064161748E+02  0.80416887255E+02  0.47000000000E+01 0.  1.
         13    1    6    6    0    0  0.23481225312E+02  0.39802091764E+02  0.87554613307E+02  0.99001943224E+02  0.00000000000E+00 0. -1.
        -14    1    6    6    0    0 -0.42834053589E+02  0.82818440675E+02  0.70791534121E+02  0.11706874718E+03  0.00000000000E+00 0.  1.
</event>
<event>
12    1  0.8684423E-002  0.2199510E+03  0.7818608E-02  0.1135700E+00
         21   -1    0    0  501  502  0.00000000000E+00  0.00000000000E+00  0.13935239454E+03  0.13935239454E+03  0.00000000000E+00 0. -1.
         21   -1    0    0  502  503 -0.00000000000E+00 -0.00000000000E+00 -0.33434910089E+03  0.33434910089E+03  0.00000000000E+00 0.  1.
         -6    2    1    2    0  503 -0.11574345929E+03  0.35497003619E+02 -0.82439623392E+02  0.23489300200E+03  0.18363508720E+03 0.  0.
        -24    2    3    3    0    0 -0.10986253012E+03  0.28044035208E+02  0.12177882295E+02  0.13968431307E+03  0.80666988691E+02 0.  0.
          6    2    1    2  501    0  0.11574345929E+03 -0.35497003619E+02 -0.11255708296E+03  0.23880849343E+03  0.17234794450E+03 0.  0.
         24    2    5    5    0    0  0.14113231522E+03 -0.31262402412E+02 -0.12743963583E+03  0.20870689492E+03  0.80137625377E+02 0.  0.
          5    1    5    5  501    0 -0.25388855926E+02 -0.42346012067E+01  0.14882552877E+02  0.30101598508E+02  0.47000000000E+01 0. -1.
        -11    1    6    6    0    0  0.10887983392E+03 -0.17255616211E+02 -0.44978027779E+02  0.11906131827E+03  0.00000000000E+00 0.  1.
         12    1    6    6    0    0  0.32252481300E+02 -0.14006786201E+02 -0.82461608055E+02  0.89645576649E+02  0.00000000000E+00 0. -1.
         -5    1    3    3    0  503 -0.58809291681E+01  0.74529684112E+01 -0.94617505686E+02  0.95208688933E+02  0.47000000000E+01 0.  1.
         11    1    4    4    0    0 -0.62481879885E+02  0.20638085685E+02 -0.33163942475E+02  0.73686925402E+02  0.00000000000E+00 0. -1.
        -12    1    4    4    0    0 -0.47380650238E+02  0.74059495223E+01  0.45341824770E+02  0.65997387667E+02  0.00000000000E+00 0.  1.
</event>
<event>
12    1  0.8684423E-002  0.1840638E+03  0.7818608E-02  0.1164299E+00
         21   -1    0    0  501  502  0.00000000000E+00  0.00000000000E+00  0.27534031514E+03  0.27534031514E+03  0.00000000000E+00 0.  1.
         21   -1    0    0  502  503 -0.00000000000E+00 -0.00000000000E+00 -0.19570654837E+03  0.19570654837E+03  0.00000000000E+00 0. -1.
         -6    2    1    2    0  503  0.48512403824E+02  0.43732476676E+02 -0.10483171443E+03  0.21045715567E+03  0.17040112435E+03 0.  0.
        -24    2    3    3    0    0  0.59051666982E+02 -0.14620324686E+02 -0.14568812592E+02  0.10235716981E+03  0.81017816826E+02 0.  0.
          6    2    1    2  501    0 -0.48512403824E+02 -0.43732476676E+02  0.18446548121E+03  0.26058970784E+03  0.17208573221E+03 0.  0.
         24    2    5    5    0    0 -0.84937225772E+02 -0.71965131575E+02  0.14085218371E+03  0.19696534006E+03  0.81010462554E+02 0.  0.
          5    1    5    5  501    0  0.36424821948E+02  0.28232654898E+02  0.43613297502E+02  0.63624367781E+02  0.47000000000E+01 0. -1.
        -13    1    6    6    0    0 -0.54094280139E+02 -0.81547515787E+02  0.13036772996E+03  0.16300899819E+03  0.00000000000E+00 0.  1.
         14    1    6    6    0    0 -0.30842945634E+02  0.95823842127E+01  0.10484453744E+02  0.33956341865E+02  0.00000000000E+00 0. -1.
         -5    1    3    3    0  503 -0.10539263158E+02  0.58352801362E+02 -0.90262901843E+02  0.10809998586E+03  0.47000000000E+01 0.  1.
         13    1    4    4    0    0  0.20503094613E+02  0.33707418921E+02 -0.71296152048E+01  0.40092373239E+02  0.00000000000E+00 0. -1.
        -14    1    4    4    0    0  0.38548572369E+02 -0.48327743607E+02 -0.74391973871E+01  0.62264796567E+02  0.00000000000E+00 0.  1.
</event>
<event>
12    1  0.8684423E-002  0.1883721E+03  0.7818608E-02  0.1160207E+00
         21   -1    0    0  503  502  0.00000000000E+00  0.00000000000E+00  0.51727498352E+03  0.51727498352E+03  0.00000000000E+00 0.  1.
         21   -1    0    0  501  503 -0.00000000000E+00 -0.00000000000E+00 -0.13824657036E+03  0.13824657036E+03  0.00000000000E+00 0.  1.
          6    2    1    2  501    0 -0.35994663165E+00 -0.76385650581E+02 -0.43545819049E+02  0.19333983043E+03  0.17218929844E+03 0.  0.
         24    2    3    3    0    0  0.83690868167E+01  0.12699046959E+01 -0.74143346347E+02  0.10928699010E+03  0.79842069901E+02 0.  0.
         -6    2    1    2    0  502  0.35994663165E+00  0.76385650581E+02  0.42257423222E+03  0.46218172345E+03  0.17090367633E+03 0.  0.
        -24    2    5    5    0    0 -0.65034203826E+02  0.45789196600E+02  0.26194844551E+03  0.28601341965E+03  0.82828678132E+02 0.  0.
          5    1    3    3  501    0 -0.87290334483E+01 -0.77655555277E+02  0.30597527299E+02  0.84052840328E+02  0.47000000000E+01 0. -1.
        -11    1    4    4    0    0 -0.17862628662E+02 -0.31348236120E+02 -0.21387630602E+02  0.41943010780E+02  0.00000000000E+00 0.  1.
         12    1    4    4    0    0  0.26231715478E+02  0.32618140816E+02 -0.52755715746E+02  0.67343979323E+02  0.00000000000E+00 0. -1.
         -5    1    5    5    0  502  0.65394150457E+02  0.30596453981E+02  0.16062578670E+03  0.17616830380E+03  0.47000000000E+01 0.  1.
         11    1    6    6    0    0 -0.61369920344E+02  0.53638597540E+02  0.12775781584E+03  0.15154347817E+03  0.00000000000E+00 0. -1.
        -12    1    6    6    0    0 -0.36642834819E+01 -0.78494009396E+01  0.13419062967E+03  0.13446994148E+03  0.00000000000E+00 0.  1.
</event>
<event>
12    1  0.8684423E-002  0.1824569E+03  0.7818608E-02  0.1165870E+00
         21   -1    0    0  503  502  0.00000000000E+00  0.00000000000E+00  0.18683999759E+04  0.18683999759E+04  0.00000000000E+00 0. -1.
         21   -1    0    0  501  503 -0.00000000000E+00 -0.00000000000E+00 -0.17645022464E+02  0.17645022464E+02  0.00000000000E+00 0.  1.
          6    2    1    2  501    0 -0.58666790668E+02 -0.23211578939E+02  0.91858157805E+03  0.93618305174E+03  0.16931042822E+03 0.  0.
         24    2    3    3    0    0 -0.18613980125E+02 -0.65212459936E+02  0.75723455260E+03  0.76465097235E+03  0.81778950096E+02 0.  0.
         -6    2    1    2    0  502  0.58666790668E+02  0.23211578939E+02  0.93217337541E+03  0.94986194666E+03  0.17120147823E+03 0.  0.
        -24    2    5    5    0    0  0.10183506593E+03  0.23290940249E+02  0.79944435060E+03  0.81021027171E+03  0.80103471379E+02 0.  0.
          5    1    3    3  501    0 -0.40052810543E+02  0.42000880998E+02  0.16134702545E+03  0.17153207939E+03  0.47000000000E+01 0. -1.
        -13    1    4    4    0    0  0.13928743936E+02 -0.49312232406E+02  0.20782749468E+03  0.21405133431E+03  0.00000000000E+00 0.  1.
         14    1    4    4    0    0 -0.32542724060E+02 -0.15900227531E+02  0.54940705792E+03  0.55059963805E+03  0.00000000000E+00 0. -1.
         -5    1    5    5    0  502 -0.43168275260E+02 -0.79361309907E-01  0.13272902482E+03  0.13965167495E+03  0.47000000000E+01 0.  1.
         11    1    6    6    0    0  0.83851177004E+02  0.37643807909E+02  0.41402325548E+03  0.42410297362E+03  0.00000000000E+00 0. -1.
        -12    1    6    6    0    0  0.17983888924E+02 -0.14352867661E+02  0.38542109512E+03  0.38610729808E+03  0.00000000000E+00 0.  1.
</event>
<event>
12    1  0.8684423E-002  0.1788404E+03  0.7818608E-02  0.1169191E+00
         21   -1    0    0  503  502  0.00000000000E+00  0.00000000000E+00  0.24226979192E+04  0.24226979192E+04  0.00000000000E+00 0. -1.
         21   -1    0    0  501  503 -0.00000000000E+00 -0.00000000000E+00 -0.17168928052E+02  0.17168928052E+02  0.00000000000E+00 0. -1.
          6    2    1    2  501    0  0.36034343505E+01  0.49861579977E+02  0.60782946162E+03  0.63329344088E+03  0.17060118978E+03 0.  0.
         24    2    3    3    0    0 -0.41329121115E+02  0.40265155781E+02  0.55249437668E+03  0.56121648532E+03  0.79903242166E+02 0.  0.
         -6    2    1    2    0  502 -0.36034343505E+01 -0.49861579977E+02  0.17976995295E+04  0.18065734063E+04  0.17171113020E+03 0.  0.
        -24    2    5    5    0    0 -0.21405499687E+02 -0.92504242775E+02  0.15166229515E+04  0.15216849318E+04  0.79778595687E+02 0.  0.
          5    1    3    3  501    0  0.44932555465E+02  0.95964241956E+01  0.55335084940E+02  0.72076955564E+02  0.47000000000E+01 0. -1.
        -13    1    4    4    0    0 -0.33198597765E+02  0.13426746559E+01  0.45083158256E+03  0.45205427274E+03  0.00000000000E+00 0.  1.
         14    1    4    4    0    0 -0.81305233501E+01  0.38922481125E+02  0.10166279412E+03  0.10916221258E+03  0.00000000000E+00 0. -1.
         -5    1    5    5    0  502  0.17802065337E+02  0.42642662799E+02  0.28107657801E+03  0.28488847454E+03  0.47000000000E+01 0.  1.
         11    1    6    6    0    0 -0.38471110075E+02 -0.22936471677E+02  0.34827650989E+03  0.35114474990E+03  0.00000000000E+00 0. -1.
        -12    1    6    6    0    0  0.17065610388E+02 -0.69567771099E+02  0.11683464416E+04  0.11705401819E+04  0.00000000000E+00 0.  1.
</event>
<event>
12    1  0.8684423E-002  0.1891910E+03  0.7818608E-02  0.1159643E+00
         21   -1    0    0  503  502  0.00000000000E+00  0.00000000000E+00  0.41208455740E+03  0.41208455740E+03  0.00000000000E+00 0. -1.
         21   -1    0    0  501  503 -0.00000000000E+00 -0.00000000000E+00 -0.12500968495E+03  0.12500968495E+03  0.00000000000E+00 0. -1.
          6    2    1    2  501    0 -0.78854985710E+02  0.29007429358E+01 -0.60443290681E+01  0.18928756596E+03  0.17194977648E+03 0.  0.
         24    2    3    3    0    0 -0.66320291500E+01  0.55929636544E+02  0.76711948304E+01  0.98521798145E+02  0.80471047122E+02 0.  0.
         -6    2    1    2    0  502  0.78854985710E+02 -0.29007429358E+01  0.29311920152E+03  0.34780667639E+03  0.16977660253E+03 0.  0.
        -24    2    5    5    0    0  0.10285341150E+03 -0.40164362815E+02  0.25608715637E+03  0.28985873273E+03  0.79028178430E+02 0.  0.
          5    1    3    3  501    0 -0.72222956560E+02 -0.53028893608E+02 -0.13715523898E+02  0.90765767817E+02  0.47000000000E+01 0. -1.
        -13    1    4    4    0    0  0.46393408591E+01  0.40887259189E+02  0.42367029960E+02  0.59061465231E+02  0.00000000000E+00 0.  1.
         14    1    4    4    0    0 -0.11271370009E+02  0.15042377355E+02 -0.34695835129E+02  0.39460332914E+02  0.00000000000E+00 0. -1.
         -5    1    5    5    0  502 -0.23998425789E+02  0.37263619879E+02  0.37032045146E+02  0.57947943661E+02  0.47000000000E+01 0.  1.
         13    1    6    6    0    0  0.79106498513E+02 -0.45026776028E+02  0.11479806805E+03  0.14650544391E+03  0.00000000000E+00 0. -1.
        -14    1    6    6    0    0  0.23746912985E+02  0.48624132134E+01  0.14128908832E+03  0.14335328882E+03  0.00000000000E+00 0.  1.
</event>
<event>
12    1  0.8684423E-002  0.1910291E+03  0.7818608E-02  0.1158515E+00
         21   -1    0    0  503  502  0.00000000000E+00  0.00000000000E+00  0.25081144292E+03  0.25081144292E+03  0.00000000000E+00 0.  1.
         21   -1    0    0  501  503 -0.00000000000E+00 -0.00000000000E+00 -0.15661464918E+03  0.15661464918E+03  0.00000000000E+00 0.  1.
          6    2    1    2  501    0  0.64690375689E+02 -0.32828955309E+02  0.10835337242E+03  0.21587315826E+03  0.17204122219E+03 0.  0.
         24    2    3    3    0    0 -0.26248669359E+02 -0.11081019822E+02  0.18054398193E+02  0.85800573304E+02  0.78892302805E+02 0.  0.
         -6    2    1    2    0  502 -0.64690375689E+02  0.32828955309E+02 -0.14156578679E+02  0.19155293384E+03  0.17671879563E+03 0.  0.
        -24    2    5    5    0    0 -0.35049022485E+02 -0.81808981744E+01  0.56248471602E+02  0.10472333631E+03  0.80670475008E+02 0.  0.
          5    1    3    3  501    0  0.90939045048E+02 -0.21747935487E+02  0.90298974223E+02  0.13007258496E+03  0.47000000000E+01 0. -1.
        -11    1    4    4    0    0 -0.40460302809E+02  0.27442775977E+01  0.39488062881E+02  0.56602776195E+02  0.00000000000E+00 0.  1.
         12    1    4    4    0    0  0.14211633450E+02 -0.13825297420E+02 -0.21433664688E+02  0.29197797109E+02  0.00000000000E+00 0. -1.
         -5    1    5    5    0  502 -0.29641353204E+02  0.41009853484E+02 -0.70405050281E+02  0.86829597532E+02  0.47000000000E+01 0.  1.
         11    1    6    6    0    0 -0.31228436228E+02 -0.43043339853E+02  0.36137936824E+02  0.64295371629E+02  0.00000000000E+00 0. -1.
        -12    1    6    6    0    0 -0.38205862578E+01  0.34862441679E+02  0.20110534778E+02  0.40427964681E+02  0.00000000000E+00 0.  1.
</event>
<event>
12    1  0.8684423E-002  0.1860445E+03  0.7818608E-02  0.1162461E+00
         21   -1    0    0  501  502  0.00000000000E+00  0.00000000000E+00  0.73029921063E+03  0.73029921063E+03  0.00000000000E+00 0. -1.
         21   -1    0    0  502  503 -0.00000000000E+00 -0.00000000000E+00 -0.57218091543E+02  0.57218091543E+02  0.00000000000E+00 0. -1.
         -6    2    1    2    0  503 -0.11139939018E+02 -0.69045740483E+02  0.16873306368E+03  0.24994916105E+03  0.17062333900E+03 0.  0.
        -24    2    3    3    0    0 -0.25322183603E+02  0.83213707602E+01  0.31073870708E+02  0.91333432406E+02  0.81644058207E+02 0.  0.
          6    2    1    2  501    0  0.11139939018E+02  0.69045740483E+02  0.50434805540E+03  0.53756814112E+03  0.17239818108E+03 0.  0.
         24    2    5    5    0    0  0.41272908391E+02  0.10512546455E+03  0.38577200969E+03  0.40992758742E+03  0.80409994419E+02 0.  0.
          5    1    5    5  501    0 -0.30132969373E+02 -0.36079724071E+02  0.11857604571E+03  0.12764055370E+03  0.47000000000E+01 0. -1.
        -11    1    6    6    0    0  0.63152161321E+01  0.92256746787E+02  0.19844766207E+03  0.21893529607E+03  0.00000000000E+00 0.  1.
         12    1    6    6    0    0  0.34957692259E+02  0.12868717767E+02  0.18732434762E+03  0.19099229135E+03  0.00000000000E+00 0. -1.
         -5    1    3    3    0  503  0.14182244585E+02 -0.77367111243E+02  0.13765919298E+03  0.15861572865E+03  0.47000000000E+01 0.  1.
         11    1    4    4    0    0 -0.45540170920E+02  0.26879384701E+02  0.35279365220E+02  0.63569191435E+02  0.00000000000E+00 0. -1.
        -12    1    4    4    0    0  0.20217987317E+02 -0.18558013941E+02 -0.42054945117E+01  0.27764240971E+02  0.00000000000E+00 0.  1.
</event>
<event>
12    1  0.8684423E-002  0.2730580E+03  0.7818608E-02  0.1099555E+00
         21   -1    0    0  503  502  0.00000000000E+00  0.00000000000E+00  0.27255238781E+03  0.27255238781E+03  0.00000000000E+00 0.  1.
         21   -1    0    0  501  503 -0.00000000000E+00 -0.00000000000E+00 -0.27484518534E+03  0.27484518534E+03  0.00000000000E+00 0. -1.
          6    2    1    2  501    0 -0.19181345422E+03 -0.89706721106E+02  0.18193554792E+02  0.27366340191E+03  0.17239766553E+03 0.  0.
         24    2    3    3    0    0 -0.12709177117E+03 -0.49287078952E+02 -0.55783511734E+02  0.16728041408E+03  0.79305752019E+02 0.  0.
         -6    2    1    2    0  502  0.19181345422E+03  0.89706721106E+02 -0.20486352328E+02  0.27373417123E+03  0.17225274697E+03 0.  0.
        -24    2    5    5    0    0  0.15982792113E+02  0.22977956250E+02  0.59680640376E+01  0.83757657053E+02  0.78716524374E+02 0.  0.
          5    1    3    3  501    0 -0.64721683049E+02 -0.40419642154E+02  0.73977066526E+02  0.10638298783E+03  0.47000000000E+01 0. -1.
        -13    1    4    4    0    0 -0.29960330841E+01  0.16693281872E+02 -0.86730985111E+01  0.19049002905E+02  0.00000000000E+00 0.  1.
         14    1    4    4    0    0 -0.12409573808E+03 -0.65980360824E+02 -0.47110413223E+02  0.14823141117E+03  0.00000000000E+00 0. -1.
         -5    1    5    5    0  502  0.17583066210E+03  0.66728764856E+02 -0.26454416365E+02  0.18997651418E+03  0.47000000000E+01 0.  1.
         13    1    6    6    0    0 -0.14463048676E+02  0.41866365754E+02 -0.85272374358E+01  0.45107495350E+02  0.00000000000E+00 0. -1.
        -14    1    6    6    0    0  0.30445840789E+02 -0.18888409504E+02  0.14495301473E+02  0.38650161704E+02  0.00000000000E+00 0.  1.
</event>
<event>
12    1  0.8684423E-002  0.1743441E+03  0.7818608E-02  0.1173430E+00
         21   -1    0    0  503  502  0.00000000000E+00  0.00000000000E+00  0.15198355449E+02  0.15198355449E+02  0.00000000000E+00 0. -1.
         21   -1    0    0  501  503 -0.00000000000E+00 -0.00000000000E+00 -0.23218461328E+04  0.23218461328E+04  0.00000000000E+00 0. -1.
          6    2    1    2  501    0  0.19194937336E+02 -0.23978469461E+02 -0.71663734328E+03  0.73750423137E+03  0.17146427294E+03 0.  0.
         24    2    3    3    0    0 -0.13769605813E+02  0.39693821133E+02 -0.51166407187E+03  0.52030166765E+03  0.84548810988E+02 0.  0.
         -6    2    1    2    0  502 -0.19194937336E+02  0.23978469461E+02 -0.15900104341E+04  0.15995402569E+04  0.17161713285E+03 0.  0.
        -24    2    5    5    0    0 -0.72559696296E+02  0.37160223428E+02 -0.96052161727E+03  0.96763851086E+03  0.84123235356E+02 0.  0.
          5    1    3    3  501    0  0.32964543149E+02 -0.63672290594E+02 -0.20497327140E+03  0.21720256372E+03  0.47000000000E+01 0. -1.
        -13    1    4    4    0    0 -0.26716070613E+02 -0.26294791597E+01 -0.52083159848E+02  0.58594523033E+02  0.00000000000E+00 0.  1.
         14    1    4    4    0    0  0.12946464800E+02  0.42323300292E+02 -0.45958091202E+03  0.46170714462E+03  0.00000000000E+00 0. -1.
         -5    1    5    5    0  502  0.53364758961E+02 -0.13181753966E+02 -0.62948881683E+03  0.63190174604E+03  0.47000000000E+01 0.  1.
         11    1    6    6    0    0 -0.85560977857E+02  0.26250445504E+02 -0.90896029432E+03  0.91335567194E+03  0.00000000000E+00 0. -1.
        -12    1    6    6    0    0  0.13001281561E+02  0.10909777924E+02 -0.51561322947E+02  0.54282838914E+02  0.00000000000E+00 0.  1.
</event>
<event>
12    1  0.8684423E-002  0.2418531E+03  0.7818608E-02  0.1118758E+00
         21   -1    0    0  503  502  0.00000000000E+00  0.00000000000E+00  0.18182549031E+04  0.18182549031E+04  0.00000000000E+00 0. -1.
         21   -1    0    0  501  503 -0.00000000000E+00 -0.00000000000E+00 -0.46633403462E+02  0.46633403462E+02  0.00000000000E+00 0.  1.
          6    2    1    2  501    0  0.13126297385E+03  0.10577206150E+03  0.36226771300E+03  0.43493339992E+03  0.17178902522E+03 0.  0.
         24    2    3    3    0    0  0.11331764412E+03  0.13932887528E+03  0.26089120168E+03  0.32654806116E+03  0.79473223012E+02 0.  0.
         -6    2    1    2    0  502 -0.13126297385E+03 -0.10577206150E+03  0.14093537866E+04  0.14299549066E+04  0.17342214918E+03 0.  0.
        -24    2    5    5    0    0 -0.60242884737E+02 -0.57120949671E+02  0.38562870048E+03  0.40260592710E+03  0.80560721510E+02 0.  0.
          5    1    3    3  501    0  0.17945329732E+02 -0.33556813787E+02  0.10137651132E+03  0.10838533876E+03  0.47000000000E+01 0. -1.
        -11    1    4    4    0    0  0.21638156651E+02  0.81977448067E+02  0.14552765399E+03  0.16842449314E+03  0.00000000000E+00 0.  1.
         12    1    4    4    0    0  0.91679487467E+02  0.57351427217E+02  0.11536354769E+03  0.15812356801E+03  0.00000000000E+00 0. -1.
         -5    1    5    5    0  502 -0.71020089112E+02 -0.48651111826E+02  0.10237250861E+04  0.10273489795E+04  0.47000000000E+01 0.  1.
         11    1    6    6    0    0 -0.58366872617E+02 -0.50075750103E+02  0.38751729982E+03  0.39507458818E+03  0.00000000000E+00 0. -1.
        -12    1    6    6    0    0 -0.18760121203E+01 -0.70451995681E+01 -0.18885993409E+01  0.75313389181E+01  0.00000000000E+00 0.  1.
</event>
<event>
12    1  0.8684423E-002  0.1985148E+03  0.7818608E-02  0.1152990E+00
         21   -1    0    0  503  502  0.00000000000E+00  0.00000000000E+00  0.13915390507E+03  0.13915390507E+03  0.00000000000E+00 0.  1.
         21   -1    0    0  501  503 -0.00000000000E+00 -0.00000000000E+00 -0.27259925679E+03  0.27259925679E+03  0.00000000000E+00 0.  1.
          6    2    1    2  501    0 -0.57380830921E+02  0.52364653653E+02 -0.46411278449E+02  0.19499737183E+03  0.17272912767E+03 0.  0.
         24    2    3    3    0    0 -0.36984980342E+02  0.24149530359E+02 -0.96959076933E+02  0.13344045642E+03  0.80338062107E+02 0.  0.
         -6    2    1    2    0  502  0.57380830921E+02 -0.52364653653E+02 -0.87034073269E+02  0.21675579002E+03  0.18268422452E+03 0.  0.
        -24    2    5    5    0    0  0.10978794308E+03 -0.54561413153E+02 -0.57015639901E+02  0.15613790900E+03  0.78089200166E+02 0.  0.
          5    1    3    3  501    0 -0.20395850579E+02  0.28215123294E+02  0.50547798484E+02  0.61556915411E+02  0.47000000000E+01 0. -1.
        -11    1    4    4    0    0 -0.41321851549E+02 -0.19020675065E+02 -0.33187809617E+02  0.56309077443E+02  0.00000000000E+00 0.  1.
         12    1    4    4    0    0  0.43368712069E+01  0.43170205423E+02 -0.63771267316E+02  0.77131378980E+02  0.00000000000E+00 0. -1.
         -5    1    5    5    0  502 -0.52407112162E+02  0.21967595003E+01 -0.30018433368E+02  0.60617881019E+02  0.47000000000E+01 0.  1.
         13    1    6    6    0    0 -0.93441191994E+01  0.63557477472E+01 -0.69942301763E+01  0.13290122227E+02  0.00000000000E+00 0. -1.
        -14    1    6    6    0    0  0.11913206228E+03 -0.60917160900E+02 -0.50021409725E+02  0.14284778677E+03  0.00000000000E+00 0.  1.
</event>
<event>
12    1  0.8684423E-002  0.1830627E+03  0.7818608E-02  0.1165447E+00
         21   -1    0    0  503  502  0.00000000000E+00  0.00000000000E+00  0.16490340383E+03  0.16490340383E+03  0.00000000000E+00 0.  1.
         21   -1    0    0  501  503 -0.00000000000E+00 -0.00000000000E+00 -0.23305900409E+03  0.23305900409E+03  0.00000000000E+00 0. -1.
          6    2    1    2  501    0 -0.49648915154E+02 -0.87783606228E+01 -0.10858893958E+03  0.21284623681E+03  0.17598263645E+03 0.  0.
         24    2    3    3    0    0  0.29501494539E+00  0.56549863309E+02 -0.35513678410E+02  0.10273603387E+03  0.78073665388E+02 0.  0.
         -6    2    1    2    0  502  0.49648915154E+02  0.87783606228E+01  0.40433339324E+02  0.18511617111E+03  0.17346777074E+03 0.  0.
        -24    2    5    5    0    0 -0.17055291588E+02 -0.22388858051E+02  0.60118365452E+02  0.10875887303E+03  0.86151788499E+02 0.  0.
          5    1    3    3  501    0 -0.49943930099E+02 -0.65328223932E+02 -0.73075261169E+02  0.11011020294E+03  0.47000000000E+01 0. -1.
        -11    1    4    4    0    0  0.30515320836E+02  0.57370219268E+02 -0.31584550884E+02  0.72250333696E+02  0.00000000000E+00 0.  1.
         12    1    4    4    0    0 -0.30220305891E+02 -0.82035595847E+00 -0.39291275258E+01  0.30485700175E+02  0.00000000000E+00 0. -1.
         -5    1    5    5    0  502  0.66704206742E+02  0.31167218674E+02 -0.19685026128E+02  0.76357298084E+02  0.47000000000E+01 0.  1.
         13    1    6    6    0    0  0.49166344048E+01 -0.13295836341E+02 -0.20378006720E+02  0.24823692629E+02  0.00000000000E+00 0. -1.
        -14    1    6    6    0    0 -0.21971925993E+02 -0.90930217100E+01  0.80496372172E+02  0.83935180398E+02  0.00000000000E+00 0.  1.
</event>
<event>
12    1  0.8684423E-002  0.2476997E+03  0.7818608E-02  0.1114816E+00
         21   -1    0    0  501  502  0.00000000000E+00  0.00000000000E+00  0.12674577063E+03  0.12674577063E+03  0.00000000000E+00 0.  1.
         21   -1    0    0  502  503 -0.00000000000E+00 -0.00000000000E+00 -0.53162230497E+03  0.53162230497E+03  0.00000000000E+00 0. -1.
         -6    2    1    2    0  503  0.17801779814E+03 -0.40421927976E+01 -0.30161333252E+03  0.39028932474E+03  0.17218733658E+03 0.  0.
        -24    2    3    3    0    0  0.49989218116E+02  0.21487690284E+02 -0.21057870105E+03  0.23106468356E+03  0.78018304841E+02 0.  0.
          6    2    1    2  501    0 -0.17801779814E+03  0.40421927976E+01 -0.10326320182E+03  0.26807875086E+03  0.17174472928E+03 0.  0.
         24    2    5    5    0    0 -0.18926653258E+03  0.39752664562E+02 -0.92969495696E+02  0.22896580920E+03  0.79874401122E+02 0.  0.
          5    1    5    5  501    0  0.11248734441E+02 -0.35710471764E+02 -0.10293706123E+02  0.39112941668E+02  0.47000000000E+01 0. -1.
        -13    1    6    6    0    0 -0.41341252823E+02  0.45125148297E+02 -0.28609713437E+02  0.67556597729E+02  0.00000000000E+00 0.  1.
         14    1    6    6    0    0 -0.14792527976E+03 -0.53724837349E+01 -0.64359782259E+02  0.16140921147E+03  0.00000000000E+00 0. -1.
         -5    1    3    3    0  503  0.12802858003E+03 -0.25529883082E+02 -0.91034631465E+02  0.15922464118E+03  0.47000000000E+01 0.  1.
         13    1    4    4    0    0  0.67625450255E+02  0.11607231154E+02 -0.19088492593E+03  0.20284226454E+03  0.00000000000E+00 0. -1.
        -14    1    4    4    0    0 -0.17636232139E+02  0.98804591298E+01 -0.19693775123E+02  0.28222419018E+02  0.00000000000E+00 0.  1.
</event>
<event>
12    1  0.8684423E-002  0.2777512E+03  0.7818608E-02  0.1096937E+00
         21   -1    0    0  501  502  0.00000000000E+00  0.00000000000E+00  0.24100872322E+03  0.24100872322E+03  0.00000000000E+00 0.  1.
         21   -1    0    0  502  503 -0.00000000000E+00 -0.00000000000E+00 -0.11990539019E+04  0.11990539019E+04  0.00000000000E+00 0.  1.
         -6    2    1    2    0  503  0.13094425529E+03  0.17494338715E+03 -0.10955153603E+04  0.11301533304E+04  0.17129231991E+03 0.  0.
        -24    2    3    3    0    0  0.14189761805E+02  0.58330323215E+02 -0.26374579774E+03  0.28215986720E+03  0.80302981802E+02 0.  0.
          6    2    1    2  501    0 -0.13094425529E+03 -0.17494338715E+03  0.13747018161E+03  0.30990929473E+03  0.17144717386E+03 0.  0.
         24    2    5    5    0    0 -0.11329215735E+03 -0.17477456977E+03  0.16483217540E+03  0.27700954146E+03  0.78634450809E+02 0.  0.
          5    1    5    5  501    0 -0.17652097931E+02 -0.16881738241E+00 -0.27361993795E+02  0.32899753268E+02  0.47000000000E+01 0. -1.
        -11    1    6    6    0    0 -0.59217276816E+02 -0.46458555777E+02  0.24094526670E+02  0.79029295163E+02  0.00000000000E+00 0.  1.
         12    1    6    6    0    0 -0.54074880538E+02 -0.12831601399E+03  0.14073764873E+03  0.19798024629E+03  0.00000000000E+00 0. -1.
         -5    1    3    3    0  503  0.11675449348E+03  0.11661306394E+03 -0.83176956254E+03  0.84799346318E+03  0.47000000000E+01 0.  1.
         13    1    4    4    0    0  0.35422094892E+02  0.89431475082E+01 -0.51050874084E+02  0.62776559627E+02  0.00000000000E+00 0. -1.
        -14    1    4    4    0    0 -0.21232333087E+02  0.49387175707E+02 -0.21269492365E+03  0.21938330757E+03  0.00000000000E+00 0.  1.
</event>
<event>
12    1  0.8684423E-002  0.1770807E+03  0.7818608E-02  0.1171029E+00
         21   -1    0    0  503  502  0.00000000000E+00  0.00000000000E+00  0.92951337719E+02  0.92951337719E+02  0.00000000000E+00 0. -1.
         21   -1    0    0  501  503 -0.00000000000E+00 -0.00000000000E+00 -0.10914142200E+04  0.10914142200E+04  0.00000000000E+00 0. -1.
          6    2    1    2  501    0 -0.11964824857E+02 -0.30124760304E+02 -0.99173282440E+03  0.10071569706E+04  0.17257030499E+03 0.  0.
         24    2    3    3    0    0  0.19929288293E+02  0.90199325361E+01 -0.88753525101E+03  0.89127441911E+03  0.78566740267E+02 0.  0.
         -6    2    1    2    0  502  0.11964824857E+02  0.30124760304E+02 -0.67300578496E+01  0.17720858712E+03  0.17408886079E+03 0.  0.
        -24    2    5    5    0    0  0.68559289975E+02 -0.10085724629E+02 -0.77013395141E+01  0.10761799890E+03  0.81976978312E+02 0.  0.
          5    1    3    3  501    0 -0.31894113150E+02 -0.39144692840E+02 -0.10419757340E+03  0.11588255146E+03  0.47000000000E+01 0. -1.
        -13    1    4    4    0    0 -0.25987452079E+02 -0.14177949000E+02 -0.27782439024E+03  0.27939712546E+03  0.00000000000E+00 0.  1.
         14    1    4    4    0    0  0.45916740372E+02  0.23197881537E+02 -0.60971086077E+03  0.61187729366E+03  0.00000000000E+00 0. -1.
         -5    1    5    5    0  502 -0.56594465118E+02  0.40210484933E+02  0.97128166444E+00  0.69590588218E+02  0.47000000000E+01 0.  1.
         11    1    6    6    0    0  0.17693582961E+02  0.34268534114E+02 -0.10827092816E+02  0.40057723939E+02  0.00000000000E+00 0. -1.
        -12    1    6    6    0    0  0.50865707014E+02 -0.44354258743E+02  0.31257533020E+01  0.67560274958E+02  0.00000000000E+00 0.  1.
</event>
<event>
12    1  0.8684423E-002  0.1832918E+03  0.7818608E-02  0.1165166E+00
         21   -1    0    0  503  502  0.00000000000E+00  0.00000000000E+00  0.47086438729E+03  0.47086438729E+03  0.00000000000E+00 0.  1.
         21   -1    0    0  501  503 -0.00000000000E+00 -0.00000000000E+00 -0.89284595354E+02  0.89284595354E+02  0.00000000000E+00 0.  1.
          6    2    1    2  501    0  0.19776277378E+02 -0.54616357830E+02  0.31831281064E+03  0.36624536922E+03  0.17157673902E+03 0.  0.
         24    2    3    3    0    0  0.77658043447E+02 -0.41457977005E+02  0.17890836596E+03  0.21465667893E+03  0.79496860501E+02 0.  0.
         -6    2    1    2    0  502 -0.19776277378E+02  0.54616357830E+02  0.63266981296E+02  0.19390361342E+03  0.17384433463E+03 0.  0.
        -24    2    5    5    0    0 -0.75809377161E+02  0.86083077951E+01  0.39463714490E+02  0.11745013442E+03  0.80099841986E+02 0.  0.
          5    1    3    3  501    0 -0.57881766069E+02 -0.13158380825E+02  0.13940444467E+03  0.15158869029E+03  0.47000000000E+01 0. -1.
        -11    1    4    4    0    0  0.11246869243E+02 -0.41440367790E+02  0.32376147370E+02  0.53777421553E+02  0.00000000000E+00 0.  1.
         12    1    4    4    0    0  0.66411174204E+02 -0.17609214831E-01  0.14653221859E+03  0.16087925738E+03  0.00000000000E+00 0. -1.
         -5    1    5    5    0  502  0.56033099784E+02  0.46008050035E+02  0.23803266807E+02  0.76453478993E+02  0.47000000000E+01 0.  1.
         11    1    6    6    0    0 -0.35730909634E+02 -0.16706320461E+02 -0.17662199198E+02  0.43217500242E+02  0.00000000000E+00 0. -1.
        -12    1    6    6    0    0 -0.40078467527E+02  0.25314628256E+02  0.57125913687E+02  0.74232634183E+02  0.00000000000E+00 0.  1.
</event>
<event>
12    1  0.8684423E-002  0.1921660E+03  0.7818608E-02  0.1157135E+00
         21   -1    0    0  501  502  0.00000000000E+00  0.00000000000E+00  0.91506254465E+03  0.91506254465E+03  0.00000000000E+00 0.  1.
         21   -1    0    0  502  503 -0.00000000000E+00 -0.00000000000E+00 -0.49772489016E+02  0.49772489016E+02  0.00000000000E+00 0.  1.
         -6    2    1    2    0  503 -0.79662964762E+02  0.38364530710E+01  0.21900254679E+03  0.29135866888E+03  0.17483378422E+03 0.  0.
        -24    2    3    3    0    0  0.13082741816E+02  0.42135452528E+02  0.88136289810E+02  0.12638398396E+03  0.79109742304E+02 0.  0.
          6    2    1    2  501    0  0.79662964762E+02 -0.38364530710E+01  0.64628750884E+03  0.67347636478E+03  0.17181956673E+03 0.  0.
         24    2    5    5    0    0  0.24076673110E+02  0.12175879689E+02  0.57632298128E+03  0.58257336298E+03  0.80719305422E+02 0.  0.
          5    1    5    5  501    0  0.55586291652E+02 -0.16012332760E+02  0.69964527563E+02  0.90903001805E+02  0.47000000000E+01 0. -1.
        -13    1    6    6    0    0 -0.18736291926E+02  0.22624937570E+02  0.39019956651E+03  0.39130376709E+03  0.00000000000E+00 0.  1.
         14    1    6    6    0    0  0.42812965035E+02 -0.10449057880E+02  0.18612341477E+03  0.19126959589E+03  0.00000000000E+00 0. -1.
         -5    1    3    3    0  503 -0.92745706578E+02 -0.38298999457E+02  0.13086625698E+03  0.16497468492E+03  0.47000000000E+01 0.  1.
         13    1    4    4    0    0  0.14167515823E+02 -0.20535131269E+02  0.11761066631E+02  0.27581385192E+02  0.00000000000E+00 0. -1.
        -14    1    4    4    0    0 -0.10847740068E+01  0.62670583796E+02  0.76375223179E+02  0.98802598770E+02  0.00000000000E+00 0.  1.
</event>
<event>
12    1  0.8684423E-002  0.1963841E+03  0.7818608E-02  0.1153248E+00
         21   -1    0    0  501  502  0.00000000000E+00  0.00000000000E+00  0.27292310935E+03  0.27292310935E+03  0.00000000000E+00 0. -1.
         21   -1    0    0  502  503 -0.00000000000E+00 -0.00000000000E+00 -0.14309333012E+03  0.14309333012E+03  0.00000000000E+00 0. -1.
         -6    2    1    2    0  503  0.76861940639E+02 -0.61355446426E+02  0.96235113193E+02  0.21869592785E+03  0.16998371428E+03 0.  0.
        -24    2    3    3    0    0  0.74277423231E+02  0.56386907591E+00  0.14276575850E+02  0.11583693113E+03  0.87732094725E+02 0.  0.
          6    2    1    2  501    0 -0.76861940639E+02  0.61355446426E+02  0.33594666038E+02  0.19732051163E+03  0.16773352079E+03 0.  0.
         24    2    5    5    0    0 -0.75153144364E+02  0.89170847440E+02  0.64931047015E+02  0.15512246320E+03  0.79041144864E+02 0.  0.
          5    1    5    5  501    0 -0.17087962751E+01 -0.27815401014E+02 -0.31336380977E+02  0.42198048427E+02  0.47000000000E+01 0. -1.
        -13    1    6    6    0    0  0.16271943709E+02  0.21647648133E+02  0.15268955410E+02  0.31089191387E+02  0.00000000000E+00 0.  1.
         14    1    6    6    0    0 -0.91425088073E+02  0.67523199307E+02  0.49662091606E+02  0.12403327181E+03  0.00000000000E+00 0. -1.
         -5    1    3    3    0  503  0.25845174080E+01 -0.61919315502E+02  0.81958537343E+02  0.10285899672E+03  0.47000000000E+01 0.  1.
         11    1    4    4    0    0  0.48326560598E+01 -0.35355575330E+02  0.11901044545E+02  0.37616567264E+02  0.00000000000E+00 0. -1.
        -12    1    4    4    0    0  0.69444767171E+02  0.35919444406E+02  0.23755313049E+01  0.78220363863E+02  0.00000000000E+00 0.  1.
</event>
<event>
12    1  0.8684423E-002  0.1726000E+03  0.7818608E-02  0.1175680E+00
         21   -1    0    0  503  502  0.00000000000E+00  0.00000000000E+00  0.59109064916E+03  0.59109064916E+03  0.00000000000E+00 0. -1.
         21   -1    0    0  501  503 -0.00000000000E+00 -0.00000000000E+00 -0.66871721616E+02  0.66871721616E+02  0.00000000000E+00 0. -1.
          6    2    1    2  501    0 -0.24627504398E+00  0.17225577102E+02  0.94819148953E+02  0.19517198239E+03  0.16971932873E+03 0.  0.
         24    2    3    3    0    0 -0.34220688580E+02 -0.46376030459E+02  0.43698691478E+02  0.10665748397E+03  0.78386551915E+02 0.  0.
         -6    2    1    2    0  502  0.24627504398E+00 -0.17225577102E+02  0.42939977859E+03  0.46279038838E+03  0.17173815117E+03 0.  0.
        -24    2    5    5    0    0  0.36917309824E+02  0.36101511378E+02  0.33195792056E+03  0.34571968815E+03  0.81607811263E+02 0.  0.
          5    1    3    3  501    0  0.33974413536E+02  0.63601607561E+02  0.51120457475E+02  0.88514498428E+02  0.47000000000E+01 0. -1.
        -13    1    4    4    0    0 -0.32283251293E+02 -0.58985624868E+02  0.57055911445E+02  0.88186672949E+02  0.00000000000E+00 0.  1.
         14    1    4    4    0    0 -0.19374372872E+01  0.12609594409E+02 -0.13357219967E+02  0.18470811017E+02  0.00000000000E+00 0. -1.
         -5    1    5    5    0  502 -0.36671034780E+02 -0.53327088480E+02  0.97441858030E+02  0.11707070024E+03  0.47000000000E+01 0.  1.
         13    1    6    6    0    0 -0.11022143155E+02 -0.19312438669E+02  0.10093294439E+03  0.10335336081E+03  0.00000000000E+00 0. -1.
        -14    1    6    6    0    0  0.47939452979E+02  0.55413950047E+02  0.23102497617E+03  0.24236632734E+03  0.00000000000E+00 0.  1.
</event>
<event>
12    1  0.8684423E-002  0.1916104E+03  0.7818608E-02  0.1157538E+00
         21   -1    0    0  503  502  0.00000000000E+00  0.00000000000E+00  0.46312450758E+03  0.46312450758E+03  0.00000000000E+00 0.  1.
         21   -1    0    0  501  503 -0.00000000000E+00 -0.00000000000E+00 -0.86954837873E+02  0.86954837873E+02  0.00000000000E+00 0.  1.
          6    2    1    2  501    0  0.74323074072E+02 -0.19897944138E+02  0.10037185786E+03  0.21425350397E+03  0.17294567527E+03 0.  0.
         24    2    3    3    0    0  0.53476055227E+02 -0.30850491911E+02 -0.10150470597E+02  0.10115252438E+03  0.79481820575E+02 0.  0.
         -6    2    1    2    0  502 -0.74323074072E+02  0.19897944138E+02  0.27579781185E+03  0.33582584148E+03  0.17548423081E+03 0.  0.
        -24    2    5    5    0    0  0.55096643946E+01  0.17540495349E+02  0.38123124125E+02  0.85046713798E+02  0.73766832357E+02 0.  0.
          5    1    3    3  501    0  0.20847018845E+02  0.10952547773E+02  0.11052232845E+03  0.11310097959E+03  0.47000000000E+01 0. -1.
        -13    1    4    4    0    0  0.65138153330E+02 -0.11686669502E+02 -0.28612793069E+02  0.72098884808E+02  0.00000000000E+00 0.  1.
         14    1    4    4    0    0 -0.11662098104E+02 -0.19163822409E+02  0.18462322472E+02  0.29053639575E+02  0.00000000000E+00 0. -1.
         -5    1    5    5    0  502 -0.79832738466E+02  0.23574487890E+01  0.23767468772E+03  0.25077912768E+03  0.47000000000E+01 0.  1.
         11    1    6    6    0    0  0.29466136518E+02  0.22245643726E+02  0.46373835354E+02  0.59276086844E+02  0.00000000000E+00 0. -1.
        -12    1    6    6    0    0 -0.23956472123E+02 -0.47051483772E+01 -0.82507112287E+01  0.25770626955E+02  0.00000000000E+00 0.  1.
</event>
<event>
12    1  0.8684423E-002  0.2504290E+03  0.7818608E-02  0.1113115E+00
         21   -1    0    0  501  502  0.00000000000E+00  0.00000000000E+00  0.64620702685E+02  0.64620702685E+02  0.00000000000E+00 0.  1.
         21   -1    0    0  502  503 -0.00000000000E+00 -0.00000000000E+00 -0.18561371264E+04  0.18561371264E+04  0.00000000000E+00 0.  1.
         -6    2    1    2    0  503 -0.18228240701E+03  0.32055733681E+01 -0.15594045389E+04  0.15793041705E+04  0.17094442160E+03 0.  0.
        -24    2    3    3    0    0 -0.20632874978E+03  0.12464544516E+02 -0.14423474701E+04  0.14593525031E+04  0.81342399345E+02 0.  0.
          6    2    1    2  501    0  0.18228240701E+03 -0.32055733681E+01 -0.23211188477E+03  0.34145365859E+03  0.17169019280E+03 0.  0.
         24    2    5    5    0    0  0.13088566077E+03 -0.59233961246E+02 -0.19944233688E+03  0.25856701834E+03  0.80249229729E+02 0.  0.
          5    1    5    5  501    0  0.51396746236E+02  0.56028387877E+02 -0.32669547891E+02  0.82886640246E+02  0.47000000000E+01 0. -1.
        -13    1    6    6    0    0  0.70300018044E+02  0.75888038822E+01 -0.61279495127E+02  0.93567403535E+02  0.00000000000E+00 0.  1.
         14    1    6    6    0    0  0.60585642728E+02 -0.66822765128E+02 -0.13816284176E+03  0.16499961481E+03  0.00000000000E+00 0. -1.
         -5    1    3    3    0  503  0.24046342768E+02 -0.92589711484E+01 -0.11705706887E+03  0.11995166744E+03  0.47000000000E+01 0.  1.
         11    1    4    4    0    0 -0.12132987316E+03  0.21808537870E+02 -0.10819154635E+04  0.10889158005E+04  0.00000000000E+00 0. -1.
        -12    1    4    4    0    0 -0.84998876620E+02 -0.93439933539E+01 -0.36043200657E+03  0.37043670255E+03  0.00000000000E+00 0.  1.
</event>
<event>
12    1  0.8684423E-002  0.2538820E+03  0.7818608E-02  0.1111119E+00
         21   -1    0    0  503  502  0.00000000000E+00  0.00000000000E+00  0.60873399472E+02  0.60873399472E+02  0.00000000000E+00 0.  1.
         21   -1    0    0  501  503 -0.00000000000E+00 -0.00000000000E+00 -0.10580365793E+04  0.10580365793E+04  0.00000000000E+00 0. -1.
          6    2    1    2  501    0 -0.25487592780E+02 -0.18281225090E+03 -0.53809825347E+03  0.59431804184E+03  0.17202984626E+03 0.  0.
         24    2    3    3    0    0 -0.64567624665E+02 -0.18071098051E+03 -0.40006307804E+03  0.45076504158E+03  0.79455771736E+02 0.  0.
         -6    2    1    2    0  502  0.25487592780E+02  0.18281225090E+03 -0.45906492632E+03  0.52459193690E+03  0.17431625630E+03 0.  0.
        -24    2    5    5    0    0  0.33258189707E+02  0.14719311337E+02 -0.16962391302E+03  0.18975793520E+03  0.76896272962E+02 0.  0.
          5    1    3    3  501    0  0.39080031885E+02 -0.21012703868E+01 -0.13803517543E+03  0.14355300027E+03  0.47000000000E+01 0. -1.
        -13    1    4    4    0    0 -0.16261533629E+02 -0.14375885933E+03 -0.24997723914E+03  0.28882463053E+03  0.00000000000E+00 0.  1.
         14    1    4    4    0    0 -0.48306091036E+02 -0.36952121179E+02 -0.15008583890E+03  0.16194041105E+03  0.00000000000E+00 0. -1.
         -5    1    5    5    0  502 -0.77705969266E+01  0.16809293956E+03 -0.28944101331E+03  0.33483400169E+03  0.47000000000E+01 0.  1.
         13    1    6    6    0    0  0.43168802587E+02  0.16209024489E+02 -0.17311062856E+03  0.17914677701E+03  0.00000000000E+00 0. -1.
        -14    1    6    6    0    0 -0.99106128806E+01 -0.14897131517E+01  0.34867155420E+01  0.10611158194E+02  0.00000000000E+00 0.  1.
</event>
<event>
12    1  0.8684423E-002  0.2222762E+03  0.7818608E-02  0.1132545E+00
         21   -1    0    0  501  502  0.00000000000E+00  0.00000000000E+00  0.79562082674E+03  0.79562082674E+03  0.00000000000E+00 0.  1.
         21   -1    0    0  502  503 -0.00000000000E+00 -0.00000000000E+00 -0.72954383034E+02  0.72954383034E+02  0.00000000000E+00 0. -1.
         -6    2    1    2    0  503  0.93195308371E+02  0.10250035018E+03  0.18851184449E+03  0.29001852566E+03  0.17141278373E+03 0.  0.
        -24    2    3    3    0    0  0.48475974942E+02  0.13029241801E+03  0.10670508802E+03  0.19261907381E+03  0.79938085098E+02 0.  0.
          6    2    1    2  501    0 -0.93195308371E+02 -0.10250035018E+03  0.53415459922E+03  0.57855668411E+03  0.17382466333E+03 0.  0.
         24    2    5    5    0    0 -0.94283010549E+01  0.12935119208E+02  0.21310185777E+03  0.22721751480E+03  0.77195771098E+02 0.  0.
          5    1    5    5  501    0 -0.83767007316E+02 -0.11543546938E+03  0.32105274145E+03  0.35133916932E+03  0.47000000000E+01 0. -1.
        -11    1    6    6    0    0 -0.18684122539E+02  0.37753920632E+02  0.17978477269E+03  0.18465378266E+03  0.00000000000E+00 0.  1.
         12    1    6    6    0    0  0.92558214846E+01 -0.24818801424E+02  0.33317085083E+02  0.42563732142E+02  0.00000000000E+00 0. -1.
         -5    1    3    3    0  503  0.44719333429E+02 -0.27792067833E+02  0.81806756467E+02  0.97399451848E+02  0.47000000000E+01 0.  1.
         11    1    4    4    0    0 -0.34314912400E+01  0.91617556170E+02  0.41157451094E+02  0.10049620645E+03  0.00000000000E+00 0. -1.
        -12    1    4    4    0    0  0.51907466182E+02  0.38674861839E+02  0.65547636931E+02  0.92122867362E+02  0.00000000000E+00 0.  1.
</event>
<event>
12    1  0.8684423E-002  0.1787832E+03  0.7818608E-02  0.1169215E+00
         21   -1    0    0  503  502  0.00000000000E+00  0.00000000000E+00  0.16041756109E+04  0.16041756109E+04  0.00000000000E+00 0.  1.
         21   -1    0    0  501  503 -0.00000000000E+00 -0.00000000000E+00 -0.62335698344E+02  0.62335698344E+02  0.00000000000E+00 0.  1.
          6    2    1    2  501    0 -0.41758309068E+02 -0.58842719549E+01  0.82134397380E+02  0.19589796026E+03  0.17277607059E+03 0.  0.
         24    2    3    3    0    0 -0.90674422591E+02 -0.31649272041E+02  0.33423073054E+02  0.12206365584E+03  0.67519678113E+02 0.  0.
         -6    2    1    2    0  502  0.41758309068E+02  0.58842719549E+01  0.14597055152E+04  0.14706133490E+04  0.17373845324E+03 0.  0.
        -24    2    5    5    0    0  0.43604136165E+02 -0.24754654628E+02  0.43224263507E+03  0.44268134204E+03  0.81356999706E+02 0.  0.
          5    1    3    3  501    0  0.48916113523E+02  0.25765000086E+02  0.48711324325E+02  0.73834304420E+02  0.47000000000E+01 0. -1.
        -13    1    4    4    0    0 -0.21818101340E+02  0.37405875162E+01  0.38573452147E+02  0.44473955879E+02  0.00000000000E+00 0.  1.
         14    1    4    4    0    0 -0.68856321251E+02 -0.35389859557E+02 -0.51503790924E+01  0.77589699964E+02  0.00000000000E+00 0. -1.
         -5    1    5    5    0  502 -0.18458270973E+01  0.30638926583E+02  0.10274628801E+04  0.10279320070E+04  0.47000000000E+01 0.  1.
         13    1    6    6    0    0  0.17100471807E+02 -0.37758822153E+02  0.38322369729E+03  0.38545889139E+03  0.00000000000E+00 0. -1.
        -14    1    6    6    0    0  0.26503664358E+02  0.13004167525E+02  0.49018937785E+02  0.57222450656E+02  0.00000000000E+00 0.  1.
</event>
<event>
12    1  0.8684423E-002  0.2746303E+03  0.7818608E-02  0.1099018E+00
         21   -1    0    0  503  502  0.00000000000E+00  0.00000000000E+00  0.11741243441E+04  0.11741243441E+04  0.00000000000E+00 0. -1.
         21   -1    0    0  501  503 -0.00000000000E+00 -0.00000000000E+00 -0.10598431075E+03  0.10598431075E+03  0.00000000000E+00 0. -1.
          6    2    1    2  501    0  0.19769498869E+03 -0.80381731940E+02  0.12800696082E+03  0.30068433313E+03  0.16876242113E+03 0.  0.
         24    2    3    3    0    0  0.52488166799E+02 -0.74371599445E+02  0.27806221187E+02  0.12409605198E+03  0.79627267451E+02 0.  0.
         -6    2    1    2    0  502 -0.19769498869E+03  0.80381731940E+02  0.94013307248E+03  0.97942432167E+03  0.17285044557E+03 0.  0.
        -24    2    5    5    0    0 -0.98823745491E+02  0.11322791274E+03  0.56611917729E+03  0.59114236469E+03  0.79822800877E+02 0.  0.
          5    1    3    3  501    0  0.14520682190E+03 -0.60101324949E+01  0.10020073963E+03  0.17658828115E+03  0.47000000000E+01 0. -1.
        -13    1    4    4    0    0  0.19335633635E+02  0.80943698440E+01 -0.14672338605E+02  0.25586384492E+02  0.00000000000E+00 0.  1.
         14    1    4    4    0    0  0.33152533165E+02 -0.82465969289E+02  0.42478559793E+02  0.98509667485E+02  0.00000000000E+00 0. -1.
         -5    1    5    5    0  502 -0.98871243204E+02 -0.32846180795E+02  0.37401389519E+03  0.38828195698E+03  0.47000000000E+01 0.  1.
         11    1    6    6    0    0  0.68681090265E+00  0.53964807438E+02  0.16197801040E+03  0.17073238710E+03  0.00000000000E+00 0. -1.
        -12    1    6    6    0    0 -0.99510556393E+02  0.59263105297E+02  0.40414116689E+03  0.42040997759E+03  0.00000000000E+00 0.  1.
</event>
<event>
12    1  0.8684423E-002  0.2177151E+03  0.7818608E-02  0.1135766E+00
         21   -1    0    0  501  502  0.00000000000E+00  0.00000000000E+00  0.87486885484E+02  0.87486885484E+02  0.00000000000E+00 0.  1.
         21   -1    0    0  502  503 -0.00000000000E+00 -0.00000000000E+00 -0.90864705954E+03  0.90864705954E+03  0.00000000000E+00 0.  1.
         -6    2    1    2    0  503  0.68195697857E+02  0.11337511269E+03 -0.72750433128E+03  0.75912915444E+03  0.17178460847E+03 0.  0.
        -24    2    3    3    0    0 -0.14418532742E+02  0.28537692521E+02 -0.42597181888E+03  0.43514390016E+03  0.82921223961E+02 0.  0.
          6    2    1    2  501    0 -0.68195697857E+02 -0.11337511269E+03 -0.93655842772E+02  0.23700479058E+03  0.17290252887E+03 0.  0.
         24    2    5    5    0    0 -0.36515636078E+02  0.16520160063E+02 -0.27636665797E+02  0.87816889174E+02  0.73087025943E+02 0.  0.
          5    1    5    5  501    0 -0.31680061779E+02 -0.12989527275E+03 -0.66019176975E+02  0.14918790141E+03  0.47000000000E+01 0. -1.
        -11    1    6    6    0    0 -0.52440491105E+02 -0.90131743419E+01 -0.19151944626E+02  0.56551210438E+02  0.00000000000E+00 0.  1.
         12    1    6    6    0    0  0.15924855027E+02  0.25533334405E+02 -0.84847211713E+01  0.31265678736E+02  0.00000000000E+00 0. -1.
         -5    1    3    3    0  503  0.82614230599E+02  0.84837420169E+02 -0.30153251240E+03  0.32398525428E+03  0.47000000000E+01 0.  1.
         13    1    4    4    0    0 -0.64451651217E+01  0.27109694766E+01  0.12200710344E+01  0.70977519172E+01  0.00000000000E+00 0. -1.
        -14    1    4    4    0    0 -0.79733676200E+01  0.25826723044E+02 -0.42719188992E+03  0.42804614824E+03  0.00000000000E+00 0.  1.
</event>
<event>
12    1  0.8684423E-002  0.2001807E+03  0.7818608E-02  0.1150288E+00
         21   -1    0    0  503  502  0.00000000000E+00  0.00000000000E+00  0.96465403194E+03  0.96465403194E+03  0.00000000000E+00 0. -1.
         21   -1    0    0  501  503 -0.00000000000E+00 -0.00000000000E+00 -0.13383261165E+03  0.13383261165E+03  0.00000000000E+00 0. -1.
          6    2    1    2  501    0  0.40902586895E+01  0.96575074154E+02 -0.43427777093E+02  0.20161208993E+03  0.17151672752E+03 0.  0.
         24    2    3    3    0    0  0.16403949920E+02 -0.11018107586E+02  0.66443221457E+01  0.82208468249E+02  0.79521047322E+02 0.  0.
         -6    2    1    2    0  502 -0.40902586895E+01 -0.96575074154E+02  0.87424919739E+03  0.89687455366E+03  0.17529640816E+03 0.  0.
        -24    2    5    5    0    0 -0.50187682437E+02 -0.26971014124E+01  0.45400688279E+03  0.46378825832E+03  0.80319493930E+02 0.  0.
          5    1    3    3  501    0 -0.12313691230E+02  0.10759318174E+03 -0.50072099239E+02  0.11940362168E+03  0.47000000000E+01 0. -1.
        -11    1    4    4    0    0 -0.29321765202E+02 -0.11305557828E+02 -0.10855036593E+02  0.33247757395E+02  0.00000000000E+00 0.  1.
         12    1    4    4    0    0  0.45725715122E+02  0.28745024135E+00  0.17499358739E+02  0.48960710854E+02  0.00000000000E+00 0. -1.
         -5    1    5    5    0  502  0.46097423748E+02 -0.93877972741E+02  0.42024231459E+03  0.43308629535E+03  0.47000000000E+01 0.  1.
         13    1    6    6    0    0 -0.17905526385E+02 -0.30256097034E+02  0.34535299227E+03  0.34713790999E+03  0.00000000000E+00 0. -1.
        -14    1    6    6    0    0 -0.32282156052E+02  0.27558995622E+02  0.10865389053E+03  0.11665034833E+03  0.00000000000E+00 0.  1.
</event>
<event>
12    1  0.8684423E-002  0.1990587E+03  0.7818608E-02  0.1151594E+00
         21   -1    0    0  501  502  0.00000000000E+00  0.00000000000E+00  0.98542426890E+02  0.98542426890E+02  0.00000000000E+00 0. -1.
         21   -1    0    0  502  503 -0.00000000000E+00 -0.00000000000E+00 -0.67270578582E+03  0.67270578582E+03  0.00000000000E+00 0. -1.
         -6    2    1    2    0  503  0.18003951462E+02  0.97376043558E+02 -0.53816954239E+03  0.57380382091E+03  0.17267927612E+03 0.  0.
        -24    2    3    3    0    0  0.60888948128E+02  0.10163628074E+02 -0.25161731837E+03  0.27118294350E+03  0.80113360931E+02 0.  0.
          6    2    1    2  501    0 -0.18003951462E+02 -0.97376043558E+02 -0.35993816536E+02  0.19744439180E+03  0.16698052850E+03 0.  0.
         24    2    5    5    0    0 -0.22044588053E+02 -0.49977761449E+02  0.42591421093E+02  0.10546258129E+03  0.79527268282E+02 0.  0.
          5    1    5    5  501    0  0.40406365912E+01 -0.47398282108E+02 -0.78585237629E+02  0.91981810507E+02  0.47000000000E+01 0. -1.
        -11    1    6    6    0    0  0.24279238858E+02 -0.53027659956E+01 -0.50896527728E+01  0.25367406885E+02  0.00000000000E+00 0.  1.
         12    1    6    6    0    0 -0.46323826911E+02 -0.44674995454E+02  0.47681073865E+02  0.80095174408E+02  0.00000000000E+00 0. -1.
         -5    1    3    3    0  503 -0.42884996666E+02  0.87212415483E+02 -0.28655222402E+03  0.30262087741E+03  0.47000000000E+01 0.  1.
         11    1    4    4    0    0  0.53194086406E+02  0.42224888110E+02 -0.17812037396E+03  0.19062901045E+03  0.00000000000E+00 0. -1.
        -12    1    4    4    0    0  0.76948617218E+01 -0.32061260036E+02 -0.73496944406E+02  0.80553933045E+02  0.00000000000E+00 0.  1.
</event>
